
                                 *****************
                                 * O   R   C   A *
                                 *****************

                                            #,                                       
                                            ###                                      
                                            ####                                     
                                            #####                                    
                                            ######                                   
                                           ########,                                 
                                     ,,################,,,,,                         
                               ,,#################################,,                 
                          ,,##########################################,,             
                       ,#########################################, ''#####,          
                    ,#############################################,,   '####,        
                  ,##################################################,,,,####,       
                ,###########''''           ''''###############################       
              ,#####''   ,,,,##########,,,,          '''####'''          '####       
            ,##' ,,,,###########################,,,                        '##       
           ' ,,###''''                  '''############,,,                           
         ,,##''                                '''############,,,,        ,,,,,,###''
      ,#''                                            '''#######################'''  
     '                                                          ''''####''''         
             ,#######,   #######,   ,#######,      ##                                
            ,#'     '#,  ##    ##  ,#'     '#,    #''#        ######   ,####,        
            ##       ##  ##   ,#'  ##            #'  '#       #        #'  '#        
            ##       ##  #######   ##           ,######,      #####,   #    #        
            '#,     ,#'  ##    ##  '#,     ,#' ,#      #,         ##   #,  ,#        
             '#######'   ##     ##  '#######'  #'      '#     #####' # '####'        



                  #######################################################
                  #                        -***-                        #
                  #          Department of theory and spectroscopy      #
                  #    Directorship and core code : Frank Neese         #
                  #        Max Planck Institute fuer Kohlenforschung    #
                  #                Kaiser Wilhelm Platz 1               #
                  #                 D-45470 Muelheim/Ruhr               #
                  #                      Germany                        #
                  #                                                     #
                  #                  All rights reserved                #
                  #                        -***-                        #
                  #######################################################


                         Program Version 5.0.2 -  RELEASE  -


 With contributions from (in alphabetic order):
   Daniel Aravena         : Magnetic Suceptibility
   Michael Atanasov       : Ab Initio Ligand Field Theory (pilot matlab implementation)
   Alexander A. Auer      : GIAO ZORA, VPT2 properties, NMR spectrum
   Ute Becker             : Parallelization
   Giovanni Bistoni       : ED, misc. LED, open-shell LED, HFLD
   Martin Brehm           : Molecular dynamics
   Dmytro Bykov           : SCF Hessian
   Vijay G. Chilkuri      : MRCI spin determinant printing, contributions to CSF-ICE
   Dipayan Datta          : RHF DLPNO-CCSD density
   Achintya Kumar Dutta   : EOM-CC, STEOM-CC
   Dmitry Ganyushin       : Spin-Orbit,Spin-Spin,Magnetic field MRCI
   Miquel Garcia          : C-PCM and meta-GGA Hessian, CC/C-PCM, Gaussian charge scheme
   Yang Guo               : DLPNO-NEVPT2, F12-NEVPT2, CIM, IAO-localization
   Andreas Hansen         : Spin unrestricted coupled pair/coupled cluster methods
   Benjamin Helmich-Paris : MC-RPA, TRAH-SCF, COSX integrals
   Lee Huntington         : MR-EOM, pCC
   Robert Izsak           : Overlap fitted RIJCOSX, COSX-SCS-MP3, EOM
   Marcus Kettner         : VPT2
   Christian Kollmar      : KDIIS, OOCD, Brueckner-CCSD(T), CCSD density, CASPT2, CASPT2-K
   Simone Kossmann        : Meta GGA functionals, TD-DFT gradient, OOMP2, MP2 Hessian
   Martin Krupicka        : Initial AUTO-CI
   Lucas Lang             : DCDCAS
   Marvin Lechner         : AUTO-CI (C++ implementation), FIC-MRCC
   Dagmar Lenk            : GEPOL surface, SMD
   Dimitrios Liakos       : Extrapolation schemes; Compound Job, initial MDCI parallelization
   Dimitrios Manganas     : Further ROCIS development; embedding schemes
   Dimitrios Pantazis     : SARC Basis sets
   Anastasios Papadopoulos: AUTO-CI, single reference methods and gradients
   Taras Petrenko         : DFT Hessian,TD-DFT gradient, ASA, ECA, R-Raman, ABS, FL, XAS/XES, NRVS
   Peter Pinski           : DLPNO-MP2, DLPNO-MP2 Gradient
   Christoph Reimann      : Effective Core Potentials
   Marius Retegan         : Local ZFS, SOC
   Christoph Riplinger    : Optimizer, TS searches, QM/MM, DLPNO-CCSD(T), (RO)-DLPNO pert. Triples
   Tobias Risthaus        : Range-separated hybrids, TD-DFT gradient, RPA, STAB
   Michael Roemelt        : Original ROCIS implementation
   Masaaki Saitow         : Open-shell DLPNO-CCSD energy and density
   Barbara Sandhoefer     : DKH picture change effects
   Avijit Sen             : IP-ROCIS
   Kantharuban Sivalingam : CASSCF convergence, NEVPT2, FIC-MRCI
   Bernardo de Souza      : ESD, SOC TD-DFT
   Georgi Stoychev        : AutoAux, RI-MP2 NMR, DLPNO-MP2 response
   Willem Van den Heuvel  : Paramagnetic NMR
   Boris Wezisla          : Elementary symmetry handling
   Frank Wennmohs         : Technical directorship


 We gratefully acknowledge several colleagues who have allowed us to
 interface, adapt or use parts of their codes:
   Stefan Grimme, W. Hujo, H. Kruse, P. Pracht,  : VdW corrections, initial TS optimization,
                  C. Bannwarth, S. Ehlert          DFT functionals, gCP, sTDA/sTD-DF
   Ed Valeev, F. Pavosevic, A. Kumar             : LibInt (2-el integral package), F12 methods
   Garnet Chan, S. Sharma, J. Yang, R. Olivares  : DMRG
   Ulf Ekstrom                                   : XCFun DFT Library
   Mihaly Kallay                                 : mrcc  (arbitrary order and MRCC methods)
   Jiri Pittner, Ondrej Demel                    : Mk-CCSD
   Frank Weinhold                                : gennbo (NPA and NBO analysis)
   Christopher J. Cramer and Donald G. Truhlar   : smd solvation model
   Lars Goerigk                                  : TD-DFT with DH, B97 family of functionals
   V. Asgeirsson, H. Jonsson                     : NEB implementation
   FAccTs GmbH                                   : IRC, NEB, NEB-TS, DLPNO-Multilevel, CI-OPT
                                                   MM, QMMM, 2- and 3-layer-ONIOM, Crystal-QMMM,
                                                   LR-CPCM, SF, NACMEs, symmetry and pop. for TD-DFT,
                                                   nearIR, NL-DFT gradient (VV10), updates on ESD,
                                                   ML-optimized integration grids
   S Lehtola, MJT Oliveira, MAL Marques          : LibXC Library
   Liviu Ungur et al                             : ANISO software


 Your calculation uses the libint2 library for the computation of 2-el integrals
 For citations please refer to: http://libint.valeyev.net

 Your ORCA version has been built with support for libXC version: 5.1.0
 For citations please refer to: https://tddft.org/programs/libxc/

 This ORCA versions uses:
   CBLAS   interface :  Fast vector & matrix operations
   LAPACKE interface :  Fast linear algebra routines
   SCALAPACK package :  Parallel linear algebra routines
   Shared memory     :  Shared parallel matrices
   BLAS/LAPACK       :  OpenBLAS 0.3.15  USE64BITINT DYNAMIC_ARCH NO_AFFINITY SkylakeX SINGLE_THREADED
        Core in use  :  SkylakeX
   Copyright (c) 2011-2014, The OpenBLAS Project


Your calculation utilizes the SMD solvation module
Please cite in your paper:
A.V. Marenich, C.J. Cramer, D.G. Truhlar J. Phys. Chem. B, 113, (2009), 6378 

================================================================================

----- Orbital basis set information -----
Your calculation utilizes the basis: aug-cc-pVTZ 
    H, B-Ne : Obtained from the ccRepo (grant-hill.group.shef.ac.uk/ccrepo) Feb. 2017
              R. A. Kendall, T. H. Dunning, Jr., R. J. Harrison, J. Chem. Phys. 96, 6796 (1992)
         He : Obtained from the ccRepo (grant-hill.group.shef.ac.uk/ccrepo) Feb. 2017
              D. E. Woon, T. H. Dunning, Jr., J. Chem. Phys. 100, 2975 (1994)
  Li-Be, Na : Obtained from the ccRepo (grant-hill.group.shef.ac.uk/ccrepo) Feb. 2017
              B. P. Prascher, D. E. Woon, K. A. Peterson, T. H. Dunning, Jr., A. K. Wilson, Theor. Chem. Acc. 128, 69 (2011)
         Mg : Obtained from the Peterson Research Group Website (tyr0.chem.wsu.edu/~kipeters) Feb. 2017
              B. P. Prascher, D. E. Woon, K. A. Peterson, T. H. Dunning, Jr., A. K. Wilson, Theor. Chem. Acc. 128, 69 (2011)
      Al-Ar : Obtained from the ccRepo (grant-hill.group.shef.ac.uk/ccrepo) Feb. 2017
              D. E. Woon, T. H. Dunning, Jr., J. Chem. Phys. 98, 1358 (1993)
      Sc-Zn : Obtained from the ccRepo (grant-hill.group.shef.ac.uk/ccrepo) Feb. 2017
              N. B. Balabanov, K. A. Peterson, J. Chem. Phys. 123, 064107 (2005)
              N. B. Balabanov, K. A. Peterson, J. Chem. Phys. 125, 074110 (2006)
      Ga-Kr : Obtained from the ccRepo (grant-hill.group.shef.ac.uk/ccrepo) Feb. 2017
              A. K. Wilson, D. E. Woon, K. A. Peterson, T. H. Dunning, Jr., J. Chem. Phys. 110, 7667 (1999)
     Ag, Au : Obtained from the Peterson Research Group Website (tyr0.chem.wsu.edu/~kipeters) Feb. 2017
              K. A. Peterson, C. Puzzarini, Theor. Chem. Acc. 114, 283 (2005)

The basis set includes element-specific modifications.

Your calculation utilizes the basis: cc-pVTZ 
       H, B-Ne : Obtained from the ccRepo (grant-hill.group.shef.ac.uk/ccrepo) Feb. 2017
                 T. H. Dunning, Jr., J. Chem. Phys. 90, 1007 (1989)
            He : Obtained from the ccRepo (grant-hill.group.shef.ac.uk/ccrepo) Feb. 2017
                 D. E. Woon, T. H. Dunning, Jr., J. Chem. Phys. 100, 2975 (1994)
  Li-Be, Na-Mg : Obtained from the ccRepo (grant-hill.group.shef.ac.uk/ccrepo) Feb. 2017
                 B. P. Prascher, D. E. Woon, K. A. Peterson, T. H. Dunning, Jr., A. K. Wilson, Theor. Chem. Acc. 128, 69 (2011)
         Al-Ar : Obtained from the ccRepo (grant-hill.group.shef.ac.uk/ccrepo) Feb. 2017
                 D. E. Woon, T. H. Dunning, Jr., J. Chem. Phys. 98, 1358 (1993)
            Ca : Obtained from the Peterson Research Group Website (tyr0.chem.wsu.edu/~kipeters) Feb. 2017
                 J. Koput, K. A. Peterson, J. Phys. Chem. 106, 9595 (2002)
         Sc-Zn : Obtained from the ccRepo (grant-hill.group.shef.ac.uk/ccrepo) Feb. 2017
                 N. B. Balabanov, K. A. Peterson, J. Chem. Phys. 123, 064107 (2005)
                 N. B. Balabanov, K. A. Peterson, J. Chem. Phys. 125, 074110 (2006)
         Ga-Kr : Obtained from the ccRepo (grant-hill.group.shef.ac.uk/ccrepo) Feb. 2017
                 A. K. Wilson, D. E. Woon, K. A. Peterson, T. H. Dunning, Jr., J. Chem. Phys. 110, 7667 (1999)
             Y : Obtained from the ccRepo (grant-hill.group.shef.ac.uk/ccrepo) Feb. 2017
                 K. A. Peterson, D. Figgen, M. Dolg, H. Stoll, J. Chem. Phys. 126, 124101 (2007)
        Ag, Au : Obtained from the Peterson Research Group Website (tyr0.chem.wsu.edu/~kipeters) Feb. 2017
                 K. A. Peterson, C. Puzzarini, Theor. Chem. Acc. 114, 283 (2005)

----- AuxJ basis set information -----
Your calculation utilizes the auxiliary basis: aug-cc-pVTZ/JK 
  H, B-F, Al-Cl, Ga-Br : Obtained from the TURBOMOLE 7.0 basis set library

The basis set includes element-specific modifications.

Your calculation utilizes the auxiliary basis: cc-pVTZ/JK 
  H, B-F, Al-Cl, Ga-Br : Obtained from the TURBOMOLE 7.0 basis set library

----- AuxC basis set information -----
Your calculation utilizes the auxiliary basis: aug-cc-pVTZ/C 
  H-He, B-F, Al-Ar, Ga-Kr : Obtained from the EMSL Basis Set Exchange (bse.pnl.gov) Feb. 2017
                            F. Weigend, A. Kohn, C. Hattig, J. Chem. Phys. 116, 3175 (2002)
                   Be, Mg : Obtained from the TURBOMOLE 7.0 basis set library
                            C. Haettig, Phys. Chem. Chem. Phys. 7, 59 (2005)
                       Ne : Obtained from the EMSL Basis Set Exchange (bse.pnl.gov) Feb. 2017
                            C. Haettig, Phys. Chem. Chem. Phys. 7, 59 (2005)
                            F. Weigend, A. Kohn, C. Hattig, J. Chem. Phys. 116, 3175 (2002)
                    Sc-Zn : Obtained from the EMSL Basis Set Exchange (bse.pnl.gov) Feb. 2017
                            J. G. Hill, J. A. Platts, J. Chem. Phys. 128, 044104 (2008)

The basis set includes element-specific modifications.

Your calculation utilizes the auxiliary basis: cc-pVTZ/C 
  Obtained from the EMSL Basis Set Exchange (bse.pnl.gov) Feb. 2017
  H-He, B-F, Al-Ar, Ga-Kr : F. Weigend, A. Kohn, C. Hattig, J. Chem. Phys. 116, 3175 (2002)
             Li-Be, Na-Mg : C. Haettig, Phys. Chem. Chem. Phys. 7, 59 (2005)
                       Ne : C. Haettig, Phys. Chem. Chem. Phys. 7, 59 (2005)
                            F. Weigend, A. Kohn, C. Hattig, J. Chem. Phys. 116, 3175 (2002)
                    Sc-Zn : J. G. Hill, J. A. Platts, J. Chem. Phys. 128, 044104 (2008)

================================================================================
                                        WARNINGS
                       Please study these warnings very carefully!
================================================================================


WARNING: Geometry Optimization
  ===> : Switching off AutoStart
         For restart on a previous wavefunction, please use MOREAD

INFO   : the flag for use of the SHARK integral package has been found!



***************************************
The coordinates will be read from file: 
***************************************


Your calculation utilizes the SMD solvation module
Please cite in your paper:
A.V. Marenich, C.J. Cramer, D.G. Truhlar J. Phys. Chem. B, 113, (2009), 6378 

================================================================================

----- Orbital basis set information -----
Your calculation utilizes the basis: aug-cc-pVTZ 
    H, B-Ne : Obtained from the ccRepo (grant-hill.group.shef.ac.uk/ccrepo) Feb. 2017
              R. A. Kendall, T. H. Dunning, Jr., R. J. Harrison, J. Chem. Phys. 96, 6796 (1992)
         He : Obtained from the ccRepo (grant-hill.group.shef.ac.uk/ccrepo) Feb. 2017
              D. E. Woon, T. H. Dunning, Jr., J. Chem. Phys. 100, 2975 (1994)
  Li-Be, Na : Obtained from the ccRepo (grant-hill.group.shef.ac.uk/ccrepo) Feb. 2017
              B. P. Prascher, D. E. Woon, K. A. Peterson, T. H. Dunning, Jr., A. K. Wilson, Theor. Chem. Acc. 128, 69 (2011)
         Mg : Obtained from the Peterson Research Group Website (tyr0.chem.wsu.edu/~kipeters) Feb. 2017
              B. P. Prascher, D. E. Woon, K. A. Peterson, T. H. Dunning, Jr., A. K. Wilson, Theor. Chem. Acc. 128, 69 (2011)
      Al-Ar : Obtained from the ccRepo (grant-hill.group.shef.ac.uk/ccrepo) Feb. 2017
              D. E. Woon, T. H. Dunning, Jr., J. Chem. Phys. 98, 1358 (1993)
      Sc-Zn : Obtained from the ccRepo (grant-hill.group.shef.ac.uk/ccrepo) Feb. 2017
              N. B. Balabanov, K. A. Peterson, J. Chem. Phys. 123, 064107 (2005)
              N. B. Balabanov, K. A. Peterson, J. Chem. Phys. 125, 074110 (2006)
      Ga-Kr : Obtained from the ccRepo (grant-hill.group.shef.ac.uk/ccrepo) Feb. 2017
              A. K. Wilson, D. E. Woon, K. A. Peterson, T. H. Dunning, Jr., J. Chem. Phys. 110, 7667 (1999)
     Ag, Au : Obtained from the Peterson Research Group Website (tyr0.chem.wsu.edu/~kipeters) Feb. 2017
              K. A. Peterson, C. Puzzarini, Theor. Chem. Acc. 114, 283 (2005)

The basis set includes element-specific modifications.

Your calculation utilizes the basis: cc-pVTZ 
       H, B-Ne : Obtained from the ccRepo (grant-hill.group.shef.ac.uk/ccrepo) Feb. 2017
                 T. H. Dunning, Jr., J. Chem. Phys. 90, 1007 (1989)
            He : Obtained from the ccRepo (grant-hill.group.shef.ac.uk/ccrepo) Feb. 2017
                 D. E. Woon, T. H. Dunning, Jr., J. Chem. Phys. 100, 2975 (1994)
  Li-Be, Na-Mg : Obtained from the ccRepo (grant-hill.group.shef.ac.uk/ccrepo) Feb. 2017
                 B. P. Prascher, D. E. Woon, K. A. Peterson, T. H. Dunning, Jr., A. K. Wilson, Theor. Chem. Acc. 128, 69 (2011)
         Al-Ar : Obtained from the ccRepo (grant-hill.group.shef.ac.uk/ccrepo) Feb. 2017
                 D. E. Woon, T. H. Dunning, Jr., J. Chem. Phys. 98, 1358 (1993)
            Ca : Obtained from the Peterson Research Group Website (tyr0.chem.wsu.edu/~kipeters) Feb. 2017
                 J. Koput, K. A. Peterson, J. Phys. Chem. 106, 9595 (2002)
         Sc-Zn : Obtained from the ccRepo (grant-hill.group.shef.ac.uk/ccrepo) Feb. 2017
                 N. B. Balabanov, K. A. Peterson, J. Chem. Phys. 123, 064107 (2005)
                 N. B. Balabanov, K. A. Peterson, J. Chem. Phys. 125, 074110 (2006)
         Ga-Kr : Obtained from the ccRepo (grant-hill.group.shef.ac.uk/ccrepo) Feb. 2017
                 A. K. Wilson, D. E. Woon, K. A. Peterson, T. H. Dunning, Jr., J. Chem. Phys. 110, 7667 (1999)
             Y : Obtained from the ccRepo (grant-hill.group.shef.ac.uk/ccrepo) Feb. 2017
                 K. A. Peterson, D. Figgen, M. Dolg, H. Stoll, J. Chem. Phys. 126, 124101 (2007)
        Ag, Au : Obtained from the Peterson Research Group Website (tyr0.chem.wsu.edu/~kipeters) Feb. 2017
                 K. A. Peterson, C. Puzzarini, Theor. Chem. Acc. 114, 283 (2005)

----- AuxJ basis set information -----
Your calculation utilizes the auxiliary basis: aug-cc-pVTZ/JK 
  H, B-F, Al-Cl, Ga-Br : Obtained from the TURBOMOLE 7.0 basis set library

The basis set includes element-specific modifications.

Your calculation utilizes the auxiliary basis: cc-pVTZ/JK 
  H, B-F, Al-Cl, Ga-Br : Obtained from the TURBOMOLE 7.0 basis set library

----- AuxC basis set information -----
Your calculation utilizes the auxiliary basis: aug-cc-pVTZ/C 
  H-He, B-F, Al-Ar, Ga-Kr : Obtained from the EMSL Basis Set Exchange (bse.pnl.gov) Feb. 2017
                            F. Weigend, A. Kohn, C. Hattig, J. Chem. Phys. 116, 3175 (2002)
                   Be, Mg : Obtained from the TURBOMOLE 7.0 basis set library
                            C. Haettig, Phys. Chem. Chem. Phys. 7, 59 (2005)
                       Ne : Obtained from the EMSL Basis Set Exchange (bse.pnl.gov) Feb. 2017
                            C. Haettig, Phys. Chem. Chem. Phys. 7, 59 (2005)
                            F. Weigend, A. Kohn, C. Hattig, J. Chem. Phys. 116, 3175 (2002)
                    Sc-Zn : Obtained from the EMSL Basis Set Exchange (bse.pnl.gov) Feb. 2017
                            J. G. Hill, J. A. Platts, J. Chem. Phys. 128, 044104 (2008)

The basis set includes element-specific modifications.

Your calculation utilizes the auxiliary basis: cc-pVTZ/C 
  Obtained from the EMSL Basis Set Exchange (bse.pnl.gov) Feb. 2017
  H-He, B-F, Al-Ar, Ga-Kr : F. Weigend, A. Kohn, C. Hattig, J. Chem. Phys. 116, 3175 (2002)
             Li-Be, Na-Mg : C. Haettig, Phys. Chem. Chem. Phys. 7, 59 (2005)
                       Ne : C. Haettig, Phys. Chem. Chem. Phys. 7, 59 (2005)
                            F. Weigend, A. Kohn, C. Hattig, J. Chem. Phys. 116, 3175 (2002)
                    Sc-Zn : J. G. Hill, J. A. Platts, J. Chem. Phys. 128, 044104 (2008)

================================================================================
                                        WARNINGS
                       Please study these warnings very carefully!
================================================================================

INFO   : Checking CIS options ...

INFO   : the flag for use of the SHARK integral package has been found!

================================================================================
                                       INPUT FILE
================================================================================
NAME = b3lyp-train-1.inp
|  1> ! b3lyp aug-cc-PVTZ RIJCOSX Opt
|  2> %maxcore 4000
|  3> %basis
|  4>  AuxJ "aug-cc-PVTZ/JK"
|  5>  AuxC "aug-cc-PVTZ/C"
|  6>  newGTO H "cc-PVTZ" end
|  7>  newAuxJGTO H "cc-PVTZ/JK" end
|  8>  newAuxCGTO H "cc-PVTZ/C" end
|  9> end
| 10> %cpcm
| 11>  SMD true
| 12>  SMDsolvent "cyclohexane"
| 13> end
| 14> %pal nprocs 4 end
| 15> * xyz 0 1
| 16> F         -0.24810       -1.64740       -1.94630
| 17> B         -0.02410       -1.38450       -0.61380
| 18> F          0.17410       -2.55790        0.07750
| 19> N         -1.23320       -0.61900       -0.01780
| 20> C         -2.48730       -1.04400        0.05700
| 21> C         -3.29420       -0.06750        0.65890
| 22> C         -2.47560        0.99680        0.95860
| 23> C         -1.17200        0.64600        0.52970
| 24> C          0.02230        1.34530        0.59030
| 25> C          1.19590        0.79430        0.10240
| 26> C          2.51470        1.30920        0.05800
| 27> C          3.29980        0.34520       -0.53110
| 28> C          2.45810       -0.73450       -0.83550
| 29> N          1.21500       -0.46570       -0.45960
| 30> H         -2.76280       -2.01260       -0.31430
| 31> H         -4.34690       -0.15340        0.84190
| 32> H         -2.74500        1.92360        1.42590
| 33> H          0.03880        2.33360        1.02470
| 34> H          2.81590        2.27180        0.42210
| 35> H          4.35250        0.39110       -0.72820
| 36> H          2.70190       -1.67060       -1.30040
| 37> *
| 38> 
| 39> 
| 40> $new_job
| 41> ! b3lyp aug-cc-PVTZ RIJCOSX SP
| 42> %maxcore 4000
| 43> %basis
| 44>  AuxJ "aug-cc-PVTZ/JK"
| 45>  AuxC "aug-cc-PVTZ/C"
| 46>  newGTO H "cc-PVTZ" end
| 47>  newAuxJGTO H "cc-PVTZ/JK" end
| 48>  newAuxCGTO H "cc-PVTZ/C" end
| 49> end
| 50> %cpcm
| 51>  SMD true
| 52>  SMDsolvent "cyclohexane"
| 53> end
| 54> %pal nprocs 4 end
| 55> %tddft
| 56>  nroots 10
| 57>  maxdim 7
| 58> end
| 59> * xyzfile 0 1
| 60> 
| 61>                          ****END OF INPUT****
================================================================================


                 $$$$$$$$$$$$$$$$$$$$$$$$$$$$$$$$$$$$$$$$$$$$$$ 
                 $ THERE ARE  2 JOBS TO BE PROCESSED THIS RUN $
                 $$$$$$$$$$$$$$$$$$$$$$$$$$$$$$$$$$$$$$$$$$$$$$ 




                 $$$$$$$$$$$$$$$$  JOB NUMBER  1 $$$$$$$$$$$$$$


                       *****************************
                       * Geometry Optimization Run *
                       *****************************

Geometry optimization settings:
Update method            Update   .... BFGS
Choice of coordinates    CoordSys .... Z-matrix Internals
Initial Hessian          InHess   .... Almoef's Model

Convergence Tolerances:
Energy Change            TolE     ....  5.0000e-06 Eh
Max. Gradient            TolMAXG  ....  3.0000e-04 Eh/bohr
RMS Gradient             TolRMSG  ....  1.0000e-04 Eh/bohr
Max. Displacement        TolMAXD  ....  4.0000e-03 bohr
RMS Displacement         TolRMSD  ....  2.0000e-03 bohr
Strict Convergence                ....  False
------------------------------------------------------------------------------
                        ORCA OPTIMIZATION COORDINATE SETUP
------------------------------------------------------------------------------

The optimization will be done in new redundant internal coordinates
Making redundant internal coordinates   ...  (new redundants) done
Evaluating the initial hessian          ...  (Almloef) done
Evaluating the coordinates              ...  done
Calculating the B-matrix                .... done
Calculating the G-matrix                .... done
Diagonalizing the G-matrix              .... done
The first mode is                       ....   65
The number of degrees of freedom        ....   57

    -----------------------------------------------------------------
                    Redundant Internal Coordinates


    -----------------------------------------------------------------
         Definition                    Initial Value    Approx d2E/dq
    -----------------------------------------------------------------
      1. B(B   1,F   0)                  1.3765         0.632800   
      2. B(F   2,B   1)                  1.3762         0.633478   
      3. B(N   3,B   1)                  1.5502         0.359832   
      4. B(C   4,N   3)                  1.3263         0.707222   
      5. B(C   5,C   4)                  1.4025         0.596819   
      6. B(C   6,C   5)                  1.3757         0.658399   
      7. B(C   7,N   3)                  1.3798         0.581057   
      8. B(C   7,C   6)                  1.4165         0.566900   
      9. B(C   8,C   7)                  1.3853         0.635687   
     10. B(C   9,C   8)                  1.3853         0.635738   
     11. B(C  10,C   9)                  1.4164         0.566946   
     12. B(C  11,C  10)                  1.3758         0.658350   
     13. B(C  12,C  11)                  1.4025         0.596861   
     14. B(N  13,C   9)                  1.3798         0.580994   
     15. B(N  13,B   1)                  1.5503         0.359742   
     16. B(N  13,C  12)                  1.3262         0.707354   
     17. B(H  14,C   4)                  1.0733         0.382899   
     18. B(H  15,C   5)                  1.0719         0.384808   
     19. B(H  16,C   6)                  1.0723         0.384242   
     20. B(H  17,C   8)                  1.0797         0.374012   
     21. B(H  18,C  10)                  1.0723         0.384252   
     22. B(H  19,C  11)                  1.0720         0.384751   
     23. B(H  20,C  12)                  1.0732         0.382962   
     24. A(F   2,B   1,N   3)          109.8909         0.395568   
     25. A(F   0,B   1,N   3)          109.8498         0.395494   
     26. A(F   0,B   1,F   2)          110.2941         0.435456   
     27. A(F   2,B   1,N  13)          109.8919         0.395551   
     28. A(N   3,B   1,N  13)          107.0078         0.360191   
     29. A(F   0,B   1,N  13)          109.8489         0.395476   
     30. A(B   1,N   3,C   7)          124.7990         0.387976   
     31. A(B   1,N   3,C   4)          126.9391         0.401573   
     32. A(C   4,N   3,C   7)          108.2617         0.433578   
     33. A(N   3,C   4,H  14)          120.8239         0.362425   
     34. A(N   3,C   4,C   5)          110.1892         0.438548   
     35. A(C   5,C   4,H  14)          128.9870         0.354303   
     36. A(C   6,C   5,H  15)          127.5282         0.360572   
     37. A(C   4,C   5,H  15)          125.6258         0.354602   
     38. A(C   4,C   5,C   6)          106.8460         0.435787   
     39. A(C   5,C   6,H  16)          127.8845         0.360481   
     40. A(C   5,C   6,C   7)          106.8613         0.431774   
     41. A(C   7,C   6,H  16)          125.2542         0.351441   
     42. A(C   6,C   7,C   8)          130.9321         0.429061   
     43. A(N   3,C   7,C   8)          121.2260         0.428151   
     44. A(N   3,C   7,C   6)          107.8418         0.419473   
     45. A(C   7,C   8,C   9)          120.9437         0.437998   
     46. A(C   9,C   8,H  17)          119.5280         0.356697   
     47. A(C   7,C   8,H  17)          119.5282         0.356693   
     48. A(C   8,C   9,C  10)          130.9380         0.429074   
     49. A(C  10,C   9,N  13)          107.8364         0.419471   
     50. A(C   8,C   9,N  13)          121.2255         0.428149   
     51. A(C   9,C  10,C  11)          106.8598         0.431774   
     52. A(C  11,C  10,H  18)          127.8867         0.360478   
     53. A(C   9,C  10,H  18)          125.2534         0.351447   
     54. A(C  12,C  11,H  19)          125.6215         0.354597   
     55. A(C  10,C  11,H  19)          127.5269         0.360558   
     56. A(C  10,C  11,C  12)          106.8517         0.435787   
     57. A(C  11,C  12,N  13)          110.1813         0.438568   
     58. A(N  13,C  12,H  20)          120.8295         0.362447   
     59. A(C  11,C  12,H  20)          128.9892         0.354317   
     60. A(C   9,N  13,C  12)          108.2708         0.433584   
     61. A(B   1,N  13,C  12)          126.9323         0.401568   
     62. A(B   1,N  13,C   9)          124.7968         0.387952   
     63. D(C   7,N   3,B   1,N  13)      0.3569         0.009321   
     64. D(C   7,N   3,B   1,F   0)   -118.8473         0.009321   
     65. D(C   4,N   3,B   1,F   0)     60.9941         0.009321   
     66. D(C   7,N   3,B   1,F   2)    119.6352         0.009321   
     67. D(C   4,N   3,B   1,F   2)    -60.5233         0.009321   
     68. D(C   4,N   3,B   1,N  13)   -179.8017         0.009321   
     69. D(H  14,C   4,N   3,C   7)    179.9976         0.041476   
     70. D(C   5,C   4,N   3,B   1)   -179.8669         0.041476   
     71. D(H  14,C   4,N   3,B   1)      0.1347         0.041476   
     72. D(C   5,C   4,N   3,C   7)     -0.0040         0.041476   
     73. D(C   6,C   5,C   4,H  14)   -179.9981         0.024541   
     74. D(H  15,C   5,C   4,H  14)      0.0110         0.024541   
     75. D(C   6,C   5,C   4,N   3)      0.0037         0.024541   
     76. D(H  15,C   5,C   4,N   3)   -179.9872         0.024541   
     77. D(C   7,C   6,C   5,C   4)     -0.0018         0.030238   
     78. D(H  16,C   6,C   5,H  15)      0.0031         0.030238   
     79. D(H  16,C   6,C   5,C   4)   -179.9875         0.030238   
     80. D(C   7,C   6,C   5,H  15)    179.9888         0.030238   
     81. D(C   8,C   7,C   6,H  16)      0.0554         0.022035   
     82. D(C   8,C   7,C   6,C   5)   -179.9308         0.022035   
     83. D(N   3,C   7,C   6,H  16)    179.9857         0.022035   
     84. D(N   3,C   7,C   6,C   5)     -0.0005         0.022035   
     85. D(C   8,C   7,N   3,C   4)    179.9412         0.027086   
     86. D(C   8,C   7,N   3,B   1)     -0.1923         0.027086   
     87. D(C   6,C   7,N   3,C   4)      0.0028         0.027086   
     88. D(C   6,C   7,N   3,B   1)    179.8693         0.027086   
     89. D(H  17,C   8,C   7,C   6)     -0.0707         0.028051   
     90. D(C   9,C   8,C   7,C   6)    179.8818         0.028051   
     91. D(C   9,C   8,C   7,N   3)     -0.0406         0.028051   
     92. D(H  17,C   8,C   7,N   3)   -179.9931         0.028051   
     93. D(C  10,C   9,C   8,C   7)   -179.8824         0.028056   
     94. D(N  13,C   9,C   8,H  17)    179.9930         0.028056   
     95. D(N  13,C   9,C   8,C   7)      0.0404         0.028056   
     96. D(C  10,C   9,C   8,H  17)      0.0701         0.028056   
     97. D(H  18,C  10,C   9,N  13)    179.9993         0.022039   
     98. D(H  18,C  10,C   9,C   8)     -0.0700         0.022039   
     99. D(C  11,C  10,C   9,N  13)     -0.0019         0.022039   
    100. D(C  11,C  10,C   9,C   8)    179.9288         0.022039   
    101. D(H  19,C  11,C  10,H  18)      0.0007         0.030233   
    102. D(H  19,C  11,C  10,C   9)   -179.9980         0.030233   
    103. D(C  12,C  11,C  10,H  18)   -179.9969         0.030233   
    104. D(C  12,C  11,C  10,C   9)      0.0044         0.030233   
    105. D(H  20,C  12,C  11,H  19)      0.0061         0.024545   
    106. D(H  20,C  12,C  11,C  10)   -179.9963         0.024545   
    107. D(N  13,C  12,C  11,H  19)    179.9968         0.024545   
    108. D(N  13,C  12,C  11,C  10)     -0.0056         0.024545   
    109. D(C   9,N  13,C  12,H  20)    179.9960         0.041493   
    110. D(B   1,N  13,C  12,H  20)     -0.1405         0.041493   
    111. D(B   1,N  13,C  12,C  11)    179.8679         0.041493   
    112. D(C  12,N  13,C   9,C  10)     -0.0016         0.027080   
    113. D(C  12,N  13,C   9,C   8)   -179.9403         0.027080   
    114. D(B   1,N  13,C   9,C  10)   -179.8687         0.027080   
    115. D(B   1,N  13,C   9,C   8)      0.1926         0.027080   
    116. D(C  12,N  13,B   1,N   3)    179.8008         0.009317   
    117. D(C  12,N  13,B   1,F   2)     60.5231         0.009317   
    118. D(C  12,N  13,B   1,F   0)    -60.9944         0.009317   
    119. D(C   9,N  13,B   1,N   3)     -0.3570         0.009317   
    120. D(C   9,N  13,C  12,C  11)      0.0044         0.041493   
    121. D(C   9,N  13,B   1,F   2)   -119.6347         0.009317   
    122. D(C   9,N  13,B   1,F   0)    118.8477         0.009317   
    -----------------------------------------------------------------

Number of atoms                         .... 21
Number of degrees of freedom            .... 122

         *************************************************************
         *                GEOMETRY OPTIMIZATION CYCLE   1            *
         *************************************************************
---------------------------------
CARTESIAN COORDINATES (ANGSTROEM)
---------------------------------
  F     -0.248100   -1.647400   -1.946300
  B     -0.024100   -1.384500   -0.613800
  F      0.174100   -2.557900    0.077500
  N     -1.233200   -0.619000   -0.017800
  C     -2.487300   -1.044000    0.057000
  C     -3.294200   -0.067500    0.658900
  C     -2.475600    0.996800    0.958600
  C     -1.172000    0.646000    0.529700
  C      0.022300    1.345300    0.590300
  C      1.195900    0.794300    0.102400
  C      2.514700    1.309200    0.058000
  C      3.299800    0.345200   -0.531100
  C      2.458100   -0.734500   -0.835500
  N      1.215000   -0.465700   -0.459600
  H     -2.762800   -2.012600   -0.314300
  H     -4.346900   -0.153400    0.841900
  H     -2.745000    1.923600    1.425900
  H      0.038800    2.333600    1.024700
  H      2.815900    2.271800    0.422100
  H      4.352500    0.391100   -0.728200
  H      2.701900   -1.670600   -1.300400

----------------------------
CARTESIAN COORDINATES (A.U.)
----------------------------
  NO LB      ZA    FRAG     MASS         X           Y           Z
   0 F     9.0000    0    18.998   -0.468841   -3.113135   -3.677974
   1 B     5.0000    0    10.810   -0.045542   -2.616326   -1.159914
   2 F     9.0000    0    18.998    0.329001   -4.833730    0.146454
   3 N     7.0000    0    14.007   -2.330410   -1.169740   -0.033637
   4 C     6.0000    0    12.011   -4.700316   -1.972874    0.107714
   5 C     6.0000    0    12.011   -6.225136   -0.127557    1.245141
   6 C     6.0000    0    12.011   -4.678206    1.883679    1.811491
   7 C     6.0000    0    12.011   -2.214759    1.220763    1.000988
   8 C     6.0000    0    12.011    0.042141    2.542249    1.115505
   9 C     6.0000    0    12.011    2.259923    1.501009    0.193508
  10 C     6.0000    0    12.011    4.752094    2.474029    0.109604
  11 C     6.0000    0    12.011    6.235718    0.652333   -1.003634
  12 C     6.0000    0    12.011    4.645136   -1.388004   -1.578866
  13 N     7.0000    0    14.007    2.296017   -0.880045   -0.868518
  14 H     1.0000    0     1.008   -5.220935   -3.803263   -0.593941
  15 H     1.0000    0     1.008   -8.214451   -0.289884    1.590960
  16 H     1.0000    0     1.008   -5.187298    3.635077    2.694560
  17 H     1.0000    0     1.008    0.073321    4.409865    1.936402
  18 H     1.0000    0     1.008    5.321280    4.293080    0.797653
  19 H     1.0000    0     1.008    8.225033    0.739072   -1.376099
  20 H     1.0000    0     1.008    5.105851   -3.156976   -2.457400

--------------------------------
INTERNAL COORDINATES (ANGSTROEM)
--------------------------------
 F      0   0   0     0.000000000000     0.00000000     0.00000000
 B      1   0   0     1.376535019533     0.00000000     0.00000000
 F      2   1   0     1.376243615789   110.29406026     0.00000000
 N      2   1   3     1.550202909299   109.84982791   238.72415697
 C      4   2   1     1.326268015900   126.93907207    60.99412890
 C      5   4   2     1.402470488103   110.18918188   180.13309584
 C      6   5   4     1.375739997238   106.84597807     0.00000000
 C      4   2   1     1.379756025535   124.79903113   241.15269220
 C      8   4   2     1.385296119969   121.22602553   359.80772735
 C      9   8   4     1.385274113668   120.94371842   359.95940427
 C     10   9   8     1.416448661265   130.93802407   180.11762634
 C     11  10   9     1.375760451532   106.85983150   179.92876810
 C     12  11  10     1.402451546400   106.85166754     0.00000000
 N     13  12  11     1.326217124003   110.18131615     0.00000000
 H      5   4   2     1.073289289987   120.82385624     0.13474243
 H      6   5   4     1.071935212594   125.62583297   180.01280747
 H      7   6   5     1.072335717021   127.88448848   180.01249287
 H      9   8   4     1.079681666048   119.52822943   180.00689439
 H     11  10   9     1.072328778873   125.25342759   359.93001313
 H     12  11  10     1.071975983873   127.52685411   180.00199395
 H     13  12  11     1.073244454912   128.98922445   180.00373003

---------------------------
INTERNAL COORDINATES (A.U.)
---------------------------
 F      0   0   0     0.000000000000     0.00000000     0.00000000
 B      1   0   0     2.601274200669     0.00000000     0.00000000
 F      2   1   0     2.600723527399   110.29406026     0.00000000
 N      2   1   3     2.929458950584   109.84982791   238.72415697
 C      4   2   1     2.506283330231   126.93907207    60.99412890
 C      5   4   2     2.650285133422   110.18918188   180.13309584
 C      6   5   4     2.599771826261   106.84597807     0.00000000
 C      4   2   1     2.607361019889   124.79903113   241.15269220
 C      8   4   2     2.617830281124   121.22602553   359.80772735
 C      9   8   4     2.617788695244   120.94371842   359.95940427
 C     10   9   8     2.676700052551   130.93802407   180.11762634
 C     11  10   9     2.599810479276   106.85983150   179.92876810
 C     12  11  10     2.650249338791   106.85166754     0.00000000
 N     13  12  11     2.506187158483   110.18131615     0.00000000
 H      5   4   2     2.028222820546   120.82385624     0.13474243
 H      6   5   4     2.025663985110   125.62583297   180.01280747
 H      7   6   5     2.026420828793   127.88448848   180.01249287
 H      9   8   4     2.040302660646   119.52822943   180.00689439
 H     11  10   9     2.026407717593   125.25342759   359.93001313
 H     12  11  10     2.025741031660   127.52685411   180.00199395
 H     13  12  11     2.028138094534   128.98922445   180.00373003

---------------------
BASIS SET INFORMATION
---------------------
There are 5 groups of distinct atoms

 Group   1 Type F   : 19s6p3d2f contracted to 5s4p3d2f pattern {88111/3111/111/11}
 Group   2 Type B   : 19s6p3d2f contracted to 5s4p3d2f pattern {88111/3111/111/11}
 Group   3 Type N   : 19s6p3d2f contracted to 5s4p3d2f pattern {88111/3111/111/11}
 Group   4 Type C   : 19s6p3d2f contracted to 5s4p3d2f pattern {88111/3111/111/11}
 Group   5 Type H   : 5s2p1d contracted to 3s2p1d pattern {311/11/1}

Atom   0F    basis set group =>   1
Atom   1B    basis set group =>   2
Atom   2F    basis set group =>   1
Atom   3N    basis set group =>   3
Atom   4C    basis set group =>   4
Atom   5C    basis set group =>   4
Atom   6C    basis set group =>   4
Atom   7C    basis set group =>   4
Atom   8C    basis set group =>   4
Atom   9C    basis set group =>   4
Atom  10C    basis set group =>   4
Atom  11C    basis set group =>   4
Atom  12C    basis set group =>   4
Atom  13N    basis set group =>   3
Atom  14H    basis set group =>   5
Atom  15H    basis set group =>   5
Atom  16H    basis set group =>   5
Atom  17H    basis set group =>   5
Atom  18H    basis set group =>   5
Atom  19H    basis set group =>   5
Atom  20H    basis set group =>   5
---------------------------------
AUXILIARY/J BASIS SET INFORMATION
---------------------------------
There are 5 groups of distinct atoms

 Group   1 Type F   : 10s7p5d2f1g contracted to 10s7p5d2f1g pattern {1111111111/1111111/11111/11/1}
 Group   2 Type B   : 10s7p5d2f1g contracted to 10s7p5d2f1g pattern {1111111111/1111111/11111/11/1}
 Group   3 Type N   : 10s7p5d2f1g contracted to 10s7p5d2f1g pattern {1111111111/1111111/11111/11/1}
 Group   4 Type C   : 10s7p5d2f1g contracted to 10s7p5d2f1g pattern {1111111111/1111111/11111/11/1}
 Group   5 Type H   : 4s3p2d1f contracted to 4s3p2d1f pattern {1111/111/11/1}

Atom   0F    basis set group =>   1
Atom   1B    basis set group =>   2
Atom   2F    basis set group =>   1
Atom   3N    basis set group =>   3
Atom   4C    basis set group =>   4
Atom   5C    basis set group =>   4
Atom   6C    basis set group =>   4
Atom   7C    basis set group =>   4
Atom   8C    basis set group =>   4
Atom   9C    basis set group =>   4
Atom  10C    basis set group =>   4
Atom  11C    basis set group =>   4
Atom  12C    basis set group =>   4
Atom  13N    basis set group =>   3
Atom  14H    basis set group =>   5
Atom  15H    basis set group =>   5
Atom  16H    basis set group =>   5
Atom  17H    basis set group =>   5
Atom  18H    basis set group =>   5
Atom  19H    basis set group =>   5
Atom  20H    basis set group =>   5
---------------------------------
AUXILIARY/C BASIS SET INFORMATION
---------------------------------
There are 5 groups of distinct atoms

 Group   1 Type F   : 9s7p6d4f2g contracted to 9s7p6d4f2g pattern {111111111/1111111/111111/1111/11}
 Group   2 Type B   : 9s7p6d4f2g contracted to 9s7p6d4f2g pattern {111111111/1111111/111111/1111/11}
 Group   3 Type N   : 9s7p6d4f2g contracted to 9s7p6d4f2g pattern {111111111/1111111/111111/1111/11}
 Group   4 Type C   : 9s7p6d4f2g contracted to 9s7p6d4f2g pattern {111111111/1111111/111111/1111/11}
 Group   5 Type H   : 4s3p2d1f contracted to 4s3p2d1f pattern {1111/111/11/1}

Atom   0F    basis set group =>   1
Atom   1B    basis set group =>   2
Atom   2F    basis set group =>   1
Atom   3N    basis set group =>   3
Atom   4C    basis set group =>   4
Atom   5C    basis set group =>   4
Atom   6C    basis set group =>   4
Atom   7C    basis set group =>   4
Atom   8C    basis set group =>   4
Atom   9C    basis set group =>   4
Atom  10C    basis set group =>   4
Atom  11C    basis set group =>   4
Atom  12C    basis set group =>   4
Atom  13N    basis set group =>   3
Atom  14H    basis set group =>   5
Atom  15H    basis set group =>   5
Atom  16H    basis set group =>   5
Atom  17H    basis set group =>   5
Atom  18H    basis set group =>   5
Atom  19H    basis set group =>   5
Atom  20H    basis set group =>   5


           ************************************************************
           *        Program running with 4 parallel MPI-processes     *
           *              working on a common directory               *
           ************************************************************
------------------------------------------------------------------------------
                           ORCA GTO INTEGRAL CALCULATION
                           -- RI-GTO INTEGRALS CHOSEN --
------------------------------------------------------------------------------
------------------------------------------------------------------------------
                   ___                                                        
                  /   \      - P O W E R E D   B Y -                         
                 /     \                                                     
                 |  |  |   _    _      __       _____    __    __             
                 |  |  |  | |  | |    /  \     |  _  \  |  |  /  |          
                  \  \/   | |  | |   /    \    | | | |  |  | /  /          
                 / \  \   | |__| |  /  /\  \   | |_| |  |  |/  /          
                |  |  |   |  __  | /  /__\  \  |    /   |      \           
                |  |  |   | |  | | |   __   |  |    \   |  |\   \          
                \     /   | |  | | |  |  |  |  | |\  \  |  | \   \       
                 \___/    |_|  |_| |__|  |__|  |_| \__\ |__|  \__/        
                                                                              
                      - O R C A' S   B I G   F R I E N D -                    
                                      &                                       
                       - I N T E G R A L  F E E D E R -                       
                                                                              
 v1 FN, 2020, v2 2021                                                         
------------------------------------------------------------------------------


Reading SHARK input file b3lyp-train-1.SHARKINP.tmp ... ok
----------------------
SHARK INTEGRAL PACKAGE
----------------------

Number of atoms                             ...     21
Number of basis functions                   ...    826
Number of shells                            ...    322
Maximum angular momentum                    ...      3
Integral batch strategy                     ... SHARK/LIBINT Hybrid
RI-J (if used) integral strategy            ... SPLIT-RIJ (Revised 2003 algorithm where possible)
Printlevel                                  ...      1
Contraction scheme used                     ... PARTIAL GENERAL contraction
Coulomb Range Separation                    ... NOT USED
Exchange Range Separation                   ... NOT USED
Finite Nucleus Model                        ... NOT USED
Auxiliary Coulomb fitting basis             ... AVAILABLE
   # of basis functions in Aux-J            ...   1316
   # of shells in Aux-J                     ...    420
   Maximum angular momentum in Aux-J        ...      4
Auxiliary J/K fitting basis                 ... NOT available
Auxiliary Correlation fitting basis         ... AVAILABLE
   # of basis functions in Aux-C            ...   1694
   # of shells in Aux-C                     ...    462
   Maximum angular momentum in Aux-C        ...      4
Auxiliary 'external' fitting basis          ... NOT available
Integral threshold                          ...     2.500000e-11
Primitive cut-off                           ...     2.500000e-12
Primitive pair pre-selection threshold      ...     2.500000e-12

Calculating pre-screening integrals         ... done (  0.1 sec) Dimension = 322
Calculating pre-screening integrals (ORCA)  ... done (  0.3 sec) Dimension = 238
Organizing shell pair data                  ... done (  1.5 sec)
Shell pair information
Total number of shell pairs                 ...     52003
Shell pairs after pre-screening             ...     39352
Total number of primitive shell pairs       ...     66493
Primitive shell pairs kept                  ...     46476
          la=0 lb=0:   8957 shell pairs
          la=1 lb=0:   9791 shell pairs
          la=1 lb=1:   2253 shell pairs
          la=2 lb=0:   6709 shell pairs
          la=2 lb=1:   3092 shell pairs
          la=2 lb=2:   1100 shell pairs
          la=3 lb=0:   3972 shell pairs
          la=3 lb=1:   1814 shell pairs
          la=3 lb=2:   1273 shell pairs
          la=3 lb=3:    391 shell pairs

Calculating one electron integrals          ... done (  0.1 sec)
Calculating RI/J V-Matrix + Cholesky decomp.... done (  0.1 sec)
Calculating RI/C V-Matrix + Cholesky decomp.... done (  0.2 sec)
Calculating Nuclear repulsion               ... done (  0.0 sec) ENN=    866.723037408548 Eh

SHARK setup successfully completed in   3.1 seconds

Maximum memory used throughout the entire GTOINT-calculation: 59.3 MB


           ************************************************************
           *        Program running with 4 parallel MPI-processes     *
           *              working on a common directory               *
           ************************************************************
-------------------------------------------------------------------------------
                                 ORCA SCF
-------------------------------------------------------------------------------

------------
SCF SETTINGS
------------
Hamiltonian:
 Density Functional     Method          .... DFT(GTOs)
 Exchange Functional    Exchange        .... B88
   X-Alpha parameter    XAlpha          ....  0.666667
   Becke's b parameter  XBeta           ....  0.004200
 Correlation Functional Correlation     .... LYP
 LDA part of GGA corr.  LDAOpt          .... VWN-5
 Gradients option       PostSCFGGA      .... off
 Hybrid DFT is turned on
   Fraction HF Exchange ScalHFX         ....  0.200000
   Scaling of DF-GGA-X  ScalDFX         ....  0.720000
   Scaling of DF-GGA-C  ScalDFC         ....  0.810000
   Scaling of DF-LDA-C  ScalLDAC        ....  1.000000
   Perturbative correction              ....  0.000000
   Density functional embedding theory  .... OFF
   NL short-range parameter             ....  4.800000
 RI-approximation to the Coulomb term is turned on
   Number of AuxJ basis functions       .... 1316
   RIJ-COSX (HFX calculated with COS-X)).... on


General Settings:
 Integral files         IntName         .... b3lyp-train-1
 Hartree-Fock type      HFTyp           .... RHF
 Total Charge           Charge          ....    0
 Multiplicity           Mult            ....    1
 Number of Electrons    NEL             ....   98
 Basis Dimension        Dim             ....  742
 Nuclear Repulsion      ENuc            ....    866.7230374085 Eh

Convergence Acceleration:
 DIIS                   CNVDIIS         .... on
   Start iteration      DIISMaxIt       ....    12
   Startup error        DIISStart       ....  0.200000
   # of expansion vecs  DIISMaxEq       ....     5
   Bias factor          DIISBfac        ....   1.050
   Max. coefficient     DIISMaxC        ....  10.000
 Trust-Rad. Augm. Hess. CNVTRAH         .... auto
   Auto Start mean grad. ratio tolernc. ....  1.125000
   Auto Start start iteration           ....    20
   Auto Start num. interpolation iter.  ....    10
   Max. Number of Micro iterations      ....    16
   Max. Number of Macro iterations      .... Maxiter - #DIIS iter
   Number of Davidson start vectors     ....     2
   Converg. threshold I  (grad. norm)   ....   1.000e-05
   Converg. threshold II (energy diff.) ....   1.000e-08
   Grad. Scal. Fac. for Micro threshold ....   0.100
   Minimum threshold for Micro iter.    ....   0.010
   NR start threshold (gradient norm)   ....   0.001
   Initial trust radius                 ....   0.400
   Minimum AH scaling param. (alpha)    ....   1.000
   Maximum AH scaling param. (alpha)    .... 1000.000
   Orbital update algorithm             .... Taylor
   White noise on init. David. guess    .... on
   Maximum white noise                  ....   0.010
   Quad. conv. algorithm                .... NR
 SOSCF                  CNVSOSCF        .... on
   Start iteration      SOSCFMaxIt      ....   150
   Startup grad/error   SOSCFStart      ....  0.003300
 Level Shifting         CNVShift        .... on
   Level shift para.    LevelShift      ....    0.2500
   Turn off err/grad.   ShiftErr        ....    0.0010
 Zerner damping         CNVZerner       .... off
 Static damping         CNVDamp         .... on
   Fraction old density DampFac         ....    0.7000
   Max. Damping (<1)    DampMax         ....    0.9800
   Min. Damping (>=0)   DampMin         ....    0.0000
   Turn off err/grad.   DampErr         ....    0.1000
 Fernandez-Rico         CNVRico         .... off

SCF Procedure:
 Maximum # iterations   MaxIter         ....   125
 SCF integral mode      SCFMode         .... Direct
   Integral package                     .... SHARK and LIBINT hybrid scheme
 Reset frequency        DirectResetFreq ....    20
 Integral Threshold     Thresh          ....  2.500e-11 Eh
 Primitive CutOff       TCut            ....  2.500e-12 Eh

Convergence Tolerance:
 Convergence Check Mode ConvCheckMode   .... Total+1el-Energy
 Convergence forced     ConvForced      .... 0
 Energy Change          TolE            ....  1.000e-08 Eh
 1-El. energy change                    ....  1.000e-05 Eh
 Orbital Gradient       TolG            ....  1.000e-05
 Orbital Rotation angle TolX            ....  1.000e-05
 DIIS Error             TolErr          ....  5.000e-07


Diagonalization of the overlap matrix:
Smallest eigenvalue                        ... 1.822e-06
Time for diagonalization                   ...    0.154 sec
Threshold for overlap eigenvalues          ... 1.000e-08
Number of eigenvalues below threshold      ... 0
Time for construction of square roots      ...    0.088 sec
Total time needed                          ...    0.245 sec

Time for model grid setup =    0.352 sec

------------------------------
INITIAL GUESS: MODEL POTENTIAL
------------------------------
Loading Hartree-Fock densities                     ... done
Calculating cut-offs                               ... done
Initializing the effective Hamiltonian             ... done
Setting up the integral package (SHARK)            ... done
Starting the Coulomb interaction                   ... done (   1.0 sec)
Reading the grid                                   ... done
Mapping shells                                     ... done
Starting the XC term evaluation                    ... done (   1.2 sec)
  promolecular density results
     # of electrons  =     97.997283186
     EX              =    -85.580274189
     EC              =     -3.414141146
     EX+EC           =    -88.994415335
Transforming the Hamiltonian                       ... done (   0.1 sec)
Diagonalizing the Hamiltonian                      ... done (   0.2 sec)
Back transforming the eigenvectors                 ... done (   0.0 sec)
Now organizing SCF variables                       ... done
                      ------------------
                      INITIAL GUESS DONE (   3.0 sec)
                      ------------------
-------------------
DFT GRID GENERATION
-------------------

General Integration Accuracy     IntAcc      ... 4.388
Radial Grid Type                 RadialGrid  ... OptM3 with GC (2021)
Angular Grid (max. ang.)         AngularGrid ... 4 (Lebedev-302)
Angular grid pruning method      GridPruning ... 4 (adaptive)
Weight generation scheme         WeightScheme... Becke
Basis function cutoff            BFCut       ... 1.0000e-11
Integration weight cutoff        WCut        ... 1.0000e-14
Angular grids for H and He will be reduced by one unit
Partially contracted basis set               ... off
Rotationally invariant grid construction     ... off

Total number of grid points                  ...   110048
Total number of batches                      ...     1728
Average number of points per batch           ...       63
Average number of grid points per atom       ...     5240
Time for grid setup =    1.241 sec

--------------------
COSX GRID GENERATION
--------------------

GRIDX 1
-------
General Integration Accuracy     IntAcc      ... 3.816
Radial Grid Type                 RadialGrid  ... OptM3 with GC (2021)
Angular Grid (max. ang.)         AngularGrid ... 1 (Lebedev-50)
Angular grid pruning method      GridPruning ... 4 (adaptive)
Weight generation scheme         WeightScheme... Becke
Basis function cutoff            BFCut       ... 1.0000e-11
Integration weight cutoff        WCut        ... 1.0000e-14
Angular grids for H and He will be reduced by one unit
Partially contracted basis set               ... on
Rotationally invariant grid construction     ... off

Total number of grid points                  ...    13989
Total number of batches                      ...      231
Average number of points per batch           ...       60
Average number of grid points per atom       ...      666
UseSFitting                                  ... on

GRIDX 2
-------
General Integration Accuracy     IntAcc      ... 4.020
Radial Grid Type                 RadialGrid  ... OptM3 with GC (2021)
Angular Grid (max. ang.)         AngularGrid ... 2 (Lebedev-110)
Angular grid pruning method      GridPruning ... 4 (adaptive)
Weight generation scheme         WeightScheme... Becke
Basis function cutoff            BFCut       ... 1.0000e-11
Integration weight cutoff        WCut        ... 1.0000e-14
Angular grids for H and He will be reduced by one unit
Partially contracted basis set               ... on
Rotationally invariant grid construction     ... off

Total number of grid points                  ...    34307
Total number of batches                      ...      545
Average number of points per batch           ...       62
Average number of grid points per atom       ...     1634
UseSFitting                                  ... on

GRIDX 3
-------
General Integration Accuracy     IntAcc      ... 4.338
Radial Grid Type                 RadialGrid  ... OptM3 with GC (2021)
Angular Grid (max. ang.)         AngularGrid ... 3 (Lebedev-194)
Angular grid pruning method      GridPruning ... 4 (adaptive)
Weight generation scheme         WeightScheme... Becke
Basis function cutoff            BFCut       ... 1.0000e-11
Integration weight cutoff        WCut        ... 1.0000e-14
Angular grids for H and He will be reduced by one unit
Partially contracted basis set               ... on
Rotationally invariant grid construction     ... off

Total number of grid points                  ...    74089
Total number of batches                      ...     1168
Average number of points per batch           ...       63
Average number of grid points per atom       ...     3528
UseSFitting                                  ... on

Time for X-Grid setup             =    3.239 sec


--------------------
CPCM SOLVATION MODEL
--------------------
CPCM parameters:
  Epsilon                                         ...       2.0165
  Refrac                                          ...       1.4266
  Rsolv                                           ...       1.3000
  Surface type                                    ... GAUSSIAN VDW
  Epsilon function type                           ...         CPCM
Solvent:                                     ... CYCLOHEXANE
SMD-CDS solvent descriptors:
  Soln                                       ...    1.4266
  Soln25                                     ...    1.4235
  Sola                                       ...    0.0000
  Solb                                       ...    0.0000
  Solg                                       ...   35.4800
  Solc                                       ...    0.0000
  Solh                                       ...    0.0000
Radii:
 Radius for F  used is    3.2692 Bohr (=   1.7300 Ang.)
 Radius for B  used is    3.6283 Bohr (=   1.9200 Ang.)
 Radius for N  used is    3.5716 Bohr (=   1.8900 Ang.)
 Radius for C  used is    3.4960 Bohr (=   1.8500 Ang.)
 Radius for H  used is    2.2677 Bohr (=   1.2000 Ang.)
Calculating surface                               ...        done! (  0.0s)
GEPOL surface points                              ...         1218
GEPOL Volume                                      ...    1223.4663
GEPOL Surface-area                                ...     700.3562
Calculating surface distance matrix               ...        done! (  0.0s)
Performing Cholesky decomposition & store         ...        done! (  0.1s)
Overall time for CPCM initialization              ...                 0.1s
 re-compute Schwartz prescreening matrix in partically contracted basis (1) ...done (   0.180 sec)
--------------
SCF ITERATIONS
--------------
ITER       Energy         Delta-E        Max-DP      RMS-DP      [F,P]     Damp
               ***  Starting incremental Fock matrix formation  ***
  0   -680.9923886827   0.000000000000 0.06380637  0.00090410  0.2280185 0.7000
  1   -681.1208181016  -0.128429418891 0.05273889  0.00063598  0.0956397 0.7000
                               ***Turning on DIIS***
  2   -681.1752873256  -0.054469224034 0.12307758  0.00117481  0.0349566 0.0000
  3   -681.2591800150  -0.083892689443 0.03011475  0.00036778  0.0486329 0.0000
  4   -681.2771796137  -0.017999598641 0.01549964  0.00011525  0.0099564 0.0000
  5   -681.2779264891  -0.000746875360 0.00533162  0.00003169  0.0046956 0.0000
                      *** Initiating the SOSCF procedure ***
                           *** Shutting down DIIS ***
                      *** Re-Reading the Fockian *** 
                      *** Removing any level shift *** 
ITER      Energy       Delta-E        Grad      Rot      Max-DP    RMS-DP
  6   -681.27799410  -0.0000676061  0.000231  0.000231  0.001234  0.000017
               *** Restarting incremental Fock matrix formation ***
  7   -681.27800174  -0.0000076484  0.000260  0.001286  0.004118  0.000050
  8   -681.27799820   0.0000035446  0.000551  0.000973  0.000485  0.000006
  9   -681.27800357  -0.0000053680  0.000056  0.000212  0.001065  0.000011
 10   -681.27800340   0.0000001680  0.000081  0.000116  0.000795  0.000005
 11   -681.27800364  -0.0000002442  0.000003  0.000011  0.001205  0.000011
 12   -681.27800364   0.0000000008  0.000005  0.000008  0.000939  0.000007
                  ***Gradient check signals convergence***
              ***Rediagonalizing the Fockian in SOSCF/NRSCF***

               *****************************************************
               *                     SUCCESS                       *
               *           SCF CONVERGED AFTER  13 CYCLES          *
               *****************************************************

Old exchange energy                            =    -17.321830524 Eh
New exchange energy                            =    -17.321843365 Eh
Exchange energy change after final integration =     -0.000012841 Eh
Total energy after final integration           =   -681.278016472 Eh
Final COS-X integration done in                =    61.568 sec

SMD CDS free energy correction energy :                -4.44040     Kcal/mol
Total Energy after SMD CDS correction =              -681.285092693 Eh

----------------
TOTAL SCF ENERGY
----------------

Total Energy       :         -681.28509269 Eh          -18538.70986 eV

Components:
Nuclear Repulsion  :          866.72303741 Eh           23584.73287 eV
Electronic Energy  :        -1548.00813010 Eh          -42123.44273 eV
One Electron Energy:        -2651.54732072 Eh          -72152.27075 eV
Two Electron Energy:         1103.53919062 Eh           30028.82801 eV
Max COSX asymmetry :            0.00000958 Eh               0.00026 eV
CPCM Dielectric    :           -0.00983984 Eh              -0.26776 eV
SMD CDS (Gcds)     :           -0.00707622 Eh              -0.19255 eV

Virial components:
Potential Energy   :        -1359.22724595 Eh          -36986.45372 eV
Kinetic Energy     :          677.94215326 Eh           18447.74386 eV
Virial Ratio       :            2.00493101


DFT components:
N(Alpha)           :       49.000019211123 electrons
N(Beta)            :       49.000019211123 electrons
N(Total)           :       98.000038422245 electrons
E(X)               :      -68.881800911172 Eh       
E(C)               :       -4.022570133135 Eh       
E(XC)              :      -72.904371044306 Eh       
DFET-embed. en.    :        0.000000000000 Eh       
CPCM Solvation Model Properties:
Surface-charge          :           -0.04522452
Charge-correction       :            0.00002260 Eh               0.00062 eV
Free-energy (cav+disp)  :           -0.00707622 Eh              -0.19255 eV

---------------
SCF CONVERGENCE
---------------

  Last Energy change         ...    1.0931e-08  Tolerance :   1.0000e-08
  Last MAX-Density change    ...    2.6641e-15  Tolerance :   1.0000e-07
  Last RMS-Density change    ...    1.4617e-17  Tolerance :   5.0000e-09
  Last Orbital Gradient      ...    1.5397e-06  Tolerance :   1.0000e-05
  Last Orbital Rotation      ...    2.8499e-06  Tolerance :   1.0000e-05

             **** THE GBW FILE WAS UPDATED (b3lyp-train-1.gbw) ****
             **** DENSITY b3lyp-train-1.scfp WAS UPDATED ****
             **** ENERGY FILE WAS UPDATED (b3lyp-train-1.en.tmp) ****
             **** THE GBW FILE WAS UPDATED (b3lyp-train-1.gbw) ****
             **** DENSITY b3lyp-train-1.scfp WAS UPDATED ****
----------------
ORBITAL ENERGIES
----------------

  NO   OCC          E(Eh)            E(eV) 
   0   2.0000     -24.634467      -670.3379 
   1   2.0000     -24.634342      -670.3345 
   2   2.0000     -14.353723      -390.5847 
   3   2.0000     -14.353710      -390.5843 
   4   2.0000     -10.224901      -278.2337 
   5   2.0000     -10.222638      -278.1721 
   6   2.0000     -10.222626      -278.1718 
   7   2.0000     -10.219496      -278.0866 
   8   2.0000     -10.219462      -278.0857 
   9   2.0000     -10.190241      -277.2906 
  10   2.0000     -10.190219      -277.2900 
  11   2.0000     -10.178469      -276.9702 
  12   2.0000     -10.178461      -276.9700 
  13   2.0000      -6.819023      -185.5550 
  14   2.0000      -1.177844       -32.0508 
  15   2.0000      -1.144495       -31.1433 
  16   2.0000      -1.006692       -27.3935 
  17   2.0000      -0.989899       -26.9365 
  18   2.0000      -0.824437       -22.4341 
  19   2.0000      -0.801103       -21.7991 
  20   2.0000      -0.788729       -21.4624 
  21   2.0000      -0.736525       -20.0419 
  22   2.0000      -0.675929       -18.3930 
  23   2.0000      -0.616317       -16.7708 
  24   2.0000      -0.600864       -16.3504 
  25   2.0000      -0.588420       -16.0117 
  26   2.0000      -0.584433       -15.9032 
  27   2.0000      -0.550985       -14.9931 
  28   2.0000      -0.514734       -14.0066 
  29   2.0000      -0.511203       -13.9105 
  30   2.0000      -0.490626       -13.3506 
  31   2.0000      -0.467544       -12.7225 
  32   2.0000      -0.457892       -12.4599 
  33   2.0000      -0.444255       -12.0888 
  34   2.0000      -0.438506       -11.9323 
  35   2.0000      -0.437725       -11.9111 
  36   2.0000      -0.432351       -11.7649 
  37   2.0000      -0.411768       -11.2048 
  38   2.0000      -0.407715       -11.0945 
  39   2.0000      -0.403525       -10.9805 
  40   2.0000      -0.392622       -10.6838 
  41   2.0000      -0.381562       -10.3828 
  42   2.0000      -0.375031       -10.2051 
  43   2.0000      -0.366408        -9.9705 
  44   2.0000      -0.349646        -9.5144 
  45   2.0000      -0.312233        -8.4963 
  46   2.0000      -0.275698        -7.5021 
  47   2.0000      -0.268354        -7.3023 
  48   2.0000      -0.224685        -6.1140 
  49   0.0000      -0.109863        -2.9895 
  50   0.0000      -0.003032        -0.0825 
  51   0.0000       0.006892         0.1875 
  52   0.0000       0.013215         0.3596 
  53   0.0000       0.015259         0.4152 
  54   0.0000       0.022724         0.6184 
  55   0.0000       0.025691         0.6991 
  56   0.0000       0.025824         0.7027 
  57   0.0000       0.029304         0.7974 
  58   0.0000       0.033404         0.9090 
  59   0.0000       0.045410         1.2357 
  60   0.0000       0.045690         1.2433 
  61   0.0000       0.048863         1.3296 
  62   0.0000       0.050312         1.3691 
  63   0.0000       0.050682         1.3791 
  64   0.0000       0.057591         1.5671 
  65   0.0000       0.073150         1.9905 
  66   0.0000       0.079104         2.1525 
  67   0.0000       0.080124         2.1803 
  68   0.0000       0.088234         2.4010 
  69   0.0000       0.091942         2.5019 
  70   0.0000       0.094177         2.5627 
  71   0.0000       0.098069         2.6686 
  72   0.0000       0.101004         2.7485 
  73   0.0000       0.101948         2.7741 
  74   0.0000       0.107521         2.9258 
  75   0.0000       0.109173         2.9708 
  76   0.0000       0.113221         3.0809 
  77   0.0000       0.119563         3.2535 
  78   0.0000       0.121141         3.2964 
  79   0.0000       0.121556         3.3077 
  80   0.0000       0.125409         3.4125 
  81   0.0000       0.130314         3.5460 
  82   0.0000       0.133721         3.6387 
  83   0.0000       0.137442         3.7400 
  84   0.0000       0.139999         3.8096 
  85   0.0000       0.143288         3.8991 
  86   0.0000       0.149283         4.0622 
  87   0.0000       0.149695         4.0734 
  88   0.0000       0.158320         4.3081 
  89   0.0000       0.159794         4.3482 
  90   0.0000       0.160147         4.3578 
  91   0.0000       0.164168         4.4672 
  92   0.0000       0.167421         4.5557 
  93   0.0000       0.179419         4.8822 
  94   0.0000       0.185916         5.0590 
  95   0.0000       0.187864         5.1120 
  96   0.0000       0.191050         5.1987 
  97   0.0000       0.191599         5.2137 
  98   0.0000       0.197341         5.3699 
  99   0.0000       0.199028         5.4158 
 100   0.0000       0.202823         5.5191 
 101   0.0000       0.204945         5.5768 
 102   0.0000       0.211000         5.7416 
 103   0.0000       0.215292         5.8584 
 104   0.0000       0.228008         6.2044 
 105   0.0000       0.231839         6.3087 
 106   0.0000       0.235328         6.4036 
 107   0.0000       0.237176         6.4539 
 108   0.0000       0.240083         6.5330 
 109   0.0000       0.248664         6.7665 
 110   0.0000       0.249687         6.7943 
 111   0.0000       0.252500         6.8709 
 112   0.0000       0.260289         7.0828 
 113   0.0000       0.265500         7.2246 
 114   0.0000       0.267736         7.2855 
 115   0.0000       0.270026         7.3478 
 116   0.0000       0.273930         7.4540 
 117   0.0000       0.276932         7.5357 
 118   0.0000       0.279347         7.6014 
 119   0.0000       0.280117         7.6224 
 120   0.0000       0.285247         7.7620 
 121   0.0000       0.288334         7.8460 
 122   0.0000       0.290913         7.9161 
 123   0.0000       0.297263         8.0889 
 124   0.0000       0.298990         8.1359 
 125   0.0000       0.310310         8.4440 
 126   0.0000       0.316653         8.6166 
 127   0.0000       0.321963         8.7611 
 128   0.0000       0.323603         8.8057 
 129   0.0000       0.323774         8.8103 
 130   0.0000       0.331008         9.0072 
 131   0.0000       0.342642         9.3238 
 132   0.0000       0.343958         9.3596 
 133   0.0000       0.345390         9.3986 
 134   0.0000       0.356203         9.6928 
 135   0.0000       0.358919         9.7667 
 136   0.0000       0.360859         9.8195 
 137   0.0000       0.364717         9.9244 
 138   0.0000       0.364973         9.9314 
 139   0.0000       0.369207        10.0466 
 140   0.0000       0.380398        10.3511 
 141   0.0000       0.384478        10.4622 
 142   0.0000       0.392808        10.6888 
 143   0.0000       0.393316        10.7027 
 144   0.0000       0.398108        10.8331 
 145   0.0000       0.398409        10.8413 
 146   0.0000       0.404539        11.0081 
 147   0.0000       0.415335        11.3018 
 148   0.0000       0.415552        11.3077 
 149   0.0000       0.418809        11.3964 
 150   0.0000       0.424136        11.5413 
 151   0.0000       0.425375        11.5750 
 152   0.0000       0.425399        11.5757 
 153   0.0000       0.428548        11.6614 
 154   0.0000       0.435346        11.8464 
 155   0.0000       0.436129        11.8677 
 156   0.0000       0.445511        12.1230 
 157   0.0000       0.452658        12.3174 
 158   0.0000       0.456399        12.4193 
 159   0.0000       0.459693        12.5089 
 160   0.0000       0.460560        12.5325 
 161   0.0000       0.464221        12.6321 
 162   0.0000       0.470627        12.8064 
 163   0.0000       0.476217        12.9585 
 164   0.0000       0.478674        13.0254 
 165   0.0000       0.490869        13.3572 
 166   0.0000       0.491714        13.3802 
 167   0.0000       0.492954        13.4140 
 168   0.0000       0.499701        13.5975 
 169   0.0000       0.503700        13.7064 
 170   0.0000       0.506544        13.7838 
 171   0.0000       0.511170        13.9096 
 172   0.0000       0.518925        14.1207 
 173   0.0000       0.522011        14.2046 
 174   0.0000       0.531554        14.4643 
 175   0.0000       0.534662        14.5489 
 176   0.0000       0.535926        14.5833 
 177   0.0000       0.541164        14.7258 
 178   0.0000       0.542378        14.7589 
 179   0.0000       0.549912        14.9639 
 180   0.0000       0.560108        15.2413 
 181   0.0000       0.563275        15.3275 
 182   0.0000       0.565866        15.3980 
 183   0.0000       0.569847        15.5063 
 184   0.0000       0.579361        15.7652 
 185   0.0000       0.602244        16.3879 
 186   0.0000       0.602325        16.3901 
 187   0.0000       0.614979        16.7344 
 188   0.0000       0.617363        16.7993 
 189   0.0000       0.629085        17.1183 
 190   0.0000       0.634280        17.2596 
 191   0.0000       0.635684        17.2979 
 192   0.0000       0.640390        17.4259 
 193   0.0000       0.642167        17.4743 
 194   0.0000       0.656430        17.8624 
 195   0.0000       0.661924        18.0119 
 196   0.0000       0.666026        18.1235 
 197   0.0000       0.666462        18.1354 
 198   0.0000       0.681922        18.5560 
 199   0.0000       0.689931        18.7740 
 200   0.0000       0.692032        18.8311 
 201   0.0000       0.693983        18.8842 
 202   0.0000       0.702602        19.1188 
 203   0.0000       0.706282        19.2189 
 204   0.0000       0.711568        19.3628 
 205   0.0000       0.713198        19.4071 
 206   0.0000       0.716685        19.5020 
 207   0.0000       0.721020        19.6199 
 208   0.0000       0.733238        19.9524 
 209   0.0000       0.736921        20.0526 
 210   0.0000       0.742844        20.2138 
 211   0.0000       0.743469        20.2308 
 212   0.0000       0.750699        20.4276 
 213   0.0000       0.764662        20.8075 
 214   0.0000       0.770644        20.9703 
 215   0.0000       0.781781        21.2733 
 216   0.0000       0.783970        21.3329 
 217   0.0000       0.785149        21.3650 
 218   0.0000       0.802229        21.8298 
 219   0.0000       0.802321        21.8323 
 220   0.0000       0.807873        21.9833 
 221   0.0000       0.814926        22.1753 
 222   0.0000       0.825505        22.4631 
 223   0.0000       0.835206        22.7271 
 224   0.0000       0.844493        22.9798 
 225   0.0000       0.848158        23.0796 
 226   0.0000       0.853569        23.2268 
 227   0.0000       0.856180        23.2978 
 228   0.0000       0.865211        23.5436 
 229   0.0000       0.865725        23.5576 
 230   0.0000       0.884686        24.0735 
 231   0.0000       0.885665        24.1002 
 232   0.0000       0.890702        24.2372 
 233   0.0000       0.897358        24.4183 
 234   0.0000       0.910171        24.7670 
 235   0.0000       0.913085        24.8463 
 236   0.0000       0.915643        24.9159 
 237   0.0000       0.917698        24.9718 
 238   0.0000       0.932992        25.3880 
 239   0.0000       0.934629        25.4325 
 240   0.0000       0.943371        25.6704 
 241   0.0000       0.943801        25.6821 
 242   0.0000       0.954248        25.9664 
 243   0.0000       0.957441        26.0533 
 244   0.0000       0.960077        26.1250 
 245   0.0000       0.961404        26.1611 
 246   0.0000       0.972240        26.4560 
 247   0.0000       0.982575        26.7372 
 248   0.0000       0.986682        26.8490 
 249   0.0000       0.991549        26.9814 
 250   0.0000       0.997946        27.1555 
 251   0.0000       1.001587        27.2546 
 252   0.0000       1.013129        27.5687 
 253   0.0000       1.017820        27.6963 
 254   0.0000       1.017988        27.7009 
 255   0.0000       1.022879        27.8340 
 256   0.0000       1.049556        28.5599 
 257   0.0000       1.050166        28.5765 
 258   0.0000       1.051647        28.6168 
 259   0.0000       1.062321        28.9072 
 260   0.0000       1.073847        29.2209 
 261   0.0000       1.082570        29.4582 
 262   0.0000       1.084990        29.5241 
 263   0.0000       1.089088        29.6356 
 264   0.0000       1.089722        29.6528 
 265   0.0000       1.103254        30.0211 
 266   0.0000       1.106584        30.1117 
 267   0.0000       1.113247        30.2930 
 268   0.0000       1.132507        30.8171 
 269   0.0000       1.144418        31.1412 
 270   0.0000       1.147741        31.2316 
 271   0.0000       1.155764        31.4499 
 272   0.0000       1.170706        31.8565 
 273   0.0000       1.172417        31.9031 
 274   0.0000       1.176467        32.0133 
 275   0.0000       1.179109        32.0852 
 276   0.0000       1.185077        32.2476 
 277   0.0000       1.205925        32.8149 
 278   0.0000       1.214177        33.0394 
 279   0.0000       1.219359        33.1804 
 280   0.0000       1.221369        33.2351 
 281   0.0000       1.225620        33.3508 
 282   0.0000       1.240898        33.7666 
 283   0.0000       1.244488        33.8642 
 284   0.0000       1.256611        34.1941 
 285   0.0000       1.272074        34.6149 
 286   0.0000       1.276577        34.7374 
 287   0.0000       1.281735        34.8778 
 288   0.0000       1.288047        35.0495 
 289   0.0000       1.288282        35.0559 
 290   0.0000       1.290342        35.1120 
 291   0.0000       1.301875        35.4258 
 292   0.0000       1.314841        35.7787 
 293   0.0000       1.318419        35.8760 
 294   0.0000       1.321230        35.9525 
 295   0.0000       1.330222        36.1972 
 296   0.0000       1.338923        36.4339 
 297   0.0000       1.339308        36.4444 
 298   0.0000       1.340007        36.4634 
 299   0.0000       1.343312        36.5534 
 300   0.0000       1.349963        36.7343 
 301   0.0000       1.369941        37.2780 
 302   0.0000       1.375007        37.4158 
 303   0.0000       1.376662        37.4609 
 304   0.0000       1.383428        37.6450 
 305   0.0000       1.391893        37.8753 
 306   0.0000       1.393605        37.9219 
 307   0.0000       1.405261        38.2391 
 308   0.0000       1.411526        38.4096 
 309   0.0000       1.425310        38.7847 
 310   0.0000       1.435996        39.0754 
 311   0.0000       1.437767        39.1236 
 312   0.0000       1.443866        39.2896 
 313   0.0000       1.445271        39.3278 
 314   0.0000       1.448553        39.4171 
 315   0.0000       1.454912        39.5902 
 316   0.0000       1.469570        39.9890 
 317   0.0000       1.471517        40.0420 
 318   0.0000       1.477030        40.1920 
 319   0.0000       1.502515        40.8855 
 320   0.0000       1.503565        40.9141 
 321   0.0000       1.505053        40.9546 
 322   0.0000       1.525097        41.5000 
 323   0.0000       1.525265        41.5046 
 324   0.0000       1.526074        41.5266 
 325   0.0000       1.531022        41.6612 
 326   0.0000       1.532668        41.7060 
 327   0.0000       1.536544        41.8115 
 328   0.0000       1.542827        41.9825 
 329   0.0000       1.547629        42.1131 
 330   0.0000       1.554535        42.3011 
 331   0.0000       1.571890        42.7733 
 332   0.0000       1.578742        42.9597 
 333   0.0000       1.584061        43.1045 
 334   0.0000       1.587584        43.2004 
 335   0.0000       1.596528        43.4437 
 336   0.0000       1.613522        43.9062 
 337   0.0000       1.615470        43.9592 
 338   0.0000       1.641680        44.6724 
[...]
 16 H      0.7963     1.0000     0.2037     0.9575     0.9575     0.0000
 17 H      0.9774     1.0000     0.0226     1.0979     1.0979     0.0000
 18 H      0.7951     1.0000     0.2049     0.9571     0.9571     0.0000
 19 H      0.7767     1.0000     0.2233     0.9370     0.9370     0.0000
 20 H      0.7206     1.0000     0.2794     0.8810     0.8810     0.0000

  Mayer bond orders larger than 0.100000
B(  0-F ,  1-B ) :   0.5610 B(  0-F ,  3-N ) :  -0.1176 B(  0-F , 13-N ) :  -0.1255 
B(  1-B ,  2-F ) :   0.5514 B(  1-B ,  3-N ) :   0.8056 B(  1-B , 13-N ) :   0.8050 
B(  2-F ,  3-N ) :  -0.1040 B(  3-N ,  4-C ) :   1.3520 B(  3-N ,  5-C ) :  -0.2281 
B(  3-N ,  6-C ) :  -0.1379 B(  3-N ,  7-C ) :   0.7604 B(  4-C ,  5-C ) :   1.0321 
B(  4-C ,  6-C ) :   0.2073 B(  4-C ,  7-C ) :  -0.1321 B(  4-C , 14-H ) :   0.8247 
B(  5-C ,  6-C ) :   1.4626 B(  5-C ,  7-C ) :   0.1729 B(  5-C , 15-H ) :   0.9490 
B(  6-C ,  7-C ) :   0.5226 B(  6-C , 16-H ) :   1.0572 B(  7-C ,  8-C ) :   0.7538 
B(  7-C , 16-H ) :  -0.1108 B(  7-C , 17-H ) :  -0.1587 B(  8-C ,  9-C ) :   0.7497 
B(  8-C , 10-C ) :   0.1076 B(  8-C , 17-H ) :   1.3621 B(  9-C , 10-C ) :   0.5002 
B(  9-C , 11-C ) :   0.1650 B(  9-C , 12-C ) :  -0.1352 B(  9-C , 13-N ) :   0.7637 
B(  9-C , 17-H ) :  -0.1641 B(  9-C , 18-H ) :  -0.1146 B( 10-C , 11-C ) :   1.4626 
B( 10-C , 12-C ) :   0.2113 B( 10-C , 13-N ) :  -0.1389 B( 10-C , 18-H ) :   1.0581 
B( 11-C , 12-C ) :   1.0283 B( 11-C , 13-N ) :  -0.2264 B( 11-C , 19-H ) :   0.9518 
B( 12-C , 13-N ) :   1.3536 B( 12-C , 20-H ) :   0.8239 

-------
TIMINGS
-------

Total SCF time: 0 days 0 hours 2 min 28 sec 

Total time                  ....     148.684 sec
Sum of individual times     ....     146.573 sec  ( 98.6%)

Fock matrix formation       ....     140.946 sec  ( 94.8%)
  Split-RI-J                ....       6.967 sec  (  4.9% of F)
  Chain of spheres X        ....     121.562 sec  ( 86.2% of F)
  XC integration            ....       7.737 sec  (  5.5% of F)
    Basis function eval.    ....       1.355 sec  ( 17.5% of XC)
    Density eval.           ....       2.888 sec  ( 37.3% of XC)
    XC-Functional eval.     ....       0.094 sec  (  1.2% of XC)
    XC-Potential eval.      ....       3.270 sec  ( 42.3% of XC)
Diagonalization             ....       0.289 sec  (  0.2%)
Density matrix formation    ....       0.026 sec  (  0.0%)
Population analysis         ....       0.199 sec  (  0.1%)
Initial guess               ....       0.338 sec  (  0.2%)
Orbital Transformation      ....       0.000 sec  (  0.0%)
Orbital Orthonormalization  ....       0.299 sec  (  0.2%)
DIIS solution               ....       0.097 sec  (  0.1%)
SOSCF solution              ....       0.239 sec  (  0.2%)
Grid generation             ....       4.440 sec  (  3.0%)

Maximum memory used throughout the entire SCF-calculation: 176.9 MB


           ************************************************************
           *        Program running with 4 parallel MPI-processes     *
           *              working on a common directory               *
           ************************************************************
------------------------------------------------------------------------------
                        ORCA TD-DFT/TDA CALCULATION
------------------------------------------------------------------------------

Input orbitals are from        ... b3lyp-train-1_job2.gbw
CI-vector output               ... b3lyp-train-1_job2.cis
Tamm-Dancoff approximation     ... operative
CIS-Integral strategy          ... AO-integrals
Integral handling              ... AO integral Direct
Max. core memory used          ... 4000 MB
Reference state                ... RHF
Generation of triplets         ... off
Follow IRoot                   ... off
Number of operators            ... 1
Orbital ranges used for CIS calculation:
 Operator 0:  Orbitals  14... 48  to  49...741
XAS localization array:
 Operator 0:  Orbitals  -1... -1

-------------------
XC-INTEGRATION GRID
-------------------

General Integration Accuracy     IntAcc      ... 3.467
Radial Grid Type                 RadialGrid  ... OptM3 with GC (2021)
Angular Grid (max. ang.)         AngularGrid ... 1 (Lebedev-50)
Angular grid pruning method      GridPruning ... 4 (adaptive)
Weight generation scheme         WeightScheme... Becke
Basis function cutoff            BFCut       ... 1.0000e-11
Integration weight cutoff        WCut        ... 1.0000e-14
Angular grids for H and He will be reduced by one unit
Partially contracted basis set               ... off
Rotationally invariant grid construction     ... off

Total number of grid points                  ...    16732
Total number of batches                      ...      270
Average number of points per batch           ...       61
Average number of grid points per atom       ...      797

---------------------
COSX-INTEGRATION GRID
---------------------

General Integration Accuracy     IntAcc      ... 3.067
Radial Grid Type                 RadialGrid  ... OptM3 with GC (2021)
Angular Grid (max. ang.)         AngularGrid ... 1 (Lebedev-50)
Angular grid pruning method      GridPruning ... 4 (adaptive)
Weight generation scheme         WeightScheme... Becke
Basis function cutoff            BFCut       ... 1.0000e-11
Integration weight cutoff        WCut        ... 1.0000e-14
Angular grids for H and He will be reduced by one unit
Partially contracted basis set               ... on
Rotationally invariant grid construction     ... off

Total number of grid points                  ...     7501
Total number of batches                      ...      128
Average number of points per batch           ...       58
Average number of grid points per atom       ...      357

---------------
TD-DFT XC SETUP
---------------

DFT calculation                         ... on
Name of the grid file                   ... b3lyp-train-1_job2.grid_cis.tmp
Exchange functional (TD-DFT)            ... B88
   X-Alpha parameter    XAlpha (TD-DFT) ...  0.666667
   Becke's b parameter  XBeta (TD-DFT)  ...  0.004200
Correlation functional (TD-DFT)         ... LYP
 LDA part of GGA corr.  LDAOpt (TD-DFT) ... VWN-5
Hybrid DFT                              ... on
   Exchange mixing (TD-DFT)             ...  0.200
   GGA exch. scaling (TD-DFT)           ...  0.720
   GGA corr. scaling (TD-DFT)           ...  0.810

Building densities             ... done
Calculating rho(r) on the grid ... done
Building xc-kernel on the grid ... done
                    *** TD-DFT CALCULATION INITIALIZED ***

---------------------------------
    LR-CPCM (non-equilibrium)
---------------------------------

Setting up LR-CPCM             ... done

------------------------
DAVIDSON-DIAGONALIZATION
------------------------

Dimension of the eigenvalue problem            ...  24255
Number of roots to be determined               ...     10
Maximum size of the expansion space            ...     70
Maximum number of iterations                   ...    100
Convergence tolerance for the residual         ...    1.000e-06
Convergence tolerance for the energies         ...    1.000e-06
Orthogonality tolerance                        ...    1.000e-14
Level Shift                                    ...    0.000e+00
Constructing the preconditioner                ... o.k.
Building the initial guess                     ... o.k.
Number of trial vectors determined             ...     70


                       ****Iteration    0****

   Memory handling for direct AO based CIS:
   Memory per vector needed      ...    25 MB
   Memory needed                 ...   756 MB
   Memory available              ...  4000 MB
   Number of vectors per batch   ...   158
   Number of batches             ...     1
   Time for densities:            0.264
   Time for RI-J (Direct):        9.068
   Time for K (COSX):            45.382
   Time for XC-Integration:      29.819
   Time for LR-CPCM terms:       11.948
   Time for Sigma-Completion:     0.210
   Size of expansion space: 30
   Lowest Energy          :     0.135906242477
   Maximum Energy change  :     0.227694223043 (vector 9)
   Maximum residual norm  :     0.022877455122

                       ****Iteration    1****
   Time for densities:            0.112
   Time for RI-J (Direct):        6.050
   Time for K (COSX):            17.559
   Time for XC-Integration:      11.055
   Time for LR-CPCM terms:        5.780
   Time for Sigma-Completion:     0.064
   Size of expansion space: 40
   Lowest Energy          :     0.117175029357
   Maximum Energy change  :     0.018731213120 (vector 0)
   Maximum residual norm  :     0.000722276160

                       ****Iteration    2****
   Time for densities:            0.094
   Time for RI-J (Direct):        6.167
   Time for K (COSX):            18.189
   Time for XC-Integration:      11.259
   Time for LR-CPCM terms:        5.819
   Time for Sigma-Completion:     0.066
   Size of expansion space: 50
   Lowest Energy          :     0.116758970774
   Maximum Energy change  :     0.001045489340 (vector 3)
   Maximum residual norm  :     0.000059633632

                       ****Iteration    3****
   Time for densities:            0.090
   Time for RI-J (Direct):        6.171
   Time for K (COSX):            17.846
   Time for XC-Integration:      10.662
   Time for LR-CPCM terms:        5.583
   Time for Sigma-Completion:     0.064
   Size of expansion space: 60
   Lowest Energy          :     0.116749896244
   Maximum Energy change  :     0.000057142841 (vector 3)
   Maximum residual norm  :     0.000005410874

                       ****Iteration    4****
   Time for densities:            0.084
   Time for RI-J (Direct):        5.802
   Time for K (COSX):            17.688
   Time for XC-Integration:      10.456
   Time for LR-CPCM terms:        5.562
   Time for Sigma-Completion:     0.060
   Size of expansion space: 70
   Lowest Energy          :     0.116749575792
   Maximum Energy change  :     0.000008217798 (vector 8)
   Maximum residual norm  :     0.000000250509

      *** CONVERGENCE OF RESIDUAL NORM REACHED ***

Storing the converged CI vectors               ... b3lyp-train-1_job2.cis1

                 *** DAVIDSON DONE ***

Total time for solving the CIS problem:   260.212sec

------------------------------------
TD-DFT/TDA EXCITED STATES (SINGLETS)
------------------------------------

the weight of the individual excitations are printed if larger than 1.0e-02

STATE  1:  E=   0.116750 au      3.177 eV    25623.6 cm**-1 <S**2> =   0.000000
    47a ->  49a  :     0.127637 (c= -0.35726346)
    48a ->  49a  :     0.838470 (c=  0.91567998)

STATE  2:  E=   0.137996 au      3.755 eV    30286.6 cm**-1 <S**2> =   0.000000
    47a ->  49a  :     0.849385 (c= -0.92162082)
    48a ->  49a  :     0.122064 (c= -0.34937646)

STATE  3:  E=   0.143270 au      3.899 eV    31444.1 cm**-1 <S**2> =   0.000000
    46a ->  49a  :     0.970521 (c=  0.98515045)

STATE  4:  E=   0.195085 au      5.309 eV    42816.1 cm**-1 <S**2> =   0.000000
    45a ->  49a  :     0.767046 (c=  0.87581183)
    48a ->  52a  :     0.189678 (c=  0.43552010)

STATE  5:  E=   0.197407 au      5.372 eV    43325.8 cm**-1 <S**2> =   0.000000
    48a ->  50a  :     0.981997 (c= -0.99095754)

STATE  6:  E=   0.202815 au      5.519 eV    44512.7 cm**-1 <S**2> =   0.000000
    44a ->  49a  :     0.990272 (c=  0.99512386)

STATE  7:  E=   0.210152 au      5.719 eV    46122.9 cm**-1 <S**2> =   0.000000
    48a ->  51a  :     0.988470 (c=  0.99421841)

STATE  8:  E=   0.215912 au      5.875 eV    47387.2 cm**-1 <S**2> =   0.000000
    48a ->  53a  :     0.985158 (c=  0.99255139)

STATE  9:  E=   0.224871 au      6.119 eV    49353.4 cm**-1 <S**2> =   0.000000
    48a ->  54a  :     0.972443 (c= -0.98612531)

STATE 10:  E=   0.225368 au      6.133 eV    49462.5 cm**-1 <S**2> =   0.000000
    43a ->  49a  :     0.926651 (c=  0.96262701)
    48a ->  52a  :     0.061270 (c=  0.24752824)


-----------------------------
TD-DFT/TDA-EXCITATION SPECTRA
-----------------------------

Center of mass = ( -0.0077, -0.6448, -0.2666)
Calculating the Dipole integrals                  ... done
Transforming integrals                            ... done
Calculating the Linear Momentum integrals         ... done
Transforming integrals                            ... done
Calculating angular momentum integrals            ... done
Transforming integrals                            ... done

-----------------------------------------------------------------------------
         ABSORPTION SPECTRUM VIA TRANSITION ELECTRIC DIPOLE MOMENTS
-----------------------------------------------------------------------------
State   Energy    Wavelength  fosc         T2        TX        TY        TZ  
        (cm-1)      (nm)                 (au**2)    (au)      (au)      (au) 
-----------------------------------------------------------------------------
   1   25623.6    390.3   0.803457348  10.32283  -3.15602  -0.19707   0.56879
   2   30286.6    330.2   0.380417930   4.13511   1.99736   0.12750  -0.35974
   3   31444.1    318.0   0.054796401   0.57371  -0.00589  -0.69123  -0.30963
   4   42816.1    233.6   0.050867946   0.39112  -0.01280  -0.56569  -0.26636
   5   43325.8    230.8   0.000006527   0.00005   0.00663  -0.00163  -0.00172
   6   44512.7    224.7   0.000005736   0.00004   0.00643   0.00059  -0.00086
   7   46122.9    216.8   0.008584014   0.06127   0.04401  -0.10077   0.22176
   8   47387.2    211.0   0.000001014   0.00001   0.00258  -0.00037  -0.00050
   9   49353.4    202.6   0.000576227   0.00384   0.06147   0.00474  -0.00652
  10   49462.5    202.2   0.004560584   0.03035   0.00322   0.15609   0.07733

-----------------------------------------------------------------------------
         ABSORPTION SPECTRUM VIA TRANSITION VELOCITY DIPOLE MOMENTS
-----------------------------------------------------------------------------
State   Energy    Wavelength   fosc        P2         PX        PY        PZ  
        (cm-1)      (nm)                 (au**2)     (au)      (au)      (au) 
-----------------------------------------------------------------------------
   1   25623.6    390.3   0.033738103   0.00591   0.07554   0.00462  -0.01342
   2   30286.6    330.2   0.024561558   0.00508  -0.07008  -0.00416   0.01245
   3   31444.1    318.0   0.006112785   0.00131  -0.00114  -0.03271  -0.01557
   4   42816.1    233.6   0.000017766   0.00001   0.00007   0.00186   0.00132
   5   43325.8    230.8   0.000003843   0.00000  -0.00103  -0.00028  -0.00006
   6   44512.7    224.7   0.000000438   0.00000  -0.00035   0.00002   0.00010
   7   46122.9    216.8   0.007845847   0.00247  -0.00856   0.02059  -0.04445
   8   47387.2    211.0   0.000000461   0.00000  -0.00028  -0.00024  -0.00012
   9   49353.4    202.6   0.000205956   0.00007   0.00797   0.00077  -0.00233
  10   49462.5    202.2   0.000231478   0.00008   0.00017   0.00812   0.00351

-------------------------------------------------------------------
                             CD SPECTRUM
-------------------------------------------------------------------
State  Energy     Wavelength     R         MX        MY        MZ   
       (cm-1)       (nm)     (1e40*cgs)   (au)      (au)      (au)  
-------------------------------------------------------------------
   1   25623.6    390.3     -0.44773   0.13456  -0.29174   0.64386
   2   30286.6    330.2      0.12526   0.00192  -0.00496   0.00814
   3   31444.1    318.0     -0.02363  -0.00299  -0.00018   0.00063
   4   42816.1    233.6      0.00569  -0.00054  -0.00005   0.00008
   5   43325.8    230.8     -0.11488   0.00148   0.10857   0.04476
   6   44512.7    224.7      0.03169   0.00456   0.20851   0.09851
   7   46122.9    216.8      0.11054  -0.13622  -0.00821   0.02436
   8   47387.2    211.0      0.07647  -0.00499  -0.29282  -0.13115
   9   49353.4    202.6      0.51729   0.05060  -0.10339   0.23357
  10   49462.5    202.2     -0.00654   0.00232   0.00102  -0.00233

-------------------------------------------------------------------
         CD SPECTRUM VIA TRANSITION VELOCITY DIPOLE MOMENTS        
-------------------------------------------------------------------
State  Energy     Wavelength     R         MX        MY        MZ   
       (cm-1)       (nm)     (1e40*cgs)   (au)      (au)      (au)  
-------------------------------------------------------------------
   1   25623.6    390.3      0.72426   0.13456  -0.29174   0.64386
   2   30286.6    330.2     -0.04191   0.00192  -0.00496   0.00814
   3   31444.1    318.0     -0.00120  -0.00299  -0.00018   0.00063
   4   42816.1    233.6     -0.00004  -0.00054  -0.00005   0.00008
   5   43325.8    230.8     -0.08198   0.00148   0.10857   0.04476
   6   44512.7    224.7      0.03004   0.00456   0.20851   0.09851
   7   46122.9    216.8     -0.19414  -0.13622  -0.00821   0.02436
   8   47387.2    211.0      0.19238  -0.00499  -0.29282  -0.13115
   9   49353.4    202.6     -0.46278   0.05060  -0.10339   0.23357
  10   49462.5    202.2      0.00101   0.00232   0.00102  -0.00233

Total run time:      263.642 sec

           *** ORCA-CIS/TD-DFT FINISHED WITHOUT ERROR ***

Maximum memory used throughout the entire CIS-calculation: 735.6 MB

-----------------------
CIS/TD-DFT TOTAL ENERGY
-----------------------

    E(SCF)  =   -681.286613952 Eh
    DE(CIS) =      0.116749576 Eh (Root  1)
    ----------------------------- ---------
    E(tot)  =   -681.169864376 Eh


-------------------------   --------------------
FINAL SINGLE POINT ENERGY      -681.169864376123
-------------------------   --------------------


                            ***************************************
                            *     ORCA property calculations      *
                            ***************************************

                                    ---------------------
                                    Active property flags
                                    ---------------------
   (+) Dipole Moment


------------------------------------------------------------------------------
                       ORCA ELECTRIC PROPERTIES CALCULATION
------------------------------------------------------------------------------

Dipole Moment Calculation                       ... on
Quadrupole Moment Calculation                   ... off
Polarizability Calculation                      ... off
GBWName                                         ... b3lyp-train-1_job2.gbw
Electron density                                ... b3lyp-train-1_job2.scfp
The origin for moment calculation is the CENTER OF MASS  = (-0.007680, -0.644756 -0.266566)

-------------
DIPOLE MOMENT
-------------
                                X             Y             Z
Electronic contribution:     -0.09280      -7.51934      -3.12504
Nuclear contribution   :      0.11253       9.38893       3.88635
                        -----------------------------------------
Total Dipole Moment    :      0.01973       1.86959       0.76131
                        -----------------------------------------
Magnitude (a.u.)       :      2.01875
Magnitude (Debye)      :      5.13125



--------------------
Rotational spectrum 
--------------------
 
Rotational constants in cm-1:     0.042724     0.021517     0.015629 
Rotational constants in MHz :  1280.833449   645.056139   468.537595 

 Dipole components along the rotational axes: 
x,y,z [a.u.] :    -0.000780     2.018126    -0.050144 
x,y,z [Debye]:    -0.001983     5.129669    -0.127456 

 

Timings for individual modules:

Sum of individual times         ...      416.049 sec (=   6.934 min)
GTO integral calculation        ...        2.588 sec (=   0.043 min)   0.6 %
SCF iterations                  ...      149.265 sec (=   2.488 min)  35.9 %
CIS module                      ...      264.196 sec (=   4.403 min)  63.5 %



                             ****ORCA TERMINATED NORMALLY****
TOTAL RUN TIME: 0 days 1 hours 4 minutes 16 seconds 683 msec
