
                                 *****************
                                 * O   R   C   A *
                                 *****************

                                            #,                                       
                                            ###                                      
                                            ####                                     
                                            #####                                    
                                            ######                                   
                                           ########,                                 
                                     ,,################,,,,,                         
                               ,,#################################,,                 
                          ,,##########################################,,             
                       ,#########################################, ''#####,          
                    ,#############################################,,   '####,        
                  ,##################################################,,,,####,       
                ,###########''''           ''''###############################       
              ,#####''   ,,,,##########,,,,          '''####'''          '####       
            ,##' ,,,,###########################,,,                        '##       
           ' ,,###''''                  '''############,,,                           
         ,,##''                                '''############,,,,        ,,,,,,###''
      ,#''                                            '''#######################'''  
     '                                                          ''''####''''         
             ,#######,   #######,   ,#######,      ##                                
            ,#'     '#,  ##    ##  ,#'     '#,    #''#        ######   ,####,        
            ##       ##  ##   ,#'  ##            #'  '#       #        #'  '#        
            ##       ##  #######   ##           ,######,      #####,   #    #        
            '#,     ,#'  ##    ##  '#,     ,#' ,#      #,         ##   #,  ,#        
             '#######'   ##     ##  '#######'  #'      '#     #####' # '####'        



                  #######################################################
                  #                        -***-                        #
                  #          Department of theory and spectroscopy      #
                  #    Directorship and core code : Frank Neese         #
                  #        Max Planck Institute fuer Kohlenforschung    #
                  #                Kaiser Wilhelm Platz 1               #
                  #                 D-45470 Muelheim/Ruhr               #
                  #                      Germany                        #
                  #                                                     #
                  #                  All rights reserved                #
                  #                        -***-                        #
                  #######################################################


                         Program Version 5.0.2 -  RELEASE  -


 With contributions from (in alphabetic order):
   Daniel Aravena         : Magnetic Suceptibility
   Michael Atanasov       : Ab Initio Ligand Field Theory (pilot matlab implementation)
   Alexander A. Auer      : GIAO ZORA, VPT2 properties, NMR spectrum
   Ute Becker             : Parallelization
   Giovanni Bistoni       : ED, misc. LED, open-shell LED, HFLD
   Martin Brehm           : Molecular dynamics
   Dmytro Bykov           : SCF Hessian
   Vijay G. Chilkuri      : MRCI spin determinant printing, contributions to CSF-ICE
   Dipayan Datta          : RHF DLPNO-CCSD density
   Achintya Kumar Dutta   : EOM-CC, STEOM-CC
   Dmitry Ganyushin       : Spin-Orbit,Spin-Spin,Magnetic field MRCI
   Miquel Garcia          : C-PCM and meta-GGA Hessian, CC/C-PCM, Gaussian charge scheme
   Yang Guo               : DLPNO-NEVPT2, F12-NEVPT2, CIM, IAO-localization
   Andreas Hansen         : Spin unrestricted coupled pair/coupled cluster methods
   Benjamin Helmich-Paris : MC-RPA, TRAH-SCF, COSX integrals
   Lee Huntington         : MR-EOM, pCC
   Robert Izsak           : Overlap fitted RIJCOSX, COSX-SCS-MP3, EOM
   Marcus Kettner         : VPT2
   Christian Kollmar      : KDIIS, OOCD, Brueckner-CCSD(T), CCSD density, CASPT2, CASPT2-K
   Simone Kossmann        : Meta GGA functionals, TD-DFT gradient, OOMP2, MP2 Hessian
   Martin Krupicka        : Initial AUTO-CI
   Lucas Lang             : DCDCAS
   Marvin Lechner         : AUTO-CI (C++ implementation), FIC-MRCC
   Dagmar Lenk            : GEPOL surface, SMD
   Dimitrios Liakos       : Extrapolation schemes; Compound Job, initial MDCI parallelization
   Dimitrios Manganas     : Further ROCIS development; embedding schemes
   Dimitrios Pantazis     : SARC Basis sets
   Anastasios Papadopoulos: AUTO-CI, single reference methods and gradients
   Taras Petrenko         : DFT Hessian,TD-DFT gradient, ASA, ECA, R-Raman, ABS, FL, XAS/XES, NRVS
   Peter Pinski           : DLPNO-MP2, DLPNO-MP2 Gradient
   Christoph Reimann      : Effective Core Potentials
   Marius Retegan         : Local ZFS, SOC
   Christoph Riplinger    : Optimizer, TS searches, QM/MM, DLPNO-CCSD(T), (RO)-DLPNO pert. Triples
   Tobias Risthaus        : Range-separated hybrids, TD-DFT gradient, RPA, STAB
   Michael Roemelt        : Original ROCIS implementation
   Masaaki Saitow         : Open-shell DLPNO-CCSD energy and density
   Barbara Sandhoefer     : DKH picture change effects
   Avijit Sen             : IP-ROCIS
   Kantharuban Sivalingam : CASSCF convergence, NEVPT2, FIC-MRCI
   Bernardo de Souza      : ESD, SOC TD-DFT
   Georgi Stoychev        : AutoAux, RI-MP2 NMR, DLPNO-MP2 response
   Willem Van den Heuvel  : Paramagnetic NMR
   Boris Wezisla          : Elementary symmetry handling
   Frank Wennmohs         : Technical directorship


 We gratefully acknowledge several colleagues who have allowed us to
 interface, adapt or use parts of their codes:
   Stefan Grimme, W. Hujo, H. Kruse, P. Pracht,  : VdW corrections, initial TS optimization,
                  C. Bannwarth, S. Ehlert          DFT functionals, gCP, sTDA/sTD-DF
   Ed Valeev, F. Pavosevic, A. Kumar             : LibInt (2-el integral package), F12 methods
   Garnet Chan, S. Sharma, J. Yang, R. Olivares  : DMRG
   Ulf Ekstrom                                   : XCFun DFT Library
   Mihaly Kallay                                 : mrcc  (arbitrary order and MRCC methods)
   Jiri Pittner, Ondrej Demel                    : Mk-CCSD
   Frank Weinhold                                : gennbo (NPA and NBO analysis)
   Christopher J. Cramer and Donald G. Truhlar   : smd solvation model
   Lars Goerigk                                  : TD-DFT with DH, B97 family of functionals
   V. Asgeirsson, H. Jonsson                     : NEB implementation
   FAccTs GmbH                                   : IRC, NEB, NEB-TS, DLPNO-Multilevel, CI-OPT
                                                   MM, QMMM, 2- and 3-layer-ONIOM, Crystal-QMMM,
                                                   LR-CPCM, SF, NACMEs, symmetry and pop. for TD-DFT,
                                                   nearIR, NL-DFT gradient (VV10), updates on ESD,
                                                   ML-optimized integration grids
   S Lehtola, MJT Oliveira, MAL Marques          : LibXC Library
   Liviu Ungur et al                             : ANISO software


 Your calculation uses the libint2 library for the computation of 2-el integrals
 For citations please refer to: http://libint.valeyev.net

 Your ORCA version has been built with support for libXC version: 5.1.0
 For citations please refer to: https://tddft.org/programs/libxc/

 This ORCA versions uses:
   CBLAS   interface :  Fast vector & matrix operations
   LAPACKE interface :  Fast linear algebra routines
   SCALAPACK package :  Parallel linear algebra routines
   Shared memory     :  Shared parallel matrices
   BLAS/LAPACK       :  OpenBLAS 0.3.15  USE64BITINT DYNAMIC_ARCH NO_AFFINITY SkylakeX SINGLE_THREADED
        Core in use  :  SkylakeX
   Copyright (c) 2011-2014, The OpenBLAS Project


Your calculation utilizes the SMD solvation module
Please cite in your paper:
A.V. Marenich, C.J. Cramer, D.G. Truhlar J. Phys. Chem. B, 113, (2009), 6378 

XCFun DFT library Copyright 2009-2010 Ulf Ekstrom and contributors.
See http://admol.org/xcfun for more information.
This is free software; see the source code for copying conditions.
There is ABSOLUTELY NO WARRANTY; not even for MERCHANTABILITY or FITNESS FOR A PARTICULAR PURPOSE.
For details see the documentation.
Scientific users of this library should cite U. Ekstrom, L. Visscher, R. Bast, A. J. Thorvaldsen and K. Ruud;
J.Chem.Theor.Comp. 2010, DOI: 10.1021/ct100117s
XCFun Version 0.99 

================================================================================

----- Orbital basis set information -----
Your calculation utilizes the basis: aug-cc-pVTZ 
    H, B-Ne : Obtained from the ccRepo (grant-hill.group.shef.ac.uk/ccrepo) Feb. 2017
              R. A. Kendall, T. H. Dunning, Jr., R. J. Harrison, J. Chem. Phys. 96, 6796 (1992)
         He : Obtained from the ccRepo (grant-hill.group.shef.ac.uk/ccrepo) Feb. 2017
              D. E. Woon, T. H. Dunning, Jr., J. Chem. Phys. 100, 2975 (1994)
  Li-Be, Na : Obtained from the ccRepo (grant-hill.group.shef.ac.uk/ccrepo) Feb. 2017
              B. P. Prascher, D. E. Woon, K. A. Peterson, T. H. Dunning, Jr., A. K. Wilson, Theor. Chem. Acc. 128, 69 (2011)
         Mg : Obtained from the Peterson Research Group Website (tyr0.chem.wsu.edu/~kipeters) Feb. 2017
              B. P. Prascher, D. E. Woon, K. A. Peterson, T. H. Dunning, Jr., A. K. Wilson, Theor. Chem. Acc. 128, 69 (2011)
      Al-Ar : Obtained from the ccRepo (grant-hill.group.shef.ac.uk/ccrepo) Feb. 2017
              D. E. Woon, T. H. Dunning, Jr., J. Chem. Phys. 98, 1358 (1993)
      Sc-Zn : Obtained from the ccRepo (grant-hill.group.shef.ac.uk/ccrepo) Feb. 2017
              N. B. Balabanov, K. A. Peterson, J. Chem. Phys. 123, 064107 (2005)
              N. B. Balabanov, K. A. Peterson, J. Chem. Phys. 125, 074110 (2006)
      Ga-Kr : Obtained from the ccRepo (grant-hill.group.shef.ac.uk/ccrepo) Feb. 2017
              A. K. Wilson, D. E. Woon, K. A. Peterson, T. H. Dunning, Jr., J. Chem. Phys. 110, 7667 (1999)
     Ag, Au : Obtained from the Peterson Research Group Website (tyr0.chem.wsu.edu/~kipeters) Feb. 2017
              K. A. Peterson, C. Puzzarini, Theor. Chem. Acc. 114, 283 (2005)

The basis set includes element-specific modifications.

Your calculation utilizes the basis: cc-pVTZ 
       H, B-Ne : Obtained from the ccRepo (grant-hill.group.shef.ac.uk/ccrepo) Feb. 2017
                 T. H. Dunning, Jr., J. Chem. Phys. 90, 1007 (1989)
            He : Obtained from the ccRepo (grant-hill.group.shef.ac.uk/ccrepo) Feb. 2017
                 D. E. Woon, T. H. Dunning, Jr., J. Chem. Phys. 100, 2975 (1994)
  Li-Be, Na-Mg : Obtained from the ccRepo (grant-hill.group.shef.ac.uk/ccrepo) Feb. 2017
                 B. P. Prascher, D. E. Woon, K. A. Peterson, T. H. Dunning, Jr., A. K. Wilson, Theor. Chem. Acc. 128, 69 (2011)
         Al-Ar : Obtained from the ccRepo (grant-hill.group.shef.ac.uk/ccrepo) Feb. 2017
                 D. E. Woon, T. H. Dunning, Jr., J. Chem. Phys. 98, 1358 (1993)
            Ca : Obtained from the Peterson Research Group Website (tyr0.chem.wsu.edu/~kipeters) Feb. 2017
                 J. Koput, K. A. Peterson, J. Phys. Chem. 106, 9595 (2002)
         Sc-Zn : Obtained from the ccRepo (grant-hill.group.shef.ac.uk/ccrepo) Feb. 2017
                 N. B. Balabanov, K. A. Peterson, J. Chem. Phys. 123, 064107 (2005)
                 N. B. Balabanov, K. A. Peterson, J. Chem. Phys. 125, 074110 (2006)
         Ga-Kr : Obtained from the ccRepo (grant-hill.group.shef.ac.uk/ccrepo) Feb. 2017
                 A. K. Wilson, D. E. Woon, K. A. Peterson, T. H. Dunning, Jr., J. Chem. Phys. 110, 7667 (1999)
             Y : Obtained from the ccRepo (grant-hill.group.shef.ac.uk/ccrepo) Feb. 2017
                 K. A. Peterson, D. Figgen, M. Dolg, H. Stoll, J. Chem. Phys. 126, 124101 (2007)
        Ag, Au : Obtained from the Peterson Research Group Website (tyr0.chem.wsu.edu/~kipeters) Feb. 2017
                 K. A. Peterson, C. Puzzarini, Theor. Chem. Acc. 114, 283 (2005)

----- AuxJ basis set information -----
Your calculation utilizes the auxiliary basis: aug-cc-pVTZ/JK 
  H, B-F, Al-Cl, Ga-Br : Obtained from the TURBOMOLE 7.0 basis set library

The basis set includes element-specific modifications.

Your calculation utilizes the auxiliary basis: cc-pVTZ/JK 
  H, B-F, Al-Cl, Ga-Br : Obtained from the TURBOMOLE 7.0 basis set library

----- AuxC basis set information -----
Your calculation utilizes the auxiliary basis: aug-cc-pVTZ/C 
  H-He, B-F, Al-Ar, Ga-Kr : Obtained from the EMSL Basis Set Exchange (bse.pnl.gov) Feb. 2017
                            F. Weigend, A. Kohn, C. Hattig, J. Chem. Phys. 116, 3175 (2002)
                   Be, Mg : Obtained from the TURBOMOLE 7.0 basis set library
                            C. Haettig, Phys. Chem. Chem. Phys. 7, 59 (2005)
                       Ne : Obtained from the EMSL Basis Set Exchange (bse.pnl.gov) Feb. 2017
                            C. Haettig, Phys. Chem. Chem. Phys. 7, 59 (2005)
                            F. Weigend, A. Kohn, C. Hattig, J. Chem. Phys. 116, 3175 (2002)
                    Sc-Zn : Obtained from the EMSL Basis Set Exchange (bse.pnl.gov) Feb. 2017
                            J. G. Hill, J. A. Platts, J. Chem. Phys. 128, 044104 (2008)

The basis set includes element-specific modifications.

Your calculation utilizes the auxiliary basis: cc-pVTZ/C 
  Obtained from the EMSL Basis Set Exchange (bse.pnl.gov) Feb. 2017
  H-He, B-F, Al-Ar, Ga-Kr : F. Weigend, A. Kohn, C. Hattig, J. Chem. Phys. 116, 3175 (2002)
             Li-Be, Na-Mg : C. Haettig, Phys. Chem. Chem. Phys. 7, 59 (2005)
                       Ne : C. Haettig, Phys. Chem. Chem. Phys. 7, 59 (2005)
                            F. Weigend, A. Kohn, C. Hattig, J. Chem. Phys. 116, 3175 (2002)
                    Sc-Zn : J. G. Hill, J. A. Platts, J. Chem. Phys. 128, 044104 (2008)

================================================================================
                                        WARNINGS
                       Please study these warnings very carefully!
================================================================================


WARNING: Geometry Optimization
  ===> : Switching off AutoStart
         For restart on a previous wavefunction, please use MOREAD

INFO   : the flag for use of the SHARK integral package has been found!



***************************************
The coordinates will be read from file: 
***************************************


Your calculation utilizes the SMD solvation module
Please cite in your paper:
A.V. Marenich, C.J. Cramer, D.G. Truhlar J. Phys. Chem. B, 113, (2009), 6378 

XCFun DFT library Copyright 2009-2010 Ulf Ekstrom and contributors.
See http://admol.org/xcfun for more information.
This is free software; see the source code for copying conditions.
There is ABSOLUTELY NO WARRANTY; not even for MERCHANTABILITY or FITNESS FOR A PARTICULAR PURPOSE.
For details see the documentation.
Scientific users of this library should cite U. Ekstrom, L. Visscher, R. Bast, A. J. Thorvaldsen and K. Ruud;
J.Chem.Theor.Comp. 2010, DOI: 10.1021/ct100117s
XCFun Version 0.99 

================================================================================

----- Orbital basis set information -----
Your calculation utilizes the basis: aug-cc-pVTZ 
    H, B-Ne : Obtained from the ccRepo (grant-hill.group.shef.ac.uk/ccrepo) Feb. 2017
              R. A. Kendall, T. H. Dunning, Jr., R. J. Harrison, J. Chem. Phys. 96, 6796 (1992)
         He : Obtained from the ccRepo (grant-hill.group.shef.ac.uk/ccrepo) Feb. 2017
              D. E. Woon, T. H. Dunning, Jr., J. Chem. Phys. 100, 2975 (1994)
  Li-Be, Na : Obtained from the ccRepo (grant-hill.group.shef.ac.uk/ccrepo) Feb. 2017
              B. P. Prascher, D. E. Woon, K. A. Peterson, T. H. Dunning, Jr., A. K. Wilson, Theor. Chem. Acc. 128, 69 (2011)
         Mg : Obtained from the Peterson Research Group Website (tyr0.chem.wsu.edu/~kipeters) Feb. 2017
              B. P. Prascher, D. E. Woon, K. A. Peterson, T. H. Dunning, Jr., A. K. Wilson, Theor. Chem. Acc. 128, 69 (2011)
      Al-Ar : Obtained from the ccRepo (grant-hill.group.shef.ac.uk/ccrepo) Feb. 2017
              D. E. Woon, T. H. Dunning, Jr., J. Chem. Phys. 98, 1358 (1993)
      Sc-Zn : Obtained from the ccRepo (grant-hill.group.shef.ac.uk/ccrepo) Feb. 2017
              N. B. Balabanov, K. A. Peterson, J. Chem. Phys. 123, 064107 (2005)
              N. B. Balabanov, K. A. Peterson, J. Chem. Phys. 125, 074110 (2006)
      Ga-Kr : Obtained from the ccRepo (grant-hill.group.shef.ac.uk/ccrepo) Feb. 2017
              A. K. Wilson, D. E. Woon, K. A. Peterson, T. H. Dunning, Jr., J. Chem. Phys. 110, 7667 (1999)
     Ag, Au : Obtained from the Peterson Research Group Website (tyr0.chem.wsu.edu/~kipeters) Feb. 2017
              K. A. Peterson, C. Puzzarini, Theor. Chem. Acc. 114, 283 (2005)

The basis set includes element-specific modifications.

Your calculation utilizes the basis: cc-pVTZ 
       H, B-Ne : Obtained from the ccRepo (grant-hill.group.shef.ac.uk/ccrepo) Feb. 2017
                 T. H. Dunning, Jr., J. Chem. Phys. 90, 1007 (1989)
            He : Obtained from the ccRepo (grant-hill.group.shef.ac.uk/ccrepo) Feb. 2017
                 D. E. Woon, T. H. Dunning, Jr., J. Chem. Phys. 100, 2975 (1994)
  Li-Be, Na-Mg : Obtained from the ccRepo (grant-hill.group.shef.ac.uk/ccrepo) Feb. 2017
                 B. P. Prascher, D. E. Woon, K. A. Peterson, T. H. Dunning, Jr., A. K. Wilson, Theor. Chem. Acc. 128, 69 (2011)
         Al-Ar : Obtained from the ccRepo (grant-hill.group.shef.ac.uk/ccrepo) Feb. 2017
                 D. E. Woon, T. H. Dunning, Jr., J. Chem. Phys. 98, 1358 (1993)
            Ca : Obtained from the Peterson Research Group Website (tyr0.chem.wsu.edu/~kipeters) Feb. 2017
                 J. Koput, K. A. Peterson, J. Phys. Chem. 106, 9595 (2002)
         Sc-Zn : Obtained from the ccRepo (grant-hill.group.shef.ac.uk/ccrepo) Feb. 2017
                 N. B. Balabanov, K. A. Peterson, J. Chem. Phys. 123, 064107 (2005)
                 N. B. Balabanov, K. A. Peterson, J. Chem. Phys. 125, 074110 (2006)
         Ga-Kr : Obtained from the ccRepo (grant-hill.group.shef.ac.uk/ccrepo) Feb. 2017
                 A. K. Wilson, D. E. Woon, K. A. Peterson, T. H. Dunning, Jr., J. Chem. Phys. 110, 7667 (1999)
             Y : Obtained from the ccRepo (grant-hill.group.shef.ac.uk/ccrepo) Feb. 2017
                 K. A. Peterson, D. Figgen, M. Dolg, H. Stoll, J. Chem. Phys. 126, 124101 (2007)
        Ag, Au : Obtained from the Peterson Research Group Website (tyr0.chem.wsu.edu/~kipeters) Feb. 2017
                 K. A. Peterson, C. Puzzarini, Theor. Chem. Acc. 114, 283 (2005)

----- AuxJ basis set information -----
Your calculation utilizes the auxiliary basis: aug-cc-pVTZ/JK 
  H, B-F, Al-Cl, Ga-Br : Obtained from the TURBOMOLE 7.0 basis set library

The basis set includes element-specific modifications.

Your calculation utilizes the auxiliary basis: cc-pVTZ/JK 
  H, B-F, Al-Cl, Ga-Br : Obtained from the TURBOMOLE 7.0 basis set library

----- AuxC basis set information -----
Your calculation utilizes the auxiliary basis: aug-cc-pVTZ/C 
  H-He, B-F, Al-Ar, Ga-Kr : Obtained from the EMSL Basis Set Exchange (bse.pnl.gov) Feb. 2017
                            F. Weigend, A. Kohn, C. Hattig, J. Chem. Phys. 116, 3175 (2002)
                   Be, Mg : Obtained from the TURBOMOLE 7.0 basis set library
                            C. Haettig, Phys. Chem. Chem. Phys. 7, 59 (2005)
                       Ne : Obtained from the EMSL Basis Set Exchange (bse.pnl.gov) Feb. 2017
                            C. Haettig, Phys. Chem. Chem. Phys. 7, 59 (2005)
                            F. Weigend, A. Kohn, C. Hattig, J. Chem. Phys. 116, 3175 (2002)
                    Sc-Zn : Obtained from the EMSL Basis Set Exchange (bse.pnl.gov) Feb. 2017
                            J. G. Hill, J. A. Platts, J. Chem. Phys. 128, 044104 (2008)

The basis set includes element-specific modifications.

Your calculation utilizes the auxiliary basis: cc-pVTZ/C 
  Obtained from the EMSL Basis Set Exchange (bse.pnl.gov) Feb. 2017
  H-He, B-F, Al-Ar, Ga-Kr : F. Weigend, A. Kohn, C. Hattig, J. Chem. Phys. 116, 3175 (2002)
             Li-Be, Na-Mg : C. Haettig, Phys. Chem. Chem. Phys. 7, 59 (2005)
                       Ne : C. Haettig, Phys. Chem. Chem. Phys. 7, 59 (2005)
                            F. Weigend, A. Kohn, C. Hattig, J. Chem. Phys. 116, 3175 (2002)
                    Sc-Zn : J. G. Hill, J. A. Platts, J. Chem. Phys. 128, 044104 (2008)

================================================================================
                                        WARNINGS
                       Please study these warnings very carefully!
================================================================================

INFO   : Checking CIS options ...

INFO   : the flag for use of the SHARK integral package has been found!

================================================================================
                                       INPUT FILE
================================================================================
NAME = m062x-train-1.inp
|  1> ! m062x defgrid3 aug-cc-PVTZ RIJCOSX Opt
|  2> %maxcore 4000
|  3> %basis
|  4>  AuxJ "aug-cc-PVTZ/JK"
|  5>  AuxC "aug-cc-PVTZ/C"
|  6>  newGTO H "cc-PVTZ" end
|  7>  newAuxJGTO H "cc-PVTZ/JK" end
|  8>  newAuxCGTO H "cc-PVTZ/C" end
|  9> end
| 10> %cpcm
| 11>  SMD true
| 12>  SMDsolvent "cyclohexane"
| 13> end
| 14> %pal nprocs 4 end
| 15> * xyz 0 1
| 16> F         -0.24810       -1.64740       -1.94630
| 17> B         -0.02410       -1.38450       -0.61380
| 18> F          0.17410       -2.55790        0.07750
| 19> N         -1.23320       -0.61900       -0.01780
| 20> C         -2.48730       -1.04400        0.05700
| 21> C         -3.29420       -0.06750        0.65890
| 22> C         -2.47560        0.99680        0.95860
| 23> C         -1.17200        0.64600        0.52970
| 24> C          0.02230        1.34530        0.59030
| 25> C          1.19590        0.79430        0.10240
| 26> C          2.51470        1.30920        0.05800
| 27> C          3.29980        0.34520       -0.53110
| 28> C          2.45810       -0.73450       -0.83550
| 29> N          1.21500       -0.46570       -0.45960
| 30> H         -2.76280       -2.01260       -0.31430
| 31> H         -4.34690       -0.15340        0.84190
| 32> H         -2.74500        1.92360        1.42590
| 33> H          0.03880        2.33360        1.02470
| 34> H          2.81590        2.27180        0.42210
| 35> H          4.35250        0.39110       -0.72820
| 36> H          2.70190       -1.67060       -1.30040
| 37> *
| 38> 
| 39> 
| 40> $new_job
| 41> ! m062x defgrid3 aug-cc-PVTZ RIJCOSX SP
| 42> %maxcore 4000
| 43> %basis
| 44>  AuxJ "aug-cc-PVTZ/JK"
| 45>  AuxC "aug-cc-PVTZ/C"
| 46>  newGTO H "cc-PVTZ" end
| 47>  newAuxJGTO H "cc-PVTZ/JK" end
| 48>  newAuxCGTO H "cc-PVTZ/C" end
| 49> end
| 50> %cpcm
| 51>  SMD true
| 52>  SMDsolvent "cyclohexane"
| 53> end
| 54> %pal nprocs 4 end
| 55> %tddft
| 56>  nroots 10
| 57>  maxdim 7
| 58> end
| 59> * xyzfile 0 1
| 60> 
| 61>                          ****END OF INPUT****
================================================================================


                 $$$$$$$$$$$$$$$$$$$$$$$$$$$$$$$$$$$$$$$$$$$$$$ 
                 $ THERE ARE  2 JOBS TO BE PROCESSED THIS RUN $
                 $$$$$$$$$$$$$$$$$$$$$$$$$$$$$$$$$$$$$$$$$$$$$$ 




                 $$$$$$$$$$$$$$$$  JOB NUMBER  1 $$$$$$$$$$$$$$


                       *****************************
                       * Geometry Optimization Run *
                       *****************************

Geometry optimization settings:
Update method            Update   .... BFGS
Choice of coordinates    CoordSys .... Z-matrix Internals
Initial Hessian          InHess   .... Almoef's Model

Convergence Tolerances:
Energy Change            TolE     ....  5.0000e-06 Eh
Max. Gradient            TolMAXG  ....  3.0000e-04 Eh/bohr
RMS Gradient             TolRMSG  ....  1.0000e-04 Eh/bohr
Max. Displacement        TolMAXD  ....  4.0000e-03 bohr
RMS Displacement         TolRMSD  ....  2.0000e-03 bohr
Strict Convergence                ....  False
------------------------------------------------------------------------------
                        ORCA OPTIMIZATION COORDINATE SETUP
------------------------------------------------------------------------------

The optimization will be done in new redundant internal coordinates
Making redundant internal coordinates   ...  (new redundants) done
Evaluating the initial hessian          ...  (Almloef) done
Evaluating the coordinates              ...  done
Calculating the B-matrix                .... done
Calculating the G-matrix                .... done
Diagonalizing the G-matrix              .... done
The first mode is                       ....   65
The number of degrees of freedom        ....   57

    -----------------------------------------------------------------
                    Redundant Internal Coordinates


    -----------------------------------------------------------------
         Definition                    Initial Value    Approx d2E/dq
    -----------------------------------------------------------------
      1. B(B   1,F   0)                  1.3765         0.632800   
      2. B(F   2,B   1)                  1.3762         0.633478   
      3. B(N   3,B   1)                  1.5502         0.359832   
      4. B(C   4,N   3)                  1.3263         0.707222   
      5. B(C   5,C   4)                  1.4025         0.596819   
      6. B(C   6,C   5)                  1.3757         0.658399   
      7. B(C   7,N   3)                  1.3798         0.581057   
      8. B(C   7,C   6)                  1.4165         0.566900   
      9. B(C   8,C   7)                  1.3853         0.635687   
     10. B(C   9,C   8)                  1.3853         0.635738   
     11. B(C  10,C   9)                  1.4164         0.566946   
     12. B(C  11,C  10)                  1.3758         0.658350   
     13. B(C  12,C  11)                  1.4025         0.596861   
     14. B(N  13,C   9)                  1.3798         0.580994   
     15. B(N  13,B   1)                  1.5503         0.359742   
     16. B(N  13,C  12)                  1.3262         0.707354   
     17. B(H  14,C   4)                  1.0733         0.382899   
     18. B(H  15,C   5)                  1.0719         0.384808   
     19. B(H  16,C   6)                  1.0723         0.384242   
     20. B(H  17,C   8)                  1.0797         0.374012   
     21. B(H  18,C  10)                  1.0723         0.384252   
     22. B(H  19,C  11)                  1.0720         0.384751   
     23. B(H  20,C  12)                  1.0732         0.382962   
     24. A(F   2,B   1,N   3)          109.8909         0.395568   
     25. A(F   0,B   1,N   3)          109.8498         0.395494   
     26. A(F   0,B   1,F   2)          110.2941         0.435456   
     27. A(F   2,B   1,N  13)          109.8919         0.395551   
     28. A(N   3,B   1,N  13)          107.0078         0.360191   
     29. A(F   0,B   1,N  13)          109.8489         0.395476   
     30. A(B   1,N   3,C   7)          124.7990         0.387976   
     31. A(B   1,N   3,C   4)          126.9391         0.401573   
     32. A(C   4,N   3,C   7)          108.2617         0.433578   
     33. A(N   3,C   4,H  14)          120.8239         0.362425   
     34. A(N   3,C   4,C   5)          110.1892         0.438548   
     35. A(C   5,C   4,H  14)          128.9870         0.354303   
     36. A(C   6,C   5,H  15)          127.5282         0.360572   
     37. A(C   4,C   5,H  15)          125.6258         0.354602   
     38. A(C   4,C   5,C   6)          106.8460         0.435787   
     39. A(C   5,C   6,H  16)          127.8845         0.360481   
     40. A(C   5,C   6,C   7)          106.8613         0.431774   
     41. A(C   7,C   6,H  16)          125.2542         0.351441   
     42. A(C   6,C   7,C   8)          130.9321         0.429061   
     43. A(N   3,C   7,C   8)          121.2260         0.428151   
     44. A(N   3,C   7,C   6)          107.8418         0.419473   
     45. A(C   7,C   8,C   9)          120.9437         0.437998   
     46. A(C   9,C   8,H  17)          119.5280         0.356697   
     47. A(C   7,C   8,H  17)          119.5282         0.356693   
     48. A(C   8,C   9,C  10)          130.9380         0.429074   
     49. A(C  10,C   9,N  13)          107.8364         0.419471   
     50. A(C   8,C   9,N  13)          121.2255         0.428149   
     51. A(C   9,C  10,C  11)          106.8598         0.431774   
     52. A(C  11,C  10,H  18)          127.8867         0.360478   
     53. A(C   9,C  10,H  18)          125.2534         0.351447   
     54. A(C  12,C  11,H  19)          125.6215         0.354597   
     55. A(C  10,C  11,H  19)          127.5269         0.360558   
     56. A(C  10,C  11,C  12)          106.8517         0.435787   
     57. A(C  11,C  12,N  13)          110.1813         0.438568   
     58. A(N  13,C  12,H  20)          120.8295         0.362447   
     59. A(C  11,C  12,H  20)          128.9892         0.354317   
     60. A(C   9,N  13,C  12)          108.2708         0.433584   
     61. A(B   1,N  13,C  12)          126.9323         0.401568   
     62. A(B   1,N  13,C   9)          124.7968         0.387952   
     63. D(C   7,N   3,B   1,N  13)      0.3569         0.009321   
     64. D(C   7,N   3,B   1,F   0)   -118.8473         0.009321   
     65. D(C   4,N   3,B   1,F   0)     60.9941         0.009321   
     66. D(C   7,N   3,B   1,F   2)    119.6352         0.009321   
     67. D(C   4,N   3,B   1,F   2)    -60.5233         0.009321   
     68. D(C   4,N   3,B   1,N  13)   -179.8017         0.009321   
     69. D(H  14,C   4,N   3,C   7)    179.9976         0.041476   
     70. D(C   5,C   4,N   3,B   1)   -179.8669         0.041476   
     71. D(H  14,C   4,N   3,B   1)      0.1347         0.041476   
     72. D(C   5,C   4,N   3,C   7)     -0.0040         0.041476   
     73. D(C   6,C   5,C   4,H  14)   -179.9981         0.024541   
     74. D(H  15,C   5,C   4,H  14)      0.0110         0.024541   
     75. D(C   6,C   5,C   4,N   3)      0.0037         0.024541   
     76. D(H  15,C   5,C   4,N   3)   -179.9872         0.024541   
     77. D(C   7,C   6,C   5,C   4)     -0.0018         0.030238   
     78. D(H  16,C   6,C   5,H  15)      0.0031         0.030238   
     79. D(H  16,C   6,C   5,C   4)   -179.9875         0.030238   
     80. D(C   7,C   6,C   5,H  15)    179.9888         0.030238   
     81. D(C   8,C   7,C   6,H  16)      0.0554         0.022035   
     82. D(C   8,C   7,C   6,C   5)   -179.9308         0.022035   
     83. D(N   3,C   7,C   6,H  16)    179.9857         0.022035   
     84. D(N   3,C   7,C   6,C   5)     -0.0005         0.022035   
     85. D(C   8,C   7,N   3,C   4)    179.9412         0.027086   
     86. D(C   8,C   7,N   3,B   1)     -0.1923         0.027086   
     87. D(C   6,C   7,N   3,C   4)      0.0028         0.027086   
     88. D(C   6,C   7,N   3,B   1)    179.8693         0.027086   
     89. D(H  17,C   8,C   7,C   6)     -0.0707         0.028051   
     90. D(C   9,C   8,C   7,C   6)    179.8818         0.028051   
     91. D(C   9,C   8,C   7,N   3)     -0.0406         0.028051   
     92. D(H  17,C   8,C   7,N   3)   -179.9931         0.028051   
     93. D(C  10,C   9,C   8,C   7)   -179.8824         0.028056   
     94. D(N  13,C   9,C   8,H  17)    179.9930         0.028056   
     95. D(N  13,C   9,C   8,C   7)      0.0404         0.028056   
     96. D(C  10,C   9,C   8,H  17)      0.0701         0.028056   
     97. D(H  18,C  10,C   9,N  13)    179.9993         0.022039   
     98. D(H  18,C  10,C   9,C   8)     -0.0700         0.022039   
     99. D(C  11,C  10,C   9,N  13)     -0.0019         0.022039   
    100. D(C  11,C  10,C   9,C   8)    179.9288         0.022039   
    101. D(H  19,C  11,C  10,H  18)      0.0007         0.030233   
    102. D(H  19,C  11,C  10,C   9)   -179.9980         0.030233   
    103. D(C  12,C  11,C  10,H  18)   -179.9969         0.030233   
    104. D(C  12,C  11,C  10,C   9)      0.0044         0.030233   
    105. D(H  20,C  12,C  11,H  19)      0.0061         0.024545   
    106. D(H  20,C  12,C  11,C  10)   -179.9963         0.024545   
    107. D(N  13,C  12,C  11,H  19)    179.9968         0.024545   
    108. D(N  13,C  12,C  11,C  10)     -0.0056         0.024545   
    109. D(C   9,N  13,C  12,H  20)    179.9960         0.041493   
    110. D(B   1,N  13,C  12,H  20)     -0.1405         0.041493   
    111. D(B   1,N  13,C  12,C  11)    179.8679         0.041493   
    112. D(C  12,N  13,C   9,C  10)     -0.0016         0.027080   
    113. D(C  12,N  13,C   9,C   8)   -179.9403         0.027080   
    114. D(B   1,N  13,C   9,C  10)   -179.8687         0.027080   
    115. D(B   1,N  13,C   9,C   8)      0.1926         0.027080   
    116. D(C  12,N  13,B   1,N   3)    179.8008         0.009317   
    117. D(C  12,N  13,B   1,F   2)     60.5231         0.009317   
    118. D(C  12,N  13,B   1,F   0)    -60.9944         0.009317   
    119. D(C   9,N  13,B   1,N   3)     -0.3570         0.009317   
    120. D(C   9,N  13,C  12,C  11)      0.0044         0.041493   
    121. D(C   9,N  13,B   1,F   2)   -119.6347         0.009317   
    122. D(C   9,N  13,B   1,F   0)    118.8477         0.009317   
    -----------------------------------------------------------------

Number of atoms                         .... 21
Number of degrees of freedom            .... 122

         *************************************************************
         *                GEOMETRY OPTIMIZATION CYCLE   1            *
         *************************************************************
---------------------------------
CARTESIAN COORDINATES (ANGSTROEM)
---------------------------------
  F     -0.248100   -1.647400   -1.946300
  B     -0.024100   -1.384500   -0.613800
  F      0.174100   -2.557900    0.077500
  N     -1.233200   -0.619000   -0.017800
  C     -2.487300   -1.044000    0.057000
  C     -3.294200   -0.067500    0.658900
  C     -2.475600    0.996800    0.958600
  C     -1.172000    0.646000    0.529700
  C      0.022300    1.345300    0.590300
  C      1.195900    0.794300    0.102400
  C      2.514700    1.309200    0.058000
  C      3.299800    0.345200   -0.531100
  C      2.458100   -0.734500   -0.835500
  N      1.215000   -0.465700   -0.459600
  H     -2.762800   -2.012600   -0.314300
  H     -4.346900   -0.153400    0.841900
  H     -2.745000    1.923600    1.425900
  H      0.038800    2.333600    1.024700
  H      2.815900    2.271800    0.422100
  H      4.352500    0.391100   -0.728200
  H      2.701900   -1.670600   -1.300400

----------------------------
CARTESIAN COORDINATES (A.U.)
----------------------------
  NO LB      ZA    FRAG     MASS         X           Y           Z
   0 F     9.0000    0    18.998   -0.468841   -3.113135   -3.677974
   1 B     5.0000    0    10.810   -0.045542   -2.616326   -1.159914
   2 F     9.0000    0    18.998    0.329001   -4.833730    0.146454
   3 N     7.0000    0    14.007   -2.330410   -1.169740   -0.033637
   4 C     6.0000    0    12.011   -4.700316   -1.972874    0.107714
   5 C     6.0000    0    12.011   -6.225136   -0.127557    1.245141
   6 C     6.0000    0    12.011   -4.678206    1.883679    1.811491
   7 C     6.0000    0    12.011   -2.214759    1.220763    1.000988
   8 C     6.0000    0    12.011    0.042141    2.542249    1.115505
   9 C     6.0000    0    12.011    2.259923    1.501009    0.193508
  10 C     6.0000    0    12.011    4.752094    2.474029    0.109604
  11 C     6.0000    0    12.011    6.235718    0.652333   -1.003634
  12 C     6.0000    0    12.011    4.645136   -1.388004   -1.578866
  13 N     7.0000    0    14.007    2.296017   -0.880045   -0.868518
  14 H     1.0000    0     1.008   -5.220935   -3.803263   -0.593941
  15 H     1.0000    0     1.008   -8.214451   -0.289884    1.590960
  16 H     1.0000    0     1.008   -5.187298    3.635077    2.694560
  17 H     1.0000    0     1.008    0.073321    4.409865    1.936402
  18 H     1.0000    0     1.008    5.321280    4.293080    0.797653
  19 H     1.0000    0     1.008    8.225033    0.739072   -1.376099
  20 H     1.0000    0     1.008    5.105851   -3.156976   -2.457400

--------------------------------
INTERNAL COORDINATES (ANGSTROEM)
--------------------------------
 F      0   0   0     0.000000000000     0.00000000     0.00000000
 B      1   0   0     1.376535019533     0.00000000     0.00000000
 F      2   1   0     1.376243615789   110.29406026     0.00000000
 N      2   1   3     1.550202909299   109.84982791   238.72415697
 C      4   2   1     1.326268015900   126.93907207    60.99412890
 C      5   4   2     1.402470488103   110.18918188   180.13309584
 C      6   5   4     1.375739997238   106.84597807     0.00000000
 C      4   2   1     1.379756025535   124.79903113   241.15269220
 C      8   4   2     1.385296119969   121.22602553   359.80772735
 C      9   8   4     1.385274113668   120.94371842   359.95940427
 C     10   9   8     1.416448661265   130.93802407   180.11762634
 C     11  10   9     1.375760451532   106.85983150   179.92876810
 C     12  11  10     1.402451546400   106.85166754     0.00000000
 N     13  12  11     1.326217124003   110.18131615     0.00000000
 H      5   4   2     1.073289289987   120.82385624     0.13474243
 H      6   5   4     1.071935212594   125.62583297   180.01280747
 H      7   6   5     1.072335717021   127.88448848   180.01249287
 H      9   8   4     1.079681666048   119.52822943   180.00689439
 H     11  10   9     1.072328778873   125.25342759   359.93001313
 H     12  11  10     1.071975983873   127.52685411   180.00199395
 H     13  12  11     1.073244454912   128.98922445   180.00373003

---------------------------
INTERNAL COORDINATES (A.U.)
---------------------------
 F      0   0   0     0.000000000000     0.00000000     0.00000000
 B      1   0   0     2.601274200669     0.00000000     0.00000000
 F      2   1   0     2.600723527399   110.29406026     0.00000000
 N      2   1   3     2.929458950584   109.84982791   238.72415697
 C      4   2   1     2.506283330231   126.93907207    60.99412890
 C      5   4   2     2.650285133422   110.18918188   180.13309584
 C      6   5   4     2.599771826261   106.84597807     0.00000000
 C      4   2   1     2.607361019889   124.79903113   241.15269220
 C      8   4   2     2.617830281124   121.22602553   359.80772735
 C      9   8   4     2.617788695244   120.94371842   359.95940427
 C     10   9   8     2.676700052551   130.93802407   180.11762634
 C     11  10   9     2.599810479276   106.85983150   179.92876810
 C     12  11  10     2.650249338791   106.85166754     0.00000000
 N     13  12  11     2.506187158483   110.18131615     0.00000000
 H      5   4   2     2.028222820546   120.82385624     0.13474243
 H      6   5   4     2.025663985110   125.62583297   180.01280747
 H      7   6   5     2.026420828793   127.88448848   180.01249287
 H      9   8   4     2.040302660646   119.52822943   180.00689439
 H     11  10   9     2.026407717593   125.25342759   359.93001313
 H     12  11  10     2.025741031660   127.52685411   180.00199395
 H     13  12  11     2.028138094534   128.98922445   180.00373003

---------------------
BASIS SET INFORMATION
---------------------
There are 5 groups of distinct atoms

 Group   1 Type F   : 19s6p3d2f contracted to 5s4p3d2f pattern {88111/3111/111/11}
 Group   2 Type B   : 19s6p3d2f contracted to 5s4p3d2f pattern {88111/3111/111/11}
 Group   3 Type N   : 19s6p3d2f contracted to 5s4p3d2f pattern {88111/3111/111/11}
 Group   4 Type C   : 19s6p3d2f contracted to 5s4p3d2f pattern {88111/3111/111/11}
 Group   5 Type H   : 5s2p1d contracted to 3s2p1d pattern {311/11/1}

Atom   0F    basis set group =>   1
Atom   1B    basis set group =>   2
Atom   2F    basis set group =>   1
Atom   3N    basis set group =>   3
Atom   4C    basis set group =>   4
Atom   5C    basis set group =>   4
Atom   6C    basis set group =>   4
Atom   7C    basis set group =>   4
Atom   8C    basis set group =>   4
Atom   9C    basis set group =>   4
Atom  10C    basis set group =>   4
Atom  11C    basis set group =>   4
Atom  12C    basis set group =>   4
Atom  13N    basis set group =>   3
Atom  14H    basis set group =>   5
Atom  15H    basis set group =>   5
Atom  16H    basis set group =>   5
Atom  17H    basis set group =>   5
Atom  18H    basis set group =>   5
Atom  19H    basis set group =>   5
Atom  20H    basis set group =>   5
---------------------------------
AUXILIARY/J BASIS SET INFORMATION
---------------------------------
There are 5 groups of distinct atoms

 Group   1 Type F   : 10s7p5d2f1g contracted to 10s7p5d2f1g pattern {1111111111/1111111/11111/11/1}
 Group   2 Type B   : 10s7p5d2f1g contracted to 10s7p5d2f1g pattern {1111111111/1111111/11111/11/1}
 Group   3 Type N   : 10s7p5d2f1g contracted to 10s7p5d2f1g pattern {1111111111/1111111/11111/11/1}
 Group   4 Type C   : 10s7p5d2f1g contracted to 10s7p5d2f1g pattern {1111111111/1111111/11111/11/1}
 Group   5 Type H   : 4s3p2d1f contracted to 4s3p2d1f pattern {1111/111/11/1}

Atom   0F    basis set group =>   1
Atom   1B    basis set group =>   2
Atom   2F    basis set group =>   1
Atom   3N    basis set group =>   3
Atom   4C    basis set group =>   4
Atom   5C    basis set group =>   4
Atom   6C    basis set group =>   4
Atom   7C    basis set group =>   4
Atom   8C    basis set group =>   4
Atom   9C    basis set group =>   4
Atom  10C    basis set group =>   4
Atom  11C    basis set group =>   4
Atom  12C    basis set group =>   4
Atom  13N    basis set group =>   3
Atom  14H    basis set group =>   5
Atom  15H    basis set group =>   5
Atom  16H    basis set group =>   5
Atom  17H    basis set group =>   5
Atom  18H    basis set group =>   5
Atom  19H    basis set group =>   5
Atom  20H    basis set group =>   5
---------------------------------
AUXILIARY/C BASIS SET INFORMATION
---------------------------------
There are 5 groups of distinct atoms

 Group   1 Type F   : 9s7p6d4f2g contracted to 9s7p6d4f2g pattern {111111111/1111111/111111/1111/11}
 Group   2 Type B   : 9s7p6d4f2g contracted to 9s7p6d4f2g pattern {111111111/1111111/111111/1111/11}
 Group   3 Type N   : 9s7p6d4f2g contracted to 9s7p6d4f2g pattern {111111111/1111111/111111/1111/11}
 Group   4 Type C   : 9s7p6d4f2g contracted to 9s7p6d4f2g pattern {111111111/1111111/111111/1111/11}
 Group   5 Type H   : 4s3p2d1f contracted to 4s3p2d1f pattern {1111/111/11/1}

Atom   0F    basis set group =>   1
Atom   1B    basis set group =>   2
Atom   2F    basis set group =>   1
Atom   3N    basis set group =>   3
Atom   4C    basis set group =>   4
Atom   5C    basis set group =>   4
Atom   6C    basis set group =>   4
Atom   7C    basis set group =>   4
Atom   8C    basis set group =>   4
Atom   9C    basis set group =>   4
Atom  10C    basis set group =>   4
Atom  11C    basis set group =>   4
Atom  12C    basis set group =>   4
Atom  13N    basis set group =>   3
Atom  14H    basis set group =>   5
Atom  15H    basis set group =>   5
Atom  16H    basis set group =>   5
Atom  17H    basis set group =>   5
Atom  18H    basis set group =>   5
Atom  19H    basis set group =>   5
Atom  20H    basis set group =>   5


           ************************************************************
           *        Program running with 4 parallel MPI-processes     *
           *              working on a common directory               *
           ************************************************************
------------------------------------------------------------------------------
                           ORCA GTO INTEGRAL CALCULATION
                           -- RI-GTO INTEGRALS CHOSEN --
------------------------------------------------------------------------------
------------------------------------------------------------------------------
                   ___                                                        
                  /   \      - P O W E R E D   B Y -                         
                 /     \                                                     
                 |  |  |   _    _      __       _____    __    __             
                 |  |  |  | |  | |    /  \     |  _  \  |  |  /  |          
                  \  \/   | |  | |   /    \    | | | |  |  | /  /          
                 / \  \   | |__| |  /  /\  \   | |_| |  |  |/  /          
                |  |  |   |  __  | /  /__\  \  |    /   |      \           
                |  |  |   | |  | | |   __   |  |    \   |  |\   \          
                \     /   | |  | | |  |  |  |  | |\  \  |  | \   \       
                 \___/    |_|  |_| |__|  |__|  |_| \__\ |__|  \__/        
                                                                              
                      - O R C A' S   B I G   F R I E N D -                    
                                      &                                       
                       - I N T E G R A L  F E E D E R -                       
                                                                              
 v1 FN, 2020, v2 2021                                                         
------------------------------------------------------------------------------


Reading SHARK input file m062x-train-1.SHARKINP.tmp ... ok
----------------------
SHARK INTEGRAL PACKAGE
----------------------

Number of atoms                             ...     21
Number of basis functions                   ...    826
Number of shells                            ...    322
Maximum angular momentum                    ...      3
Integral batch strategy                     ... SHARK/LIBINT Hybrid
RI-J (if used) integral strategy            ... SPLIT-RIJ (Revised 2003 algorithm where possible)
Printlevel                                  ...      1
Contraction scheme used                     ... PARTIAL GENERAL contraction
Coulomb Range Separation                    ... NOT USED
Exchange Range Separation                   ... NOT USED
Finite Nucleus Model                        ... NOT USED
Auxiliary Coulomb fitting basis             ... AVAILABLE
   # of basis functions in Aux-J            ...   1316
   # of shells in Aux-J                     ...    420
   Maximum angular momentum in Aux-J        ...      4
Auxiliary J/K fitting basis                 ... NOT available
Auxiliary Correlation fitting basis         ... AVAILABLE
   # of basis functions in Aux-C            ...   1694
   # of shells in Aux-C                     ...    462
   Maximum angular momentum in Aux-C        ...      4
Auxiliary 'external' fitting basis          ... NOT available
Integral threshold                          ...     2.500000e-11
Primitive cut-off                           ...     2.500000e-12
Primitive pair pre-selection threshold      ...     2.500000e-12

Calculating pre-screening integrals         ... done (  0.1 sec) Dimension = 322
Calculating pre-screening integrals (ORCA)  ... done (  0.3 sec) Dimension = 238
Organizing shell pair data                  ... done (  0.5 sec)
Shell pair information
Total number of shell pairs                 ...     52003
Shell pairs after pre-screening             ...     39352
Total number of primitive shell pairs       ...     66493
Primitive shell pairs kept                  ...     46476
          la=0 lb=0:   8957 shell pairs
          la=1 lb=0:   9791 shell pairs
          la=1 lb=1:   2253 shell pairs
          la=2 lb=0:   6709 shell pairs
          la=2 lb=1:   3092 shell pairs
          la=2 lb=2:   1100 shell pairs
          la=3 lb=0:   3972 shell pairs
          la=3 lb=1:   1814 shell pairs
          la=3 lb=2:   1273 shell pairs
          la=3 lb=3:    391 shell pairs

Calculating one electron integrals          ... done (  0.1 sec)
Calculating RI/J V-Matrix + Cholesky decomp.... done (  0.2 sec)
Calculating RI/C V-Matrix + Cholesky decomp.... done (  0.2 sec)
Calculating Nuclear repulsion               ... done (  0.0 sec) ENN=    866.723037408548 Eh

SHARK setup successfully completed in   2.2 seconds

Maximum memory used throughout the entire GTOINT-calculation: 59.3 MB


           ************************************************************
           *        Program running with 4 parallel MPI-processes     *
           *              working on a common directory               *
           ************************************************************
-------------------------------------------------------------------------------
                                 ORCA SCF
-------------------------------------------------------------------------------

------------
SCF SETTINGS
------------
Hamiltonian:
 Density Functional     Method          .... DFT(GTOs)
 Exchange Functional    Exchange        .... M062X
 Correlation Functional Correlation     .... M062X
 Gradients option       PostSCFGGA      .... off
 Hybrid DFT is turned on
   Fraction HF Exchange ScalHFX         ....  0.540000
   Scaling of DF-GGA-X  ScalDFX         ....  0.460000
   Scaling of DF-GGA-C  ScalDFC         ....  1.000000
   Scaling of DF-LDA-C  ScalLDAC        ....  1.000000
   Perturbative correction              ....  0.000000
   Density functional embedding theory  .... OFF
 RI-approximation to the Coulomb term is turned on
   Number of AuxJ basis functions       .... 1316
   RIJ-COSX (HFX calculated with COS-X)).... on


General Settings:
 Integral files         IntName         .... m062x-train-1
 Hartree-Fock type      HFTyp           .... RHF
 Total Charge           Charge          ....    0
 Multiplicity           Mult            ....    1
 Number of Electrons    NEL             ....   98
 Basis Dimension        Dim             ....  742
 Nuclear Repulsion      ENuc            ....    866.7230374085 Eh

Convergence Acceleration:
 DIIS                   CNVDIIS         .... on
   Start iteration      DIISMaxIt       ....    12
   Startup error        DIISStart       ....  0.200000
   # of expansion vecs  DIISMaxEq       ....     5
   Bias factor          DIISBfac        ....   1.050
   Max. coefficient     DIISMaxC        ....  10.000
 Trust-Rad. Augm. Hess. CNVTRAH         .... auto
   Auto Start mean grad. ratio tolernc. ....  1.125000
   Auto Start start iteration           ....    20
   Auto Start num. interpolation iter.  ....    10
   Max. Number of Micro iterations      ....    16
   Max. Number of Macro iterations      .... Maxiter - #DIIS iter
   Number of Davidson start vectors     ....     2
   Converg. threshold I  (grad. norm)   ....   1.000e-05
   Converg. threshold II (energy diff.) ....   1.000e-08
   Grad. Scal. Fac. for Micro threshold ....   0.100
   Minimum threshold for Micro iter.    ....   0.010
   NR start threshold (gradient norm)   ....   0.001
   Initial trust radius                 ....   0.400
   Minimum AH scaling param. (alpha)    ....   1.000
   Maximum AH scaling param. (alpha)    .... 1000.000
   Orbital update algorithm             .... Taylor
   White noise on init. David. guess    .... on
   Maximum white noise                  ....   0.010
   Quad. conv. algorithm                .... NR
 SOSCF                  CNVSOSCF        .... on
   Start iteration      SOSCFMaxIt      ....   150
   Startup grad/error   SOSCFStart      ....  0.003300
 Level Shifting         CNVShift        .... on
   Level shift para.    LevelShift      ....    0.2500
   Turn off err/grad.   ShiftErr        ....    0.0010
 Zerner damping         CNVZerner       .... off
 Static damping         CNVDamp         .... on
   Fraction old density DampFac         ....    0.7000
   Max. Damping (<1)    DampMax         ....    0.9800
   Min. Damping (>=0)   DampMin         ....    0.0000
   Turn off err/grad.   DampErr         ....    0.1000
 Fernandez-Rico         CNVRico         .... off

SCF Procedure:
 Maximum # iterations   MaxIter         ....   125
 SCF integral mode      SCFMode         .... Direct
   Integral package                     .... SHARK and LIBINT hybrid scheme
 Reset frequency        DirectResetFreq ....    20
 Integral Threshold     Thresh          ....  2.500e-11 Eh
 Primitive CutOff       TCut            ....  2.500e-12 Eh

Convergence Tolerance:
 Convergence Check Mode ConvCheckMode   .... Total+1el-Energy
 Convergence forced     ConvForced      .... 0
 Energy Change          TolE            ....  1.000e-08 Eh
 1-El. energy change                    ....  1.000e-05 Eh
 Orbital Gradient       TolG            ....  1.000e-05
 Orbital Rotation angle TolX            ....  1.000e-05
 DIIS Error             TolErr          ....  5.000e-07


Diagonalization of the overlap matrix:
Smallest eigenvalue                        ... 1.822e-06
Time for diagonalization                   ...    0.159 sec
Threshold for overlap eigenvalues          ... 1.000e-08
Number of eigenvalues below threshold      ... 0
Time for construction of square roots      ...    0.091 sec
Total time needed                          ...    0.254 sec

Time for model grid setup =    0.306 sec

------------------------------
INITIAL GUESS: MODEL POTENTIAL
------------------------------
Loading Hartree-Fock densities                     ... done
Calculating cut-offs                               ... done
Initializing the effective Hamiltonian             ... done
Setting up the integral package (SHARK)            ... done
Starting the Coulomb interaction                   ... done (   1.0 sec)
Reading the grid                                   ... done
Mapping shells                                     ... done
Starting the XC term evaluation                    ... done (   1.2 sec)
  promolecular density results
     # of electrons  =     97.997283186
     EX              =    -85.115693484
     EC              =     -3.322347427
     EX+EC           =    -88.438040911
Transforming the Hamiltonian                       ... done (   0.1 sec)
Diagonalizing the Hamiltonian                      ... done (   0.1 sec)
Back transforming the eigenvectors                 ... done (   0.0 sec)
Now organizing SCF variables                       ... done
                      ------------------
                      INITIAL GUESS DONE (   2.8 sec)
                      ------------------
-------------------
DFT GRID GENERATION
-------------------

General Integration Accuracy     IntAcc      ... 4.959
Radial Grid Type                 RadialGrid  ... OptM3 with GC (2021)
Angular Grid (max. ang.)         AngularGrid ... 6 (Lebedev-590)
Angular grid pruning method      GridPruning ... 4 (adaptive)
Weight generation scheme         WeightScheme... Becke
Basis function cutoff            BFCut       ... 1.0000e-11
Integration weight cutoff        WCut        ... 1.0000e-14
Angular grids for H and He will be reduced by one unit
Partially contracted basis set               ... off
Rotationally invariant grid construction     ... off

Total number of grid points                  ...   266857
Total number of batches                      ...     4180
Average number of points per batch           ...       63
Average number of grid points per atom       ...    12707
Time for grid setup =    4.388 sec

--------------------
COSX GRID GENERATION
--------------------

GRIDX 1
-------
General Integration Accuracy     IntAcc      ... 4.020
Radial Grid Type                 RadialGrid  ... OptM3 with GC (2021)
Angular Grid (max. ang.)         AngularGrid ... 2 (Lebedev-110)
Angular grid pruning method      GridPruning ... 4 (adaptive)
Weight generation scheme         WeightScheme... Becke
Basis function cutoff            BFCut       ... 1.0000e-11
Integration weight cutoff        WCut        ... 1.0000e-14
Angular grids for H and He will be reduced by one unit
Partially contracted basis set               ... on
Rotationally invariant grid construction     ... off

Total number of grid points                  ...    34307
Total number of batches                      ...      545
Average number of points per batch           ...       62
Average number of grid points per atom       ...     1634
UseSFitting                                  ... on

GRIDX 2
-------
General Integration Accuracy     IntAcc      ... 4.338
Radial Grid Type                 RadialGrid  ... OptM3 with GC (2021)
Angular Grid (max. ang.)         AngularGrid ... 3 (Lebedev-194)
Angular grid pruning method      GridPruning ... 4 (adaptive)
Weight generation scheme         WeightScheme... Becke
Basis function cutoff            BFCut       ... 1.0000e-11
Integration weight cutoff        WCut        ... 1.0000e-14
Angular grids for H and He will be reduced by one unit
Partially contracted basis set               ... on
Rotationally invariant grid construction     ... off

Total number of grid points                  ...    74089
Total number of batches                      ...     1168
Average number of points per batch           ...       63
Average number of grid points per atom       ...     3528
UseSFitting                                  ... on

GRIDX 3
-------
General Integration Accuracy     IntAcc      ... 4.871
Radial Grid Type                 RadialGrid  ... OptM3 with GC (2021)
Angular Grid (max. ang.)         AngularGrid ... 4 (Lebedev-302)
Angular grid pruning method      GridPruning ... 4 (adaptive)
Weight generation scheme         WeightScheme... Becke
Basis function cutoff            BFCut       ... 1.0000e-11
Integration weight cutoff        WCut        ... 1.0000e-14
Angular grids for H and He will be reduced by one unit
Partially contracted basis set               ... on
Rotationally invariant grid construction     ... off

Total number of grid points                  ...   134593
Total number of batches                      ...     2114
Average number of points per batch           ...       63
Average number of grid points per atom       ...     6409
UseSFitting                                  ... on

Time for X-Grid setup             =    6.016 sec


--------------------
CPCM SOLVATION MODEL
--------------------
CPCM parameters:
  Epsilon                                         ...       2.0165
  Refrac                                          ...       1.4266
  Rsolv                                           ...       1.3000
  Surface type                                    ... GAUSSIAN VDW
  Epsilon function type                           ...         CPCM
Solvent:                                     ... CYCLOHEXANE
SMD-CDS solvent descriptors:
  Soln                                       ...    1.4266
  Soln25                                     ...    1.4235
  Sola                                       ...    0.0000
  Solb                                       ...    0.0000
  Solg                                       ...   35.4800
  Solc                                       ...    0.0000
  Solh                                       ...    0.0000
Radii:
 Radius for F  used is    3.2692 Bohr (=   1.7300 Ang.)
 Radius for B  used is    3.6283 Bohr (=   1.9200 Ang.)
 Radius for N  used is    3.5716 Bohr (=   1.8900 Ang.)
 Radius for C  used is    3.4960 Bohr (=   1.8500 Ang.)
 Radius for H  used is    2.2677 Bohr (=   1.2000 Ang.)
Calculating surface                               ...        done! (  0.0s)
GEPOL surface points                              ...         1218
GEPOL Volume                                      ...    1223.4663
GEPOL Surface-area                                ...     700.3562
Calculating surface distance matrix               ...        done! (  0.0s)
Performing Cholesky decomposition & store         ...        done! (  0.1s)
Overall time for CPCM initialization              ...                 0.1s
 re-compute Schwartz prescreening matrix in partically contracted basis (1) ...done (   0.173 sec)
--------------
SCF ITERATIONS
--------------
ITER       Energy         Delta-E        Max-DP      RMS-DP      [F,P]     Damp
               ***  Starting incremental Fock matrix formation  ***
  0   -681.1245856500   0.000000000000 0.10058696  0.00120572  0.2139947 0.7000
  1   -681.2355528261  -0.110967176150 0.09793525  0.00096524  0.1065599 0.7000
                               ***Turning on DIIS***
  2   -681.2915263653  -0.055973539146 0.28619813  0.00236793  0.0453991 0.0000
  3   -681.3832330732  -0.091706707892 0.07245701  0.00051594  0.0470314 0.0000
  4   -681.3967417014  -0.013508628233 0.01861881  0.00017750  0.0070898 0.0000
  5   -681.3971134518  -0.000371750330 0.00629975  0.00004568  0.0035652 0.0000
                      *** Initiating the SOSCF procedure ***
                           *** Shutting down DIIS ***
                      *** Re-Reading the Fockian *** 
                      *** Removing any level shift *** 
ITER      Energy       Delta-E        Grad      Rot      Max-DP    RMS-DP
  6   -681.39716576  -0.0000523071  0.000624  0.000624  0.002702  0.000025
               *** Restarting incremental Fock matrix formation ***
  7   -681.39717742  -0.0000116603  0.000157  0.000491  0.003538  0.000042
  8   -681.39717773  -0.0000003150  0.000286  0.000519  0.000920  0.000010
  9   -681.39717941  -0.0000016752  0.000040  0.000137  0.001363  0.000010
 10   -681.39717942  -0.0000000083  0.000027  0.000043  0.000496  0.000004
                  ***Gradient check signals convergence***
              ***Rediagonalizing the Fockian in SOSCF/NRSCF***

               *****************************************************
               *                     SUCCESS                       *
               *           SCF CONVERGED AFTER  11 CYCLES          *
               *****************************************************

Old exchange energy                            =    -46.776569546 Eh
New exchange energy                            =    -46.776583528 Eh
Exchange energy change after final integration =     -0.000013981 Eh
Total energy after final integration           =   -681.397193434 Eh
Final COS-X integration done in                =    99.061 sec

SMD CDS free energy correction energy :                -4.44040     Kcal/mol
Total Energy after SMD CDS correction =              -681.404269654 Eh

----------------
TOTAL SCF ENERGY
----------------

Total Energy       :         -681.40426965 Eh          -18541.95283 eV

Components:
Nuclear Repulsion  :          866.72303741 Eh           23584.73287 eV
Electronic Energy  :        -1548.12730706 Eh          -42126.68570 eV
One Electron Energy:        -2650.98987293 Eh          -72137.10182 eV
Two Electron Energy:         1102.86256587 Eh           30010.41612 eV
Max COSX asymmetry :            0.00000392 Eh               0.00011 eV
CPCM Dielectric    :           -0.01058031 Eh              -0.28790 eV
SMD CDS (Gcds)     :           -0.00707622 Eh              -0.19255 eV

Virial components:
Potential Energy   :        -1359.57227938 Eh          -36995.84255 eV
Kinetic Energy     :          678.16800972 Eh           18453.88972 eV
Virial Ratio       :            2.00477206


DFT components:
N(Alpha)           :       49.000022214116 electrons
N(Beta)            :       49.000022214116 electrons
N(Total)           :       98.000044428231 electrons
E(XC)              :      -43.542873785075 Eh       
DFET-embed. en.    :        0.000000000000 Eh       
CPCM Solvation Model Properties:
Surface-charge          :           -0.04187308
Charge-correction       :            0.00003024 Eh               0.00082 eV
Free-energy (cav+disp)  :           -0.00707622 Eh              -0.19255 eV

---------------
SCF CONVERGENCE
---------------

  Last Energy change         ...   -3.5076e-08  Tolerance :   1.0000e-08
  Last MAX-Density change    ...    3.9968e-15  Tolerance :   1.0000e-07
  Last RMS-Density change    ...    2.1156e-17  Tolerance :   5.0000e-09
  Last Orbital Gradient      ...    2.1072e-06  Tolerance :   1.0000e-05
  Last Orbital Rotation      ...    1.0066e-05  Tolerance :   1.0000e-05

             **** THE GBW FILE WAS UPDATED (m062x-train-1.gbw) ****
             **** DENSITY m062x-train-1.scfp WAS UPDATED ****
             **** ENERGY FILE WAS UPDATED (m062x-train-1.en.tmp) ****
             **** THE GBW FILE WAS UPDATED (m062x-train-1.gbw) ****
             **** DENSITY m062x-train-1.scfp WAS UPDATED ****
----------------
ORBITAL ENERGIES
----------------

  NO   OCC          E(Eh)            E(eV) 
   0   2.0000     -25.195009      -685.5911 
   1   2.0000     -25.194871      -685.5873 
   2   2.0000     -14.788235      -402.4083 
   3   2.0000     -14.788226      -402.4081 
   4   2.0000     -10.599905      -288.4381 
   5   2.0000     -10.593930      -288.2755 
   6   2.0000     -10.593919      -288.2752 
   7   2.0000     -10.587090      -288.0894 
   8   2.0000     -10.587057      -288.0885 
   9   2.0000     -10.560567      -287.3676 
  10   2.0000     -10.560551      -287.3672 
  11   2.0000     -10.545708      -286.9633 
  12   2.0000     -10.545703      -286.9632 
  13   2.0000      -7.123755      -193.8472 
  14   2.0000      -1.323928       -36.0259 
  15   2.0000      -1.289961       -35.1016 
  16   2.0000      -1.121889       -30.5282 
  17   2.0000      -1.103213       -30.0200 
  18   2.0000      -0.927981       -25.2517 
  19   2.0000      -0.903146       -24.5759 
  20   2.0000      -0.889228       -24.1971 
  21   2.0000      -0.832645       -22.6574 
  22   2.0000      -0.766809       -20.8659 
  23   2.0000      -0.704088       -19.1592 
  24   2.0000      -0.686759       -18.6877 
  25   2.0000      -0.671950       -18.2847 
  26   2.0000      -0.666299       -18.1309 
  27   2.0000      -0.631237       -17.1768 
  28   2.0000      -0.605635       -16.4802 
  29   2.0000      -0.588859       -16.0237 
  30   2.0000      -0.582928       -15.8623 
  31   2.0000      -0.547397       -14.8954 
  32   2.0000      -0.539075       -14.6690 
  33   2.0000      -0.519349       -14.1322 
  34   2.0000      -0.515093       -14.0164 
  35   2.0000      -0.513213       -13.9652 
  36   2.0000      -0.507483       -13.8093 
  37   2.0000      -0.485465       -13.2102 
  38   2.0000      -0.474484       -12.9114 
  39   2.0000      -0.474354       -12.9078 
  40   2.0000      -0.469782       -12.7834 
  41   2.0000      -0.462562       -12.5869 
  42   2.0000      -0.455020       -12.3817 
  43   2.0000      -0.447083       -12.1658 
  44   2.0000      -0.423061       -11.5121 
  45   2.0000      -0.372055       -10.1241 
  46   2.0000      -0.334938        -9.1141 
  47   2.0000      -0.326876        -8.8947 
  48   2.0000      -0.268822        -7.3150 
  49   0.0000      -0.087690        -2.3862 
  50   0.0000      -0.000656        -0.0179 
  51   0.0000       0.008552         0.2327 
  52   0.0000       0.013191         0.3590 
  53   0.0000       0.019471         0.5298 
  54   0.0000       0.024936         0.6785 
  55   0.0000       0.025721         0.6999 
  56   0.0000       0.031014         0.8439 
  57   0.0000       0.044522         1.2115 
  58   0.0000       0.044683         1.2159 
  59   0.0000       0.048411         1.3173 
  60   0.0000       0.048539         1.3208 
  61   0.0000       0.049018         1.3338 
  62   0.0000       0.058105         1.5811 
  63   0.0000       0.059076         1.6075 
  64   0.0000       0.072716         1.9787 
  65   0.0000       0.072814         1.9814 
  66   0.0000       0.076674         2.0864 
  67   0.0000       0.082946         2.2571 
  68   0.0000       0.088457         2.4070 
  69   0.0000       0.088540         2.4093 
  70   0.0000       0.090274         2.4565 
  71   0.0000       0.101322         2.7571 
  72   0.0000       0.103470         2.8155 
  73   0.0000       0.104724         2.8497 
  74   0.0000       0.107061         2.9133 
  75   0.0000       0.111010         3.0207 
  76   0.0000       0.114615         3.1188 
  77   0.0000       0.118975         3.2375 
  78   0.0000       0.124344         3.3836 
  79   0.0000       0.125809         3.4234 
  80   0.0000       0.130394         3.5482 
  81   0.0000       0.133920         3.6442 
  82   0.0000       0.139390         3.7930 
  83   0.0000       0.141649         3.8545 
  84   0.0000       0.144473         3.9313 
  85   0.0000       0.149307         4.0629 
  86   0.0000       0.151157         4.1132 
  87   0.0000       0.156999         4.2722 
  88   0.0000       0.159200         4.3321 
  89   0.0000       0.162778         4.4294 
  90   0.0000       0.167264         4.5515 
  91   0.0000       0.170065         4.6277 
  92   0.0000       0.176870         4.8129 
  93   0.0000       0.183286         4.9875 
  94   0.0000       0.190798         5.1919 
  95   0.0000       0.191353         5.2070 
  96   0.0000       0.195973         5.3327 
  97   0.0000       0.197658         5.3785 
  98   0.0000       0.200964         5.4685 
  99   0.0000       0.212200         5.7743 
 100   0.0000       0.212809         5.7908 
 101   0.0000       0.216523         5.8919 
 102   0.0000       0.223000         6.0681 
 103   0.0000       0.228653         6.2220 
 104   0.0000       0.241450         6.5702 
 105   0.0000       0.241605         6.5744 
 106   0.0000       0.248197         6.7538 
 107   0.0000       0.254333         6.9208 
 108   0.0000       0.255863         6.9624 
 109   0.0000       0.259566         7.0631 
 110   0.0000       0.260874         7.0987 
 111   0.0000       0.263230         7.1628 
 112   0.0000       0.268890         7.3169 
 113   0.0000       0.275257         7.4901 
 114   0.0000       0.277586         7.5535 
 115   0.0000       0.281660         7.6644 
 116   0.0000       0.283245         7.7075 
 117   0.0000       0.287658         7.8276 
 118   0.0000       0.290943         7.9170 
 119   0.0000       0.294132         8.0037 
 120   0.0000       0.297779         8.1030 
 121   0.0000       0.305007         8.2997 
 122   0.0000       0.307664         8.3720 
 123   0.0000       0.314217         8.5503 
 124   0.0000       0.319397         8.6912 
 125   0.0000       0.325985         8.8705 
 126   0.0000       0.330887         9.0039 
 127   0.0000       0.332471         9.0470 
 128   0.0000       0.332660         9.0521 
 129   0.0000       0.337275         9.1777 
 130   0.0000       0.344154         9.3649 
 131   0.0000       0.351475         9.5641 
 132   0.0000       0.361466         9.8360 
 133   0.0000       0.362316         9.8591 
 134   0.0000       0.364143         9.9088 
 135   0.0000       0.371096        10.0980 
 136   0.0000       0.374602        10.1934 
 137   0.0000       0.378210        10.2916 
 138   0.0000       0.388058        10.5596 
 139   0.0000       0.389696        10.6042 
 140   0.0000       0.399625        10.8744 
 141   0.0000       0.401294        10.9198 
 142   0.0000       0.403047        10.9675 
 143   0.0000       0.411161        11.1882 
 144   0.0000       0.414048        11.2668 
 145   0.0000       0.418636        11.3917 
 146   0.0000       0.418784        11.3957 
 147   0.0000       0.420191        11.4340 
 148   0.0000       0.425776        11.5860 
 149   0.0000       0.433719        11.8021 
 150   0.0000       0.433894        11.8068 
 151   0.0000       0.434647        11.8273 
 152   0.0000       0.435731        11.8569 
 153   0.0000       0.440498        11.9865 
 154   0.0000       0.449558        12.2331 
 155   0.0000       0.455768        12.4021 
 156   0.0000       0.455993        12.4082 
 157   0.0000       0.462332        12.5807 
 158   0.0000       0.468934        12.7603 
 159   0.0000       0.475956        12.9514 
 160   0.0000       0.476125        12.9560 
 161   0.0000       0.479444        13.0463 
 162   0.0000       0.486163        13.2292 
 163   0.0000       0.489624        13.3234 
 164   0.0000       0.499051        13.5799 
 165   0.0000       0.499468        13.5912 
 166   0.0000       0.502429        13.6718 
 167   0.0000       0.503627        13.7044 
 168   0.0000       0.511211        13.9108 
 169   0.0000       0.512376        13.9425 
 170   0.0000       0.520926        14.1751 
 171   0.0000       0.525064        14.2877 
 172   0.0000       0.537866        14.6361 
 173   0.0000       0.540730        14.7140 
 174   0.0000       0.542911        14.7734 
 175   0.0000       0.544551        14.8180 
 176   0.0000       0.550921        14.9913 
 177   0.0000       0.556825        15.1520 
 178   0.0000       0.570888        15.5347 
 179   0.0000       0.573274        15.5996 
 180   0.0000       0.579287        15.7632 
 181   0.0000       0.584641        15.9089 
 182   0.0000       0.588939        16.0259 
 183   0.0000       0.589500        16.0411 
 184   0.0000       0.594052        16.1650 
 185   0.0000       0.609272        16.5791 
 186   0.0000       0.623088        16.9551 
 187   0.0000       0.625497        17.0207 
 188   0.0000       0.640835        17.4380 
 189   0.0000       0.643057        17.4985 
 190   0.0000       0.650984        17.7142 
 191   0.0000       0.652222        17.7479 
 192   0.0000       0.654883        17.8203 
 193   0.0000       0.670014        18.2320 
 194   0.0000       0.676825        18.4173 
 195   0.0000       0.679557        18.4917 
 196   0.0000       0.679715        18.4960 
 197   0.0000       0.686671        18.6853 
 198   0.0000       0.697335        18.9755 
 199   0.0000       0.699955        19.0468 
 200   0.0000       0.709266        19.3001 
 201   0.0000       0.710008        19.3203 
 202   0.0000       0.720095        19.5948 
 203   0.0000       0.723013        19.6742 
 204   0.0000       0.725408        19.7394 
 205   0.0000       0.731632        19.9087 
 206   0.0000       0.736276        20.0351 
 207   0.0000       0.737977        20.0814 
 208   0.0000       0.755519        20.5587 
 209   0.0000       0.760109        20.6836 
 210   0.0000       0.760692        20.6995 
 211   0.0000       0.760823        20.7031 
 212   0.0000       0.781662        21.2701 
 213   0.0000       0.786892        21.4124 
 214   0.0000       0.794203        21.6114 
 215   0.0000       0.796031        21.6611 
 216   0.0000       0.797359        21.6972 
 217   0.0000       0.797739        21.7076 
 218   0.0000       0.824872        22.4459 
 219   0.0000       0.827467        22.5165 
 220   0.0000       0.830182        22.5904 
 221   0.0000       0.834638        22.7117 
 222   0.0000       0.836672        22.7670 
 223   0.0000       0.850046        23.1309 
 224   0.0000       0.863887        23.5076 
 225   0.0000       0.865867        23.5614 
 226   0.0000       0.878606        23.9081 
 227   0.0000       0.879168        23.9234 
 228   0.0000       0.882686        24.0191 
 229   0.0000       0.895066        24.3560 
 230   0.0000       0.902776        24.5658 
 231   0.0000       0.903371        24.5820 
 232   0.0000       0.906325        24.6623 
 233   0.0000       0.921629        25.0788 
 234   0.0000       0.931085        25.3361 
 235   0.0000       0.931902        25.3583 
 236   0.0000       0.933769        25.4091 
 237   0.0000       0.943870        25.6840 
 238   0.0000       0.949364        25.8335 
 239   0.0000       0.949589        25.8396 
 240   0.0000       0.957579        26.0570 
 241   0.0000       0.967747        26.3337 
 242   0.0000       0.972913        26.4743 
 243   0.0000       0.977001        26.5855 
 244   0.0000       0.979716        26.6594 
 245   0.0000       0.987880        26.8816 
 246   0.0000       0.991946        26.9922 
 247   0.0000       0.995782        27.0966 
 248   0.0000       1.013258        27.5721 
 249   0.0000       1.019890        27.7526 
 250   0.0000       1.022357        27.8197 
 251   0.0000       1.028341        27.9826 
 252   0.0000       1.031860        28.0783 
 253   0.0000       1.034580        28.1524 
 254   0.0000       1.036062        28.1927 
 255   0.0000       1.046182        28.4681 
 256   0.0000       1.064303        28.9612 
 257   0.0000       1.071354        29.1530 
 258   0.0000       1.079552        29.3761 
 259   0.0000       1.087516        29.5928 
 260   0.0000       1.088226        29.6121 
 261   0.0000       1.097506        29.8646 
 262   0.0000       1.106779        30.1170 
 263   0.0000       1.111325        30.2407 
 264   0.0000       1.117058        30.3967 
 265   0.0000       1.123829        30.5809 
 266   0.0000       1.130241        30.7554 
 267   0.0000       1.134192        30.8629 
 268   0.0000       1.154159        31.4063 
 269   0.0000       1.161618        31.6092 
 270   0.0000       1.164277        31.6816 
 271   0.0000       1.173192        31.9242 
 272   0.0000       1.190495        32.3950 
 273   0.0000       1.192251        32.4428 
 274   0.0000       1.194100        32.4931 
 275   0.0000       1.201160        32.6852 
 276   0.0000       1.207123        32.8475 
 277   0.0000       1.222832        33.2749 
 278   0.0000       1.231949        33.5230 
 279   0.0000       1.239063        33.7166 
 280   0.0000       1.240791        33.7636 
 281   0.0000       1.248105        33.9627 
 282   0.0000       1.261336        34.3227 
 283   0.0000       1.268839        34.5269 
 284   0.0000       1.277077        34.7510 
 285   0.0000       1.288284        35.0560 
 286   0.0000       1.292763        35.1779 
 287   0.0000       1.298948        35.3462 
 288   0.0000       1.309312        35.6282 
 289   0.0000       1.309408        35.6308 
 290   0.0000       1.309472        35.6326 
 291   0.0000       1.326190        36.0875 
 292   0.0000       1.334298        36.3081 
 293   0.0000       1.340414        36.4745 
 294   0.0000       1.343354        36.5545 
 295   0.0000       1.345325        36.6082 
 296   0.0000       1.352903        36.8144 
 297   0.0000       1.357163        36.9303 
 298   0.0000       1.360830        37.0301 
 299   0.0000       1.364390        37.1269 
 300   0.0000       1.372685        37.3527 
 301   0.0000       1.389233        37.8029 
 302   0.0000       1.391627        37.8681 
 303   0.0000       1.399409        38.0799 
 304   0.0000       1.406530        38.2736 
 305   0.0000       1.410327        38.3770 
 306   0.0000       1.413158        38.4540 
 307   0.0000       1.429717        38.9046 
 308   0.0000       1.434637        39.0384 
 309   0.0000       1.446741        39.3678 
 310   0.0000       1.457024        39.6476 
 311   0.0000       1.459802        39.7232 
 312   0.0000       1.461764        39.7766 
 313   0.0000       1.469966        39.9998 
 314   0.0000       1.472802        40.0770 
 315   0.0000       1.476578        40.1797 
 316   0.0000       1.490832        40.5676 
 317   0.0000       1.493879        40.6505 
 318   0.0000       1.500156        40.8213 
 319   0.0000       1.520499        41.3749 
 320   0.0000       1.521052        41.3899 
 321   0.0000       1.528804        41.6009 
 322   0.0000       1.544694        42.0333 
 323   0.0000       1.545849        42.0647 
 324   0.0000       1.547129        42.0995 
 325   0.0000       1.552121        42.2354 
 326   0.0000       1.553741        42.2794 
[...]
B(  5-C ,  6-C ) :   1.3797 B(  5-C ,  7-C ) :   0.2302 B(  5-C , 15-H ) :   1.1083 
B(  6-C ,  7-C ) :   0.2941 B(  6-C , 16-H ) :   1.1952 B(  7-C ,  8-C ) :   0.3956 
B(  7-C ,  9-C ) :   0.3114 B(  7-C , 16-H ) :  -0.2455 B(  7-C , 17-H ) :  -0.2391 
B(  8-C ,  9-C ) :   0.3866 B(  8-C , 17-H ) :   1.4747 B(  9-C , 10-C ) :   0.2657 
B(  9-C , 11-C ) :   0.2220 B(  9-C , 12-C ) :  -0.1872 B(  9-C , 13-N ) :   0.7035 
B(  9-C , 17-H ) :  -0.2436 B(  9-C , 18-H ) :  -0.2511 B( 10-C , 11-C ) :   1.3796 
B( 10-C , 12-C ) :   0.1428 B( 10-C , 13-N ) :  -0.1028 B( 10-C , 18-H ) :   1.1979 
B( 11-C , 12-C ) :   0.8404 B( 11-C , 13-N ) :  -0.3280 B( 11-C , 19-H ) :   1.1060 
B( 12-C , 13-N ) :   1.3607 B( 12-C , 20-H ) :   0.9056 

-------
TIMINGS
-------

Total SCF time: 0 days 0 hours 4 min 48 sec 

Total time                  ....     288.019 sec
Sum of individual times     ....     283.818 sec  ( 98.5%)

Fock matrix formation       ....     268.547 sec  ( 93.2%)
  Split-RI-J                ....       6.914 sec  (  2.6% of F)
  Chain of spheres X        ....     217.939 sec  ( 81.2% of F)
  XC integration            ....      39.054 sec  ( 14.5% of F)
    Basis function eval.    ....       3.387 sec  (  8.7% of XC)
    Density eval.           ....      16.101 sec  ( 41.2% of XC)
    XC-Functional eval.     ....       0.486 sec  (  1.2% of XC)
    XC-Potential eval.      ....      18.647 sec  ( 47.7% of XC)
Diagonalization             ....       0.278 sec  (  0.1%)
Density matrix formation    ....       0.025 sec  (  0.0%)
Population analysis         ....       0.186 sec  (  0.1%)
Initial guess               ....       0.332 sec  (  0.1%)
Orbital Transformation      ....       0.000 sec  (  0.0%)
Orbital Orthonormalization  ....       0.282 sec  (  0.1%)
DIIS solution               ....       0.101 sec  (  0.0%)
SOSCF solution              ....       0.231 sec  (  0.1%)
Grid generation             ....      14.117 sec  (  4.9%)

Maximum memory used throughout the entire SCF-calculation: 191.9 MB


           ************************************************************
           *        Program running with 4 parallel MPI-processes     *
           *              working on a common directory               *
           ************************************************************
------------------------------------------------------------------------------
                        ORCA TD-DFT/TDA CALCULATION
------------------------------------------------------------------------------

Input orbitals are from        ... m062x-train-1_job2.gbw
CI-vector output               ... m062x-train-1_job2.cis
Tamm-Dancoff approximation     ... operative
CIS-Integral strategy          ... AO-integrals
Integral handling              ... AO integral Direct
Max. core memory used          ... 4000 MB
Reference state                ... RHF
Generation of triplets         ... off
Follow IRoot                   ... off
Number of operators            ... 1
Orbital ranges used for CIS calculation:
 Operator 0:  Orbitals  14... 48  to  49...741
XAS localization array:
 Operator 0:  Orbitals  -1... -1

-------------------
XC-INTEGRATION GRID
-------------------

General Integration Accuracy     IntAcc      ... 3.467
Radial Grid Type                 RadialGrid  ... OptM3 with GC (2021)
Angular Grid (max. ang.)         AngularGrid ... 3 (Lebedev-194)
Angular grid pruning method      GridPruning ... 4 (adaptive)
Weight generation scheme         WeightScheme... Becke
Basis function cutoff            BFCut       ... 1.0000e-11
Integration weight cutoff        WCut        ... 1.0000e-14
Angular grids for H and He will be reduced by one unit
Partially contracted basis set               ... off
Rotationally invariant grid construction     ... off

Total number of grid points                  ...    43769
Total number of batches                      ...      694
Average number of points per batch           ...       63
Average number of grid points per atom       ...     2084

---------------------
COSX-INTEGRATION GRID
---------------------

General Integration Accuracy     IntAcc      ... 3.067
Radial Grid Type                 RadialGrid  ... OptM3 with GC (2021)
Angular Grid (max. ang.)         AngularGrid ... 2 (Lebedev-110)
Angular grid pruning method      GridPruning ... 4 (adaptive)
Weight generation scheme         WeightScheme... Becke
Basis function cutoff            BFCut       ... 1.0000e-11
Integration weight cutoff        WCut        ... 1.0000e-14
Angular grids for H and He will be reduced by one unit
Partially contracted basis set               ... on
Rotationally invariant grid construction     ... off

Total number of grid points                  ...    19410
Total number of batches                      ...      315
Average number of points per batch           ...       61
Average number of grid points per atom       ...      924

---------------
TD-DFT XC SETUP
---------------

DFT calculation                         ... on
Name of the grid file                   ... m062x-train-1_job2.grid_cis.tmp
Exchange functional (TD-DFT)            ... M062X
Correlation functional (TD-DFT)         ... M062X
Hybrid DFT                              ... on
   Exchange mixing (TD-DFT)             ...  0.540
   GGA exch. scaling (TD-DFT)           ...  0.460
   GGA corr. scaling (TD-DFT)           ...  1.000

Building densities             ... done
Calculating rho(r) on the grid ... done
Building xc-kernel on the grid ... done
                    *** TD-DFT CALCULATION INITIALIZED ***

---------------------------------
    LR-CPCM (non-equilibrium)
---------------------------------

Setting up LR-CPCM             ... done

------------------------
DAVIDSON-DIAGONALIZATION
------------------------

Dimension of the eigenvalue problem            ...  24255
Number of roots to be determined               ...     10
Maximum size of the expansion space            ...     70
Maximum number of iterations                   ...    100
Convergence tolerance for the residual         ...    1.000e-06
Convergence tolerance for the energies         ...    1.000e-06
Orthogonality tolerance                        ...    1.000e-14
Level Shift                                    ...    0.000e+00
Constructing the preconditioner                ... o.k.
Building the initial guess                     ... o.k.
Number of trial vectors determined             ...     70


                       ****Iteration    0****

   Memory handling for direct AO based CIS:
   Memory per vector needed      ...    25 MB
   Memory needed                 ...   756 MB
   Memory available              ...  4000 MB
   Number of vectors per batch   ...   158
   Number of batches             ...     1
   Time for densities:            0.244
   Time for RI-J (Direct):        8.871
   Time for K (COSX):           112.906
   Time for XC-Integration:     156.524
   Time for LR-CPCM terms:       11.692
   Time for Sigma-Completion:     0.222
   Size of expansion space: 30
   Lowest Energy          :     0.137140377779
   Maximum Energy change  :     0.239124452724 (vector 9)
   Maximum residual norm  :     0.020059962106

                       ****Iteration    1****
   Time for densities:            0.086
   Time for RI-J (Direct):        5.748
   Time for K (COSX):            43.829
   Time for XC-Integration:      55.725
   Time for LR-CPCM terms:        5.593
   Time for Sigma-Completion:     0.062
   Size of expansion space: 40
   Lowest Energy          :     0.115270332528
   Maximum Energy change  :     0.021870045252 (vector 0)
   Maximum residual norm  :     0.001755383523

                       ****Iteration    2****
   Time for densities:            0.086
   Time for RI-J (Direct):        5.801
   Time for K (COSX):            45.911
   Time for XC-Integration:      58.949
   Time for LR-CPCM terms:        5.787
   Time for Sigma-Completion:     0.063
   Size of expansion space: 50
   Lowest Energy          :     0.114306885713
   Maximum Energy change  :     0.002483292183 (vector 4)
   Maximum residual norm  :     0.000107592569

                       ****Iteration    3****
   Time for densities:            0.089
   Time for RI-J (Direct):        6.036
   Time for K (COSX):            46.610
   Time for XC-Integration:      60.363
   Time for LR-CPCM terms:        5.771
   Time for Sigma-Completion:     0.063
   Size of expansion space: 60
   Lowest Energy          :     0.114275832621
   Maximum Energy change  :     0.000322576465 (vector 4)
   Maximum residual norm  :     0.000041236265

                       ****Iteration    4****
   Time for densities:            0.088
   Time for RI-J (Direct):        6.015
   Time for K (COSX):            46.674
   Time for XC-Integration:      60.994
   Time for LR-CPCM terms:        5.775
   Time for Sigma-Completion:     0.064
   Size of expansion space: 70
   Lowest Energy          :     0.114274784931
   Maximum Energy change  :     0.000074570253 (vector 7)
   Maximum residual norm  :     0.000004046638
   Rebuilding the expansion space

                       ****Iteration    5****
   Time for densities:            0.172
   Time for RI-J (Direct):        7.310
   Time for K (COSX):            79.581
   Time for XC-Integration:     115.190
   Time for LR-CPCM terms:        8.907
   Time for Sigma-Completion:     0.165
   Size of expansion space: 20
   Lowest Energy          :     0.114274730338
   Maximum Energy change  :     0.000005222871 (vector 7)
   Maximum residual norm  :     0.000000489814

      *** CONVERGENCE OF RESIDUAL NORM REACHED ***

Storing the converged CI vectors               ... m062x-train-1_job2.cis1

                 *** DAVIDSON DONE ***

Total time for solving the CIS problem:   969.658sec

------------------------------------
TD-DFT/TDA EXCITED STATES (SINGLETS)
------------------------------------

the weight of the individual excitations are printed if larger than 1.0e-02

STATE  1:  E=   0.114275 au      3.110 eV    25080.4 cm**-1 <S**2> =   0.000000
    47a ->  49a  :     0.024186 (c=  0.15551738)
    48a ->  49a  :     0.936389 (c= -0.96767192)

STATE  2:  E=   0.155327 au      4.227 eV    34090.3 cm**-1 <S**2> =   0.000000
    47a ->  49a  :     0.953365 (c=  0.97640401)
    48a ->  49a  :     0.023912 (c=  0.15463589)

STATE  3:  E=   0.164086 au      4.465 eV    36012.7 cm**-1 <S**2> =   0.000000
    46a ->  49a  :     0.969251 (c= -0.98450552)

STATE  4:  E=   0.203559 au      5.539 eV    44676.0 cm**-1 <S**2> =   0.000000
    48a ->  50a  :     0.899317 (c=  0.94832305)
    48a ->  55a  :     0.025335 (c= -0.15916866)
    48a ->  56a  :     0.036780 (c= -0.19178161)
    48a ->  72a  :     0.010128 (c=  0.10063820)

STATE  5:  E=   0.217105 au      5.908 eV    47649.0 cm**-1 <S**2> =   0.000000
    45a ->  49a  :     0.901859 (c= -0.94966277)
    48a ->  59a  :     0.033534 (c= -0.18312380)

STATE  6:  E=   0.221139 au      6.017 eV    48534.3 cm**-1 <S**2> =   0.000000
    48a ->  51a  :     0.942550 (c= -0.97085004)

STATE  7:  E=   0.224211 au      6.101 eV    49208.6 cm**-1 <S**2> =   0.000000
    48a ->  52a  :     0.883704 (c= -0.94005546)
    48a ->  56a  :     0.068530 (c= -0.26178217)

STATE  8:  E=   0.225583 au      6.138 eV    49509.7 cm**-1 <S**2> =   0.000000
    42a ->  49a  :     0.046973 (c=  0.21673348)
    44a ->  49a  :     0.912721 (c= -0.95536457)

STATE  9:  E=   0.227803 au      6.199 eV    49997.1 cm**-1 <S**2> =   0.000000
    48a ->  53a  :     0.937236 (c= -0.96810957)
    48a ->  60a  :     0.017919 (c= -0.13386234)
    48a ->  68a  :     0.010452 (c=  0.10223745)

STATE 10:  E=   0.234769 au      6.388 eV    51525.8 cm**-1 <S**2> =   0.000000
    48a ->  50a  :     0.061094 (c= -0.24717100)
    48a ->  52a  :     0.049380 (c=  0.22221514)
    48a ->  55a  :     0.348622 (c= -0.59044240)
    48a ->  56a  :     0.481150 (c= -0.69365004)


-----------------------------
TD-DFT/TDA-EXCITATION SPECTRA
-----------------------------

Center of mass = ( -0.0152, -0.6233, -0.3038)
Calculating the Dipole integrals                  ... done
Transforming integrals                            ... done
Calculating the Linear Momentum integrals         ... done
Transforming integrals                            ... done
Calculating angular momentum integrals            ... done
Transforming integrals                            ... done

-----------------------------------------------------------------------------
         ABSORPTION SPECTRUM VIA TRANSITION ELECTRIC DIPOLE MOMENTS
-----------------------------------------------------------------------------
State   Energy    Wavelength  fosc         T2        TX        TY        TZ  
        (cm-1)      (nm)                 (au**2)    (au)      (au)      (au) 
-----------------------------------------------------------------------------
   1   25080.4    398.7   0.901601847  11.83466   3.37923   0.21250  -0.60854
   2   34090.3    293.3   0.192985251   1.86367  -1.34103  -0.08880   0.23960
   3   36012.7    277.7   0.080805140   0.73868   0.00425   0.78919   0.34035
   4   44676.0    223.8   0.000014763   0.00011  -0.01028  -0.00043   0.00173
   5   47649.0    209.9   0.136452054   0.94276  -0.00783  -0.90215  -0.35892
   6   48534.3    206.0   0.010150914   0.06885  -0.04897   0.09511  -0.23960
   7   49208.6    203.2   0.000000768   0.00001  -0.00127  -0.00122   0.00143
   8   49509.7    202.0   0.000001112   0.00001   0.00200  -0.00138  -0.00122
   9   49997.1    200.0   0.000195183   0.00129  -0.03494  -0.00286   0.00751
  10   51525.8    194.1   0.000032349   0.00021  -0.01393  -0.00027   0.00354

-----------------------------------------------------------------------------
         ABSORPTION SPECTRUM VIA TRANSITION VELOCITY DIPOLE MOMENTS
-----------------------------------------------------------------------------
State   Energy    Wavelength   fosc        P2         PX        PY        PZ  
        (cm-1)      (nm)                 (au**2)     (au)      (au)      (au) 
-----------------------------------------------------------------------------
   1   25080.4    398.7   0.086819250   0.01488  -0.11988  -0.00786   0.02117
   2   34090.3    293.3   0.026376529   0.00615   0.07707   0.00498  -0.01345
   3   36012.7    277.7   0.002021064   0.00050   0.00054   0.02100   0.00748
   4   44676.0    223.8   0.000013391   0.00000   0.00199   0.00009  -0.00035
   5   47649.0    209.9   0.004133529   0.00135   0.00026   0.03414   0.01344
   6   48534.3    206.0   0.009618649   0.00319   0.01050  -0.02087   0.05143
   7   49208.6    203.2   0.000008430   0.00000   0.00154   0.00034  -0.00058
   8   49509.7    202.0   0.000001223   0.00000   0.00063   0.00011   0.00001
   9   49997.1    200.0   0.001740883   0.00059   0.02389   0.00179  -0.00458
  10   51525.8    194.1   0.000026158   0.00001   0.00294   0.00019  -0.00072

-------------------------------------------------------------------
                             CD SPECTRUM
-------------------------------------------------------------------
State  Energy     Wavelength     R         MX        MY        MZ   
       (cm-1)       (nm)     (1e40*cgs)   (au)      (au)      (au)  
-------------------------------------------------------------------
   1   25080.4    398.7      0.01696  -0.14166   0.29591  -0.68336
   2   34090.3    293.3      0.38366  -0.03587   0.07248  -0.17052
   3   36012.7    277.7     -0.10227  -0.00653  -0.00061   0.00086
   4   44676.0    223.8      0.01090   0.00240   0.10878   0.05435
   5   47649.0    209.9     -0.05300   0.00286  -0.00014   0.00060
   6   48534.3    206.0     -0.00222   0.16016   0.01083  -0.02841
   7   49208.6    203.2     -0.08293   0.00686   0.30937   0.14708
   8   49509.7    202.0      0.25968  -0.00288  -0.29789  -0.11952
   9   49997.1    200.0      0.11991   0.03794  -0.10495   0.17040
  10   51525.8    194.1     -0.04408  -0.00130  -0.09224  -0.03848

-------------------------------------------------------------------
         CD SPECTRUM VIA TRANSITION VELOCITY DIPOLE MOMENTS        
-------------------------------------------------------------------
State  Energy     Wavelength     R         MX        MY        MZ   
       (cm-1)       (nm)     (1e40*cgs)   (au)      (au)      (au)  
-------------------------------------------------------------------
   1   25080.4    398.7      0.78234  -0.14166   0.29591  -0.68336
   2   34090.3    293.3     -0.33635  -0.03587   0.07248  -0.17052
   3   36012.7    277.7     -0.02854  -0.00653  -0.00061   0.00086
   4   44676.0    223.8     -0.00980   0.00240   0.10878   0.05435
   5   47649.0    209.9      0.00881   0.00286  -0.00014   0.00060
   6   48534.3    206.0     -0.01025   0.16016   0.01083  -0.02841
   7   49208.6    203.2      0.06744   0.00686   0.30937   0.14708
   8   49509.7    202.0     -0.07202  -0.00288  -0.29789  -0.11952
   9   49997.1    200.0     -0.12762   0.03794  -0.10495   0.17040
  10   51525.8    194.1      0.01354  -0.00130  -0.09224  -0.03848

Total run time:      975.708 sec

           *** ORCA-CIS/TD-DFT FINISHED WITHOUT ERROR ***

Maximum memory used throughout the entire CIS-calculation: 739.6 MB

-----------------------
CIS/TD-DFT TOTAL ENERGY
-----------------------

    E(SCF)  =   -681.404903008 Eh
    DE(CIS) =      0.114274730 Eh (Root  1)
    ----------------------------- ---------
    E(tot)  =   -681.290628278 Eh


-------------------------   --------------------
FINAL SINGLE POINT ENERGY      -681.290628277695
-------------------------   --------------------


                            ***************************************
                            *     ORCA property calculations      *
                            ***************************************

                                    ---------------------
                                    Active property flags
                                    ---------------------
   (+) Dipole Moment


------------------------------------------------------------------------------
                       ORCA ELECTRIC PROPERTIES CALCULATION
------------------------------------------------------------------------------

Dipole Moment Calculation                       ... on
Quadrupole Moment Calculation                   ... off
Polarizability Calculation                      ... off
GBWName                                         ... m062x-train-1_job2.gbw
Electron density                                ... m062x-train-1_job2.scfp
The origin for moment calculation is the CENTER OF MASS  = (-0.015237, -0.623316 -0.303804)

-------------
DIPOLE MOMENT
-------------
                                X             Y             Z
Electronic contribution:     -0.17478      -7.29336      -3.52800
Nuclear contribution   :      0.22060       9.08995       4.42117
                        -----------------------------------------
Total Dipole Moment    :      0.04582       1.79659       0.89317
                        -----------------------------------------
Magnitude (a.u.)       :      2.00689
Magnitude (Debye)      :      5.10110



--------------------
Rotational spectrum 
--------------------
 
Rotational constants in cm-1:     0.043012     0.021682     0.015739 
Rotational constants in MHz :  1289.469337   650.018219   471.857232 

 Dipole components along the rotational axes: 
x,y,z [a.u.] :    -0.003588     2.005319     0.079188 
x,y,z [Debye]:    -0.009119     5.097117     0.201281 

 

Timings for individual modules:

Sum of individual times         ...     1268.873 sec (=  21.148 min)
GTO integral calculation        ...        3.551 sec (=   0.059 min)   0.3 %
SCF iterations                  ...      288.750 sec (=   4.813 min)  22.8 %
CIS module                      ...      976.571 sec (=  16.276 min)  77.0 %



                             ****ORCA TERMINATED NORMALLY****
TOTAL RUN TIME: 0 days 2 hours 30 minutes 34 seconds 560 msec
