
                                 *****************
                                 * O   R   C   A *
                                 *****************

                                            #,                                       
                                            ###                                      
                                            ####                                     
                                            #####                                    
                                            ######                                   
                                           ########,                                 
                                     ,,################,,,,,                         
                               ,,#################################,,                 
                          ,,##########################################,,             
                       ,#########################################, ''#####,          
                    ,#############################################,,   '####,        
                  ,##################################################,,,,####,       
                ,###########''''           ''''###############################       
              ,#####''   ,,,,##########,,,,          '''####'''          '####       
            ,##' ,,,,###########################,,,                        '##       
           ' ,,###''''                  '''############,,,                           
         ,,##''                                '''############,,,,        ,,,,,,###''
      ,#''                                            '''#######################'''  
     '                                                          ''''####''''         
             ,#######,   #######,   ,#######,      ##                                
            ,#'     '#,  ##    ##  ,#'     '#,    #''#        ######   ,####,        
            ##       ##  ##   ,#'  ##            #'  '#       #        #'  '#        
            ##       ##  #######   ##           ,######,      #####,   #    #        
            '#,     ,#'  ##    ##  '#,     ,#' ,#      #,         ##   #,  ,#        
             '#######'   ##     ##  '#######'  #'      '#     #####' # '####'        



                  #######################################################
                  #                        -***-                        #
                  #          Department of theory and spectroscopy      #
                  #    Directorship and core code : Frank Neese         #
                  #        Max Planck Institute fuer Kohlenforschung    #
                  #                Kaiser Wilhelm Platz 1               #
                  #                 D-45470 Muelheim/Ruhr               #
                  #                      Germany                        #
                  #                                                     #
                  #                  All rights reserved                #
                  #                        -***-                        #
                  #######################################################


                         Program Version 5.0.2 -  RELEASE  -


 With contributions from (in alphabetic order):
   Daniel Aravena         : Magnetic Suceptibility
   Michael Atanasov       : Ab Initio Ligand Field Theory (pilot matlab implementation)
   Alexander A. Auer      : GIAO ZORA, VPT2 properties, NMR spectrum
   Ute Becker             : Parallelization
   Giovanni Bistoni       : ED, misc. LED, open-shell LED, HFLD
   Martin Brehm           : Molecular dynamics
   Dmytro Bykov           : SCF Hessian
   Vijay G. Chilkuri      : MRCI spin determinant printing, contributions to CSF-ICE
   Dipayan Datta          : RHF DLPNO-CCSD density
   Achintya Kumar Dutta   : EOM-CC, STEOM-CC
   Dmitry Ganyushin       : Spin-Orbit,Spin-Spin,Magnetic field MRCI
   Miquel Garcia          : C-PCM and meta-GGA Hessian, CC/C-PCM, Gaussian charge scheme
   Yang Guo               : DLPNO-NEVPT2, F12-NEVPT2, CIM, IAO-localization
   Andreas Hansen         : Spin unrestricted coupled pair/coupled cluster methods
   Benjamin Helmich-Paris : MC-RPA, TRAH-SCF, COSX integrals
   Lee Huntington         : MR-EOM, pCC
   Robert Izsak           : Overlap fitted RIJCOSX, COSX-SCS-MP3, EOM
   Marcus Kettner         : VPT2
   Christian Kollmar      : KDIIS, OOCD, Brueckner-CCSD(T), CCSD density, CASPT2, CASPT2-K
   Simone Kossmann        : Meta GGA functionals, TD-DFT gradient, OOMP2, MP2 Hessian
   Martin Krupicka        : Initial AUTO-CI
   Lucas Lang             : DCDCAS
   Marvin Lechner         : AUTO-CI (C++ implementation), FIC-MRCC
   Dagmar Lenk            : GEPOL surface, SMD
   Dimitrios Liakos       : Extrapolation schemes; Compound Job, initial MDCI parallelization
   Dimitrios Manganas     : Further ROCIS development; embedding schemes
   Dimitrios Pantazis     : SARC Basis sets
   Anastasios Papadopoulos: AUTO-CI, single reference methods and gradients
   Taras Petrenko         : DFT Hessian,TD-DFT gradient, ASA, ECA, R-Raman, ABS, FL, XAS/XES, NRVS
   Peter Pinski           : DLPNO-MP2, DLPNO-MP2 Gradient
   Christoph Reimann      : Effective Core Potentials
   Marius Retegan         : Local ZFS, SOC
   Christoph Riplinger    : Optimizer, TS searches, QM/MM, DLPNO-CCSD(T), (RO)-DLPNO pert. Triples
   Tobias Risthaus        : Range-separated hybrids, TD-DFT gradient, RPA, STAB
   Michael Roemelt        : Original ROCIS implementation
   Masaaki Saitow         : Open-shell DLPNO-CCSD energy and density
   Barbara Sandhoefer     : DKH picture change effects
   Avijit Sen             : IP-ROCIS
   Kantharuban Sivalingam : CASSCF convergence, NEVPT2, FIC-MRCI
   Bernardo de Souza      : ESD, SOC TD-DFT
   Georgi Stoychev        : AutoAux, RI-MP2 NMR, DLPNO-MP2 response
   Willem Van den Heuvel  : Paramagnetic NMR
   Boris Wezisla          : Elementary symmetry handling
   Frank Wennmohs         : Technical directorship


 We gratefully acknowledge several colleagues who have allowed us to
 interface, adapt or use parts of their codes:
   Stefan Grimme, W. Hujo, H. Kruse, P. Pracht,  : VdW corrections, initial TS optimization,
                  C. Bannwarth, S. Ehlert          DFT functionals, gCP, sTDA/sTD-DF
   Ed Valeev, F. Pavosevic, A. Kumar             : LibInt (2-el integral package), F12 methods
   Garnet Chan, S. Sharma, J. Yang, R. Olivares  : DMRG
   Ulf Ekstrom                                   : XCFun DFT Library
   Mihaly Kallay                                 : mrcc  (arbitrary order and MRCC methods)
   Jiri Pittner, Ondrej Demel                    : Mk-CCSD
   Frank Weinhold                                : gennbo (NPA and NBO analysis)
   Christopher J. Cramer and Donald G. Truhlar   : smd solvation model
   Lars Goerigk                                  : TD-DFT with DH, B97 family of functionals
   V. Asgeirsson, H. Jonsson                     : NEB implementation
   FAccTs GmbH                                   : IRC, NEB, NEB-TS, DLPNO-Multilevel, CI-OPT
                                                   MM, QMMM, 2- and 3-layer-ONIOM, Crystal-QMMM,
                                                   LR-CPCM, SF, NACMEs, symmetry and pop. for TD-DFT,
                                                   nearIR, NL-DFT gradient (VV10), updates on ESD,
                                                   ML-optimized integration grids
   S Lehtola, MJT Oliveira, MAL Marques          : LibXC Library
   Liviu Ungur et al                             : ANISO software


 Your calculation uses the libint2 library for the computation of 2-el integrals
 For citations please refer to: http://libint.valeyev.net

 Your ORCA version has been built with support for libXC version: 5.1.0
 For citations please refer to: https://tddft.org/programs/libxc/

 This ORCA versions uses:
   CBLAS   interface :  Fast vector & matrix operations
   LAPACKE interface :  Fast linear algebra routines
   SCALAPACK package :  Parallel linear algebra routines
   Shared memory     :  Shared parallel matrices
   BLAS/LAPACK       :  OpenBLAS 0.3.15  USE64BITINT DYNAMIC_ARCH NO_AFFINITY Haswell SINGLE_THREADED
        Core in use  :  Haswell
   Copyright (c) 2011-2014, The OpenBLAS Project


Your calculation utilizes the atom-pairwise dispersion correction
with the Becke-Johnson damping scheme (D3BJ)
Cite in your paper:
S.Grimme, S.Ehrlich, L.Goerigk, J Comput Chem, (2011), 32, 1456–1465 
S.Grimme, J.Antony, S.Ehrlich and H.Krieg, J.Chem.Phys., 132, (2010), 154104 
   

Your calculation utilizes the SMD solvation module
Please cite in your paper:
A.V. Marenich, C.J. Cramer, D.G. Truhlar J. Phys. Chem. B, 113, (2009), 6378 

================================================================================

----- Orbital basis set information -----
Your calculation utilizes the basis: aug-cc-pVTZ 
    H, B-Ne : Obtained from the ccRepo (grant-hill.group.shef.ac.uk/ccrepo) Feb. 2017
              R. A. Kendall, T. H. Dunning, Jr., R. J. Harrison, J. Chem. Phys. 96, 6796 (1992)
         He : Obtained from the ccRepo (grant-hill.group.shef.ac.uk/ccrepo) Feb. 2017
              D. E. Woon, T. H. Dunning, Jr., J. Chem. Phys. 100, 2975 (1994)
  Li-Be, Na : Obtained from the ccRepo (grant-hill.group.shef.ac.uk/ccrepo) Feb. 2017
              B. P. Prascher, D. E. Woon, K. A. Peterson, T. H. Dunning, Jr., A. K. Wilson, Theor. Chem. Acc. 128, 69 (2011)
         Mg : Obtained from the Peterson Research Group Website (tyr0.chem.wsu.edu/~kipeters) Feb. 2017
              B. P. Prascher, D. E. Woon, K. A. Peterson, T. H. Dunning, Jr., A. K. Wilson, Theor. Chem. Acc. 128, 69 (2011)
      Al-Ar : Obtained from the ccRepo (grant-hill.group.shef.ac.uk/ccrepo) Feb. 2017
              D. E. Woon, T. H. Dunning, Jr., J. Chem. Phys. 98, 1358 (1993)
      Sc-Zn : Obtained from the ccRepo (grant-hill.group.shef.ac.uk/ccrepo) Feb. 2017
              N. B. Balabanov, K. A. Peterson, J. Chem. Phys. 123, 064107 (2005)
              N. B. Balabanov, K. A. Peterson, J. Chem. Phys. 125, 074110 (2006)
      Ga-Kr : Obtained from the ccRepo (grant-hill.group.shef.ac.uk/ccrepo) Feb. 2017
              A. K. Wilson, D. E. Woon, K. A. Peterson, T. H. Dunning, Jr., J. Chem. Phys. 110, 7667 (1999)
     Ag, Au : Obtained from the Peterson Research Group Website (tyr0.chem.wsu.edu/~kipeters) Feb. 2017
              K. A. Peterson, C. Puzzarini, Theor. Chem. Acc. 114, 283 (2005)

The basis set includes element-specific modifications.

Your calculation utilizes the basis: cc-pVTZ 
       H, B-Ne : Obtained from the ccRepo (grant-hill.group.shef.ac.uk/ccrepo) Feb. 2017
                 T. H. Dunning, Jr., J. Chem. Phys. 90, 1007 (1989)
            He : Obtained from the ccRepo (grant-hill.group.shef.ac.uk/ccrepo) Feb. 2017
                 D. E. Woon, T. H. Dunning, Jr., J. Chem. Phys. 100, 2975 (1994)
  Li-Be, Na-Mg : Obtained from the ccRepo (grant-hill.group.shef.ac.uk/ccrepo) Feb. 2017
                 B. P. Prascher, D. E. Woon, K. A. Peterson, T. H. Dunning, Jr., A. K. Wilson, Theor. Chem. Acc. 128, 69 (2011)
         Al-Ar : Obtained from the ccRepo (grant-hill.group.shef.ac.uk/ccrepo) Feb. 2017
                 D. E. Woon, T. H. Dunning, Jr., J. Chem. Phys. 98, 1358 (1993)
            Ca : Obtained from the Peterson Research Group Website (tyr0.chem.wsu.edu/~kipeters) Feb. 2017
                 J. Koput, K. A. Peterson, J. Phys. Chem. 106, 9595 (2002)
         Sc-Zn : Obtained from the ccRepo (grant-hill.group.shef.ac.uk/ccrepo) Feb. 2017
                 N. B. Balabanov, K. A. Peterson, J. Chem. Phys. 123, 064107 (2005)
                 N. B. Balabanov, K. A. Peterson, J. Chem. Phys. 125, 074110 (2006)
         Ga-Kr : Obtained from the ccRepo (grant-hill.group.shef.ac.uk/ccrepo) Feb. 2017
                 A. K. Wilson, D. E. Woon, K. A. Peterson, T. H. Dunning, Jr., J. Chem. Phys. 110, 7667 (1999)
             Y : Obtained from the ccRepo (grant-hill.group.shef.ac.uk/ccrepo) Feb. 2017
                 K. A. Peterson, D. Figgen, M. Dolg, H. Stoll, J. Chem. Phys. 126, 124101 (2007)
        Ag, Au : Obtained from the Peterson Research Group Website (tyr0.chem.wsu.edu/~kipeters) Feb. 2017
                 K. A. Peterson, C. Puzzarini, Theor. Chem. Acc. 114, 283 (2005)

----- AuxJ basis set information -----
Your calculation utilizes the auxiliary basis: aug-cc-pVTZ/JK 
  H, B-F, Al-Cl, Ga-Br : Obtained from the TURBOMOLE 7.0 basis set library

The basis set includes element-specific modifications.

Your calculation utilizes the auxiliary basis: cc-pVTZ/JK 
  H, B-F, Al-Cl, Ga-Br : Obtained from the TURBOMOLE 7.0 basis set library

----- AuxC basis set information -----
Your calculation utilizes the auxiliary basis: aug-cc-pVTZ/C 
  H-He, B-F, Al-Ar, Ga-Kr : Obtained from the EMSL Basis Set Exchange (bse.pnl.gov) Feb. 2017
                            F. Weigend, A. Kohn, C. Hattig, J. Chem. Phys. 116, 3175 (2002)
                   Be, Mg : Obtained from the TURBOMOLE 7.0 basis set library
                            C. Haettig, Phys. Chem. Chem. Phys. 7, 59 (2005)
                       Ne : Obtained from the EMSL Basis Set Exchange (bse.pnl.gov) Feb. 2017
                            C. Haettig, Phys. Chem. Chem. Phys. 7, 59 (2005)
                            F. Weigend, A. Kohn, C. Hattig, J. Chem. Phys. 116, 3175 (2002)
                    Sc-Zn : Obtained from the EMSL Basis Set Exchange (bse.pnl.gov) Feb. 2017
                            J. G. Hill, J. A. Platts, J. Chem. Phys. 128, 044104 (2008)

The basis set includes element-specific modifications.

Your calculation utilizes the auxiliary basis: cc-pVTZ/C 
  Obtained from the EMSL Basis Set Exchange (bse.pnl.gov) Feb. 2017
  H-He, B-F, Al-Ar, Ga-Kr : F. Weigend, A. Kohn, C. Hattig, J. Chem. Phys. 116, 3175 (2002)
             Li-Be, Na-Mg : C. Haettig, Phys. Chem. Chem. Phys. 7, 59 (2005)
                       Ne : C. Haettig, Phys. Chem. Chem. Phys. 7, 59 (2005)
                            F. Weigend, A. Kohn, C. Hattig, J. Chem. Phys. 116, 3175 (2002)
                    Sc-Zn : J. G. Hill, J. A. Platts, J. Chem. Phys. 128, 044104 (2008)

================================================================================
                                        WARNINGS
                       Please study these warnings very carefully!
================================================================================


WARNING: Geometry Optimization
  ===> : Switching off AutoStart
         For restart on a previous wavefunction, please use MOREAD

INFO   : the flag for use of the SHARK integral package has been found!



***************************************
The coordinates will be read from file: 
***************************************


Your calculation utilizes the atom-pairwise dispersion correction
with the Becke-Johnson damping scheme (D3BJ)
Cite in your paper:
S.Grimme, S.Ehrlich, L.Goerigk, J Comput Chem, (2011), 32, 1456–1465 
S.Grimme, J.Antony, S.Ehrlich and H.Krieg, J.Chem.Phys., 132, (2010), 154104 
   

Your calculation utilizes the SMD solvation module
Please cite in your paper:
A.V. Marenich, C.J. Cramer, D.G. Truhlar J. Phys. Chem. B, 113, (2009), 6378 

================================================================================

----- Orbital basis set information -----
Your calculation utilizes the basis: aug-cc-pVTZ 
    H, B-Ne : Obtained from the ccRepo (grant-hill.group.shef.ac.uk/ccrepo) Feb. 2017
              R. A. Kendall, T. H. Dunning, Jr., R. J. Harrison, J. Chem. Phys. 96, 6796 (1992)
         He : Obtained from the ccRepo (grant-hill.group.shef.ac.uk/ccrepo) Feb. 2017
              D. E. Woon, T. H. Dunning, Jr., J. Chem. Phys. 100, 2975 (1994)
  Li-Be, Na : Obtained from the ccRepo (grant-hill.group.shef.ac.uk/ccrepo) Feb. 2017
              B. P. Prascher, D. E. Woon, K. A. Peterson, T. H. Dunning, Jr., A. K. Wilson, Theor. Chem. Acc. 128, 69 (2011)
         Mg : Obtained from the Peterson Research Group Website (tyr0.chem.wsu.edu/~kipeters) Feb. 2017
              B. P. Prascher, D. E. Woon, K. A. Peterson, T. H. Dunning, Jr., A. K. Wilson, Theor. Chem. Acc. 128, 69 (2011)
      Al-Ar : Obtained from the ccRepo (grant-hill.group.shef.ac.uk/ccrepo) Feb. 2017
              D. E. Woon, T. H. Dunning, Jr., J. Chem. Phys. 98, 1358 (1993)
      Sc-Zn : Obtained from the ccRepo (grant-hill.group.shef.ac.uk/ccrepo) Feb. 2017
              N. B. Balabanov, K. A. Peterson, J. Chem. Phys. 123, 064107 (2005)
              N. B. Balabanov, K. A. Peterson, J. Chem. Phys. 125, 074110 (2006)
      Ga-Kr : Obtained from the ccRepo (grant-hill.group.shef.ac.uk/ccrepo) Feb. 2017
              A. K. Wilson, D. E. Woon, K. A. Peterson, T. H. Dunning, Jr., J. Chem. Phys. 110, 7667 (1999)
     Ag, Au : Obtained from the Peterson Research Group Website (tyr0.chem.wsu.edu/~kipeters) Feb. 2017
              K. A. Peterson, C. Puzzarini, Theor. Chem. Acc. 114, 283 (2005)

The basis set includes element-specific modifications.

Your calculation utilizes the basis: cc-pVTZ 
       H, B-Ne : Obtained from the ccRepo (grant-hill.group.shef.ac.uk/ccrepo) Feb. 2017
                 T. H. Dunning, Jr., J. Chem. Phys. 90, 1007 (1989)
            He : Obtained from the ccRepo (grant-hill.group.shef.ac.uk/ccrepo) Feb. 2017
                 D. E. Woon, T. H. Dunning, Jr., J. Chem. Phys. 100, 2975 (1994)
  Li-Be, Na-Mg : Obtained from the ccRepo (grant-hill.group.shef.ac.uk/ccrepo) Feb. 2017
                 B. P. Prascher, D. E. Woon, K. A. Peterson, T. H. Dunning, Jr., A. K. Wilson, Theor. Chem. Acc. 128, 69 (2011)
         Al-Ar : Obtained from the ccRepo (grant-hill.group.shef.ac.uk/ccrepo) Feb. 2017
                 D. E. Woon, T. H. Dunning, Jr., J. Chem. Phys. 98, 1358 (1993)
            Ca : Obtained from the Peterson Research Group Website (tyr0.chem.wsu.edu/~kipeters) Feb. 2017
                 J. Koput, K. A. Peterson, J. Phys. Chem. 106, 9595 (2002)
         Sc-Zn : Obtained from the ccRepo (grant-hill.group.shef.ac.uk/ccrepo) Feb. 2017
                 N. B. Balabanov, K. A. Peterson, J. Chem. Phys. 123, 064107 (2005)
                 N. B. Balabanov, K. A. Peterson, J. Chem. Phys. 125, 074110 (2006)
         Ga-Kr : Obtained from the ccRepo (grant-hill.group.shef.ac.uk/ccrepo) Feb. 2017
                 A. K. Wilson, D. E. Woon, K. A. Peterson, T. H. Dunning, Jr., J. Chem. Phys. 110, 7667 (1999)
             Y : Obtained from the ccRepo (grant-hill.group.shef.ac.uk/ccrepo) Feb. 2017
                 K. A. Peterson, D. Figgen, M. Dolg, H. Stoll, J. Chem. Phys. 126, 124101 (2007)
        Ag, Au : Obtained from the Peterson Research Group Website (tyr0.chem.wsu.edu/~kipeters) Feb. 2017
                 K. A. Peterson, C. Puzzarini, Theor. Chem. Acc. 114, 283 (2005)

----- AuxJ basis set information -----
Your calculation utilizes the auxiliary basis: aug-cc-pVTZ/JK 
  H, B-F, Al-Cl, Ga-Br : Obtained from the TURBOMOLE 7.0 basis set library

The basis set includes element-specific modifications.

Your calculation utilizes the auxiliary basis: cc-pVTZ/JK 
  H, B-F, Al-Cl, Ga-Br : Obtained from the TURBOMOLE 7.0 basis set library

----- AuxC basis set information -----
Your calculation utilizes the auxiliary basis: aug-cc-pVTZ/C 
  H-He, B-F, Al-Ar, Ga-Kr : Obtained from the EMSL Basis Set Exchange (bse.pnl.gov) Feb. 2017
                            F. Weigend, A. Kohn, C. Hattig, J. Chem. Phys. 116, 3175 (2002)
                   Be, Mg : Obtained from the TURBOMOLE 7.0 basis set library
                            C. Haettig, Phys. Chem. Chem. Phys. 7, 59 (2005)
                       Ne : Obtained from the EMSL Basis Set Exchange (bse.pnl.gov) Feb. 2017
                            C. Haettig, Phys. Chem. Chem. Phys. 7, 59 (2005)
                            F. Weigend, A. Kohn, C. Hattig, J. Chem. Phys. 116, 3175 (2002)
                    Sc-Zn : Obtained from the EMSL Basis Set Exchange (bse.pnl.gov) Feb. 2017
                            J. G. Hill, J. A. Platts, J. Chem. Phys. 128, 044104 (2008)

The basis set includes element-specific modifications.

Your calculation utilizes the auxiliary basis: cc-pVTZ/C 
  Obtained from the EMSL Basis Set Exchange (bse.pnl.gov) Feb. 2017
  H-He, B-F, Al-Ar, Ga-Kr : F. Weigend, A. Kohn, C. Hattig, J. Chem. Phys. 116, 3175 (2002)
             Li-Be, Na-Mg : C. Haettig, Phys. Chem. Chem. Phys. 7, 59 (2005)
                       Ne : C. Haettig, Phys. Chem. Chem. Phys. 7, 59 (2005)
                            F. Weigend, A. Kohn, C. Hattig, J. Chem. Phys. 116, 3175 (2002)
                    Sc-Zn : J. G. Hill, J. A. Platts, J. Chem. Phys. 128, 044104 (2008)

================================================================================
                                        WARNINGS
                       Please study these warnings very carefully!
================================================================================

INFO   : Checking CIS options ...
  ===> : (D) CORRECTION FOUND - SETTING MODE=3
  ===> : JK MODE FOUND - ACTIVATING RI-MP2 CODE
  ===> : MP2 AND CIS FOUND - CHECKING
WARNING: CIS(D) and MP2 runs must have the same orbital window
  ===> : adjusting orbital windows

WARNING: No MP2 level density has been requested!
         To caclulate MP2 level properties use
         %mp2 Density relaxed end
         or
         %mp2 Density unrelaxed end
         Otherwise for double-hybrid DFT only the energy is correct!

WARNING: The frozen-core approximation is turned on by default for 
         the MP2 part of double-hybrid DFT.

WARNING:  You are using a Range-Separated Double Hybrid functional with Doubles Correction 
          Changing Mode to AOINTS 


INFO   : the flag for use of the SHARK integral package has been found!

================================================================================
                                       INPUT FILE
================================================================================
NAME = optpbed3-wb2plyp-train-1.inp
|  1> ! pbe0 d3bj aug-cc-PVTZ RIJCOSX Opt
|  2> %maxcore 4000
|  3> %basis
|  4>  AuxJ "aug-cc-PVTZ/JK"
|  5>  AuxC "aug-cc-PVTZ/C"
|  6>  newGTO H "cc-PVTZ" end
|  7>  newAuxJGTO H "cc-PVTZ/JK" end
|  8>  newAuxCGTO H "cc-PVTZ/C" end
|  9> end
| 10> %cpcm
| 11>  SMD true
| 12>  SMDsolvent "cyclohexane"
| 13> end
| 14> %pal nprocs 4 end
| 15> * xyz 0 1
| 16> F         -0.24810       -1.64740       -1.94630
| 17> B         -0.02410       -1.38450       -0.61380
| 18> F          0.17410       -2.55790        0.07750
| 19> N         -1.23320       -0.61900       -0.01780
| 20> C         -2.48730       -1.04400        0.05700
| 21> C         -3.29420       -0.06750        0.65890
| 22> C         -2.47560        0.99680        0.95860
| 23> C         -1.17200        0.64600        0.52970
| 24> C          0.02230        1.34530        0.59030
| 25> C          1.19590        0.79430        0.10240
| 26> C          2.51470        1.30920        0.05800
| 27> C          3.29980        0.34520       -0.53110
| 28> C          2.45810       -0.73450       -0.83550
| 29> N          1.21500       -0.46570       -0.45960
| 30> H         -2.76280       -2.01260       -0.31430
| 31> H         -4.34690       -0.15340        0.84190
| 32> H         -2.74500        1.92360        1.42590
| 33> H          0.03880        2.33360        1.02470
| 34> H          2.81590        2.27180        0.42210
| 35> H          4.35250        0.39110       -0.72820
| 36> H          2.70190       -1.67060       -1.30040
| 37> *
| 38> 
| 39> 
| 40> $new_job
| 41> ! wb2plyp aug-cc-PVTZ RIJCOSX SP
| 42> %maxcore 4000
| 43> %basis
| 44>  AuxJ "aug-cc-PVTZ/JK"
| 45>  AuxC "aug-cc-PVTZ/C"
| 46>  newGTO H "cc-PVTZ" end
| 47>  newAuxJGTO H "cc-PVTZ/JK" end
| 48>  newAuxCGTO H "cc-PVTZ/C" end
| 49> end
| 50> %cpcm
| 51>  SMD true
| 52>  SMDsolvent "cyclohexane"
| 53> end
| 54> %pal nprocs 4 end
| 55> %tddft
| 56>  nroots 10
| 57>  maxdim 7
| 58> end
| 59> * xyzfile 0 1
| 60> 
| 61>                          ****END OF INPUT****
================================================================================


                 $$$$$$$$$$$$$$$$$$$$$$$$$$$$$$$$$$$$$$$$$$$$$$ 
                 $ THERE ARE  2 JOBS TO BE PROCESSED THIS RUN $
                 $$$$$$$$$$$$$$$$$$$$$$$$$$$$$$$$$$$$$$$$$$$$$$ 




                 $$$$$$$$$$$$$$$$  JOB NUMBER  1 $$$$$$$$$$$$$$


                       *****************************
                       * Geometry Optimization Run *
                       *****************************

Geometry optimization settings:
Update method            Update   .... BFGS
Choice of coordinates    CoordSys .... Z-matrix Internals
Initial Hessian          InHess   .... Almoef's Model

Convergence Tolerances:
Energy Change            TolE     ....  5.0000e-06 Eh
Max. Gradient            TolMAXG  ....  3.0000e-04 Eh/bohr
RMS Gradient             TolRMSG  ....  1.0000e-04 Eh/bohr
Max. Displacement        TolMAXD  ....  4.0000e-03 bohr
RMS Displacement         TolRMSD  ....  2.0000e-03 bohr
Strict Convergence                ....  False
------------------------------------------------------------------------------
                        ORCA OPTIMIZATION COORDINATE SETUP
------------------------------------------------------------------------------

The optimization will be done in new redundant internal coordinates
Making redundant internal coordinates   ...  (new redundants) done
Evaluating the initial hessian          ...  (Almloef) done
Evaluating the coordinates              ...  done
Calculating the B-matrix                .... done
Calculating the G-matrix                .... done
Diagonalizing the G-matrix              .... done
The first mode is                       ....   65
The number of degrees of freedom        ....   57

    -----------------------------------------------------------------
                    Redundant Internal Coordinates


    -----------------------------------------------------------------
         Definition                    Initial Value    Approx d2E/dq
    -----------------------------------------------------------------
      1. B(B   1,F   0)                  1.3765         0.632800   
      2. B(F   2,B   1)                  1.3762         0.633478   
      3. B(N   3,B   1)                  1.5502         0.359832   
      4. B(C   4,N   3)                  1.3263         0.707222   
      5. B(C   5,C   4)                  1.4025         0.596819   
      6. B(C   6,C   5)                  1.3757         0.658399   
      7. B(C   7,N   3)                  1.3798         0.581057   
      8. B(C   7,C   6)                  1.4165         0.566900   
      9. B(C   8,C   7)                  1.3853         0.635687   
     10. B(C   9,C   8)                  1.3853         0.635738   
     11. B(C  10,C   9)                  1.4164         0.566946   
     12. B(C  11,C  10)                  1.3758         0.658350   
     13. B(C  12,C  11)                  1.4025         0.596861   
     14. B(N  13,C   9)                  1.3798         0.580994   
     15. B(N  13,B   1)                  1.5503         0.359742   
     16. B(N  13,C  12)                  1.3262         0.707354   
     17. B(H  14,C   4)                  1.0733         0.382899   
     18. B(H  15,C   5)                  1.0719         0.384808   
     19. B(H  16,C   6)                  1.0723         0.384242   
     20. B(H  17,C   8)                  1.0797         0.374012   
     21. B(H  18,C  10)                  1.0723         0.384252   
     22. B(H  19,C  11)                  1.0720         0.384751   
     23. B(H  20,C  12)                  1.0732         0.382962   
     24. A(F   2,B   1,N   3)          109.8909         0.395568   
     25. A(F   0,B   1,N   3)          109.8498         0.395494   
     26. A(F   0,B   1,F   2)          110.2941         0.435456   
     27. A(F   2,B   1,N  13)          109.8919         0.395551   
     28. A(N   3,B   1,N  13)          107.0078         0.360191   
     29. A(F   0,B   1,N  13)          109.8489         0.395476   
     30. A(B   1,N   3,C   7)          124.7990         0.387976   
     31. A(B   1,N   3,C   4)          126.9391         0.401573   
     32. A(C   4,N   3,C   7)          108.2617         0.433578   
     33. A(N   3,C   4,H  14)          120.8239         0.362425   
     34. A(N   3,C   4,C   5)          110.1892         0.438548   
     35. A(C   5,C   4,H  14)          128.9870         0.354303   
     36. A(C   6,C   5,H  15)          127.5282         0.360572   
     37. A(C   4,C   5,H  15)          125.6258         0.354602   
     38. A(C   4,C   5,C   6)          106.8460         0.435787   
     39. A(C   5,C   6,H  16)          127.8845         0.360481   
     40. A(C   5,C   6,C   7)          106.8613         0.431774   
     41. A(C   7,C   6,H  16)          125.2542         0.351441   
     42. A(C   6,C   7,C   8)          130.9321         0.429061   
     43. A(N   3,C   7,C   8)          121.2260         0.428151   
     44. A(N   3,C   7,C   6)          107.8418         0.419473   
     45. A(C   7,C   8,C   9)          120.9437         0.437998   
     46. A(C   9,C   8,H  17)          119.5280         0.356697   
     47. A(C   7,C   8,H  17)          119.5282         0.356693   
     48. A(C   8,C   9,C  10)          130.9380         0.429074   
     49. A(C  10,C   9,N  13)          107.8364         0.419471   
     50. A(C   8,C   9,N  13)          121.2255         0.428149   
     51. A(C   9,C  10,C  11)          106.8598         0.431774   
     52. A(C  11,C  10,H  18)          127.8867         0.360478   
     53. A(C   9,C  10,H  18)          125.2534         0.351447   
     54. A(C  12,C  11,H  19)          125.6215         0.354597   
     55. A(C  10,C  11,H  19)          127.5269         0.360558   
     56. A(C  10,C  11,C  12)          106.8517         0.435787   
     57. A(C  11,C  12,N  13)          110.1813         0.438568   
     58. A(N  13,C  12,H  20)          120.8295         0.362447   
     59. A(C  11,C  12,H  20)          128.9892         0.354317   
     60. A(C   9,N  13,C  12)          108.2708         0.433584   
     61. A(B   1,N  13,C  12)          126.9323         0.401568   
     62. A(B   1,N  13,C   9)          124.7968         0.387952   
     63. D(C   7,N   3,B   1,N  13)      0.3569         0.009321   
     64. D(C   7,N   3,B   1,F   0)   -118.8473         0.009321   
     65. D(C   4,N   3,B   1,F   0)     60.9941         0.009321   
     66. D(C   7,N   3,B   1,F   2)    119.6352         0.009321   
     67. D(C   4,N   3,B   1,F   2)    -60.5233         0.009321   
     68. D(C   4,N   3,B   1,N  13)   -179.8017         0.009321   
     69. D(H  14,C   4,N   3,C   7)    179.9976         0.041476   
     70. D(C   5,C   4,N   3,B   1)   -179.8669         0.041476   
     71. D(H  14,C   4,N   3,B   1)      0.1347         0.041476   
     72. D(C   5,C   4,N   3,C   7)     -0.0040         0.041476   
     73. D(C   6,C   5,C   4,H  14)   -179.9981         0.024541   
     74. D(H  15,C   5,C   4,H  14)      0.0110         0.024541   
     75. D(C   6,C   5,C   4,N   3)      0.0037         0.024541   
     76. D(H  15,C   5,C   4,N   3)   -179.9872         0.024541   
     77. D(C   7,C   6,C   5,C   4)     -0.0018         0.030238   
     78. D(H  16,C   6,C   5,H  15)      0.0031         0.030238   
     79. D(H  16,C   6,C   5,C   4)   -179.9875         0.030238   
     80. D(C   7,C   6,C   5,H  15)    179.9888         0.030238   
     81. D(C   8,C   7,C   6,H  16)      0.0554         0.022035   
     82. D(C   8,C   7,C   6,C   5)   -179.9308         0.022035   
     83. D(N   3,C   7,C   6,H  16)    179.9857         0.022035   
     84. D(N   3,C   7,C   6,C   5)     -0.0005         0.022035   
     85. D(C   8,C   7,N   3,C   4)    179.9412         0.027086   
     86. D(C   8,C   7,N   3,B   1)     -0.1923         0.027086   
     87. D(C   6,C   7,N   3,C   4)      0.0028         0.027086   
     88. D(C   6,C   7,N   3,B   1)    179.8693         0.027086   
     89. D(H  17,C   8,C   7,C   6)     -0.0707         0.028051   
     90. D(C   9,C   8,C   7,C   6)    179.8818         0.028051   
     91. D(C   9,C   8,C   7,N   3)     -0.0406         0.028051   
     92. D(H  17,C   8,C   7,N   3)   -179.9931         0.028051   
     93. D(C  10,C   9,C   8,C   7)   -179.8824         0.028056   
     94. D(N  13,C   9,C   8,H  17)    179.9930         0.028056   
     95. D(N  13,C   9,C   8,C   7)      0.0404         0.028056   
     96. D(C  10,C   9,C   8,H  17)      0.0701         0.028056   
     97. D(H  18,C  10,C   9,N  13)    179.9993         0.022039   
     98. D(H  18,C  10,C   9,C   8)     -0.0700         0.022039   
     99. D(C  11,C  10,C   9,N  13)     -0.0019         0.022039   
    100. D(C  11,C  10,C   9,C   8)    179.9288         0.022039   
    101. D(H  19,C  11,C  10,H  18)      0.0007         0.030233   
    102. D(H  19,C  11,C  10,C   9)   -179.9980         0.030233   
    103. D(C  12,C  11,C  10,H  18)   -179.9969         0.030233   
    104. D(C  12,C  11,C  10,C   9)      0.0044         0.030233   
    105. D(H  20,C  12,C  11,H  19)      0.0061         0.024545   
    106. D(H  20,C  12,C  11,C  10)   -179.9963         0.024545   
    107. D(N  13,C  12,C  11,H  19)    179.9968         0.024545   
    108. D(N  13,C  12,C  11,C  10)     -0.0056         0.024545   
    109. D(C   9,N  13,C  12,H  20)    179.9960         0.041493   
    110. D(B   1,N  13,C  12,H  20)     -0.1405         0.041493   
    111. D(B   1,N  13,C  12,C  11)    179.8679         0.041493   
    112. D(C  12,N  13,C   9,C  10)     -0.0016         0.027080   
    113. D(C  12,N  13,C   9,C   8)   -179.9403         0.027080   
    114. D(B   1,N  13,C   9,C  10)   -179.8687         0.027080   
    115. D(B   1,N  13,C   9,C   8)      0.1926         0.027080   
    116. D(C  12,N  13,B   1,N   3)    179.8008         0.009317   
    117. D(C  12,N  13,B   1,F   2)     60.5231         0.009317   
    118. D(C  12,N  13,B   1,F   0)    -60.9944         0.009317   
    119. D(C   9,N  13,B   1,N   3)     -0.3570         0.009317   
    120. D(C   9,N  13,C  12,C  11)      0.0044         0.041493   
    121. D(C   9,N  13,B   1,F   2)   -119.6347         0.009317   
    122. D(C   9,N  13,B   1,F   0)    118.8477         0.009317   
    -----------------------------------------------------------------

Number of atoms                         .... 21
Number of degrees of freedom            .... 122

         *************************************************************
         *                GEOMETRY OPTIMIZATION CYCLE   1            *
         *************************************************************
---------------------------------
CARTESIAN COORDINATES (ANGSTROEM)
---------------------------------
  F     -0.248100   -1.647400   -1.946300
  B     -0.024100   -1.384500   -0.613800
  F      0.174100   -2.557900    0.077500
  N     -1.233200   -0.619000   -0.017800
  C     -2.487300   -1.044000    0.057000
  C     -3.294200   -0.067500    0.658900
  C     -2.475600    0.996800    0.958600
  C     -1.172000    0.646000    0.529700
  C      0.022300    1.345300    0.590300
  C      1.195900    0.794300    0.102400
  C      2.514700    1.309200    0.058000
  C      3.299800    0.345200   -0.531100
  C      2.458100   -0.734500   -0.835500
  N      1.215000   -0.465700   -0.459600
  H     -2.762800   -2.012600   -0.314300
  H     -4.346900   -0.153400    0.841900
  H     -2.745000    1.923600    1.425900
  H      0.038800    2.333600    1.024700
  H      2.815900    2.271800    0.422100
  H      4.352500    0.391100   -0.728200
  H      2.701900   -1.670600   -1.300400

----------------------------
CARTESIAN COORDINATES (A.U.)
----------------------------
  NO LB      ZA    FRAG     MASS         X           Y           Z
   0 F     9.0000    0    18.998   -0.468841   -3.113135   -3.677974
   1 B     5.0000    0    10.810   -0.045542   -2.616326   -1.159914
   2 F     9.0000    0    18.998    0.329001   -4.833730    0.146454
   3 N     7.0000    0    14.007   -2.330410   -1.169740   -0.033637
   4 C     6.0000    0    12.011   -4.700316   -1.972874    0.107714
   5 C     6.0000    0    12.011   -6.225136   -0.127557    1.245141
   6 C     6.0000    0    12.011   -4.678206    1.883679    1.811491
   7 C     6.0000    0    12.011   -2.214759    1.220763    1.000988
   8 C     6.0000    0    12.011    0.042141    2.542249    1.115505
   9 C     6.0000    0    12.011    2.259923    1.501009    0.193508
  10 C     6.0000    0    12.011    4.752094    2.474029    0.109604
  11 C     6.0000    0    12.011    6.235718    0.652333   -1.003634
  12 C     6.0000    0    12.011    4.645136   -1.388004   -1.578866
  13 N     7.0000    0    14.007    2.296017   -0.880045   -0.868518
  14 H     1.0000    0     1.008   -5.220935   -3.803263   -0.593941
  15 H     1.0000    0     1.008   -8.214451   -0.289884    1.590960
  16 H     1.0000    0     1.008   -5.187298    3.635077    2.694560
  17 H     1.0000    0     1.008    0.073321    4.409865    1.936402
  18 H     1.0000    0     1.008    5.321280    4.293080    0.797653
  19 H     1.0000    0     1.008    8.225033    0.739072   -1.376099
  20 H     1.0000    0     1.008    5.105851   -3.156976   -2.457400

--------------------------------
INTERNAL COORDINATES (ANGSTROEM)
--------------------------------
 F      0   0   0     0.000000000000     0.00000000     0.00000000
 B      1   0   0     1.376535019533     0.00000000     0.00000000
 F      2   1   0     1.376243615789   110.29406026     0.00000000
 N      2   1   3     1.550202909299   109.84982791   238.72415697
 C      4   2   1     1.326268015900   126.93907207    60.99412890
 C      5   4   2     1.402470488103   110.18918188   180.13309584
 C      6   5   4     1.375739997238   106.84597807     0.00000000
 C      4   2   1     1.379756025535   124.79903113   241.15269220
 C      8   4   2     1.385296119969   121.22602553   359.80772735
 C      9   8   4     1.385274113668   120.94371842   359.95940427
 C     10   9   8     1.416448661265   130.93802407   180.11762634
 C     11  10   9     1.375760451532   106.85983150   179.92876810
 C     12  11  10     1.402451546400   106.85166754     0.00000000
 N     13  12  11     1.326217124003   110.18131615     0.00000000
 H      5   4   2     1.073289289987   120.82385624     0.13474243
 H      6   5   4     1.071935212594   125.62583297   180.01280747
 H      7   6   5     1.072335717021   127.88448848   180.01249287
 H      9   8   4     1.079681666048   119.52822943   180.00689439
 H     11  10   9     1.072328778873   125.25342759   359.93001313
 H     12  11  10     1.071975983873   127.52685411   180.00199395
 H     13  12  11     1.073244454912   128.98922445   180.00373003

---------------------------
INTERNAL COORDINATES (A.U.)
---------------------------
 F      0   0   0     0.000000000000     0.00000000     0.00000000
 B      1   0   0     2.601274200669     0.00000000     0.00000000
 F      2   1   0     2.600723527399   110.29406026     0.00000000
 N      2   1   3     2.929458950584   109.84982791   238.72415697
 C      4   2   1     2.506283330231   126.93907207    60.99412890
 C      5   4   2     2.650285133422   110.18918188   180.13309584
 C      6   5   4     2.599771826261   106.84597807     0.00000000
 C      4   2   1     2.607361019889   124.79903113   241.15269220
 C      8   4   2     2.617830281124   121.22602553   359.80772735
 C      9   8   4     2.617788695244   120.94371842   359.95940427
 C     10   9   8     2.676700052551   130.93802407   180.11762634
 C     11  10   9     2.599810479276   106.85983150   179.92876810
 C     12  11  10     2.650249338791   106.85166754     0.00000000
 N     13  12  11     2.506187158483   110.18131615     0.00000000
 H      5   4   2     2.028222820546   120.82385624     0.13474243
 H      6   5   4     2.025663985110   125.62583297   180.01280747
 H      7   6   5     2.026420828793   127.88448848   180.01249287
 H      9   8   4     2.040302660646   119.52822943   180.00689439
 H     11  10   9     2.026407717593   125.25342759   359.93001313
 H     12  11  10     2.025741031660   127.52685411   180.00199395
 H     13  12  11     2.028138094534   128.98922445   180.00373003

---------------------
BASIS SET INFORMATION
---------------------
There are 5 groups of distinct atoms

 Group   1 Type F   : 19s6p3d2f contracted to 5s4p3d2f pattern {88111/3111/111/11}
 Group   2 Type B   : 19s6p3d2f contracted to 5s4p3d2f pattern {88111/3111/111/11}
 Group   3 Type N   : 19s6p3d2f contracted to 5s4p3d2f pattern {88111/3111/111/11}
 Group   4 Type C   : 19s6p3d2f contracted to 5s4p3d2f pattern {88111/3111/111/11}
 Group   5 Type H   : 5s2p1d contracted to 3s2p1d pattern {311/11/1}

Atom   0F    basis set group =>   1
Atom   1B    basis set group =>   2
Atom   2F    basis set group =>   1
Atom   3N    basis set group =>   3
Atom   4C    basis set group =>   4
Atom   5C    basis set group =>   4
Atom   6C    basis set group =>   4
Atom   7C    basis set group =>   4
Atom   8C    basis set group =>   4
Atom   9C    basis set group =>   4
Atom  10C    basis set group =>   4
Atom  11C    basis set group =>   4
Atom  12C    basis set group =>   4
Atom  13N    basis set group =>   3
Atom  14H    basis set group =>   5
Atom  15H    basis set group =>   5
Atom  16H    basis set group =>   5
Atom  17H    basis set group =>   5
Atom  18H    basis set group =>   5
Atom  19H    basis set group =>   5
Atom  20H    basis set group =>   5
---------------------------------
AUXILIARY/J BASIS SET INFORMATION
---------------------------------
There are 5 groups of distinct atoms

 Group   1 Type F   : 10s7p5d2f1g contracted to 10s7p5d2f1g pattern {1111111111/1111111/11111/11/1}
 Group   2 Type B   : 10s7p5d2f1g contracted to 10s7p5d2f1g pattern {1111111111/1111111/11111/11/1}
 Group   3 Type N   : 10s7p5d2f1g contracted to 10s7p5d2f1g pattern {1111111111/1111111/11111/11/1}
 Group   4 Type C   : 10s7p5d2f1g contracted to 10s7p5d2f1g pattern {1111111111/1111111/11111/11/1}
 Group   5 Type H   : 4s3p2d1f contracted to 4s3p2d1f pattern {1111/111/11/1}

Atom   0F    basis set group =>   1
Atom   1B    basis set group =>   2
Atom   2F    basis set group =>   1
Atom   3N    basis set group =>   3
Atom   4C    basis set group =>   4
Atom   5C    basis set group =>   4
Atom   6C    basis set group =>   4
Atom   7C    basis set group =>   4
Atom   8C    basis set group =>   4
Atom   9C    basis set group =>   4
Atom  10C    basis set group =>   4
Atom  11C    basis set group =>   4
Atom  12C    basis set group =>   4
Atom  13N    basis set group =>   3
Atom  14H    basis set group =>   5
Atom  15H    basis set group =>   5
Atom  16H    basis set group =>   5
Atom  17H    basis set group =>   5
Atom  18H    basis set group =>   5
Atom  19H    basis set group =>   5
Atom  20H    basis set group =>   5
---------------------------------
AUXILIARY/C BASIS SET INFORMATION
---------------------------------
There are 5 groups of distinct atoms

 Group   1 Type F   : 9s7p6d4f2g contracted to 9s7p6d4f2g pattern {111111111/1111111/111111/1111/11}
 Group   2 Type B   : 9s7p6d4f2g contracted to 9s7p6d4f2g pattern {111111111/1111111/111111/1111/11}
 Group   3 Type N   : 9s7p6d4f2g contracted to 9s7p6d4f2g pattern {111111111/1111111/111111/1111/11}
 Group   4 Type C   : 9s7p6d4f2g contracted to 9s7p6d4f2g pattern {111111111/1111111/111111/1111/11}
 Group   5 Type H   : 4s3p2d1f contracted to 4s3p2d1f pattern {1111/111/11/1}

Atom   0F    basis set group =>   1
Atom   1B    basis set group =>   2
Atom   2F    basis set group =>   1
Atom   3N    basis set group =>   3
Atom   4C    basis set group =>   4
Atom   5C    basis set group =>   4
Atom   6C    basis set group =>   4
Atom   7C    basis set group =>   4
Atom   8C    basis set group =>   4
Atom   9C    basis set group =>   4
Atom  10C    basis set group =>   4
Atom  11C    basis set group =>   4
Atom  12C    basis set group =>   4
Atom  13N    basis set group =>   3
Atom  14H    basis set group =>   5
Atom  15H    basis set group =>   5
Atom  16H    basis set group =>   5
Atom  17H    basis set group =>   5
Atom  18H    basis set group =>   5
Atom  19H    basis set group =>   5
Atom  20H    basis set group =>   5


           ************************************************************
           *        Program running with 4 parallel MPI-processes     *
           *              working on a common directory               *
           ************************************************************
------------------------------------------------------------------------------
                           ORCA GTO INTEGRAL CALCULATION
                           -- RI-GTO INTEGRALS CHOSEN --
------------------------------------------------------------------------------
------------------------------------------------------------------------------
                   ___                                                        
                  /   \      - P O W E R E D   B Y -                         
                 /     \                                                     
                 |  |  |   _    _      __       _____    __    __             
                 |  |  |  | |  | |    /  \     |  _  \  |  |  /  |          
                  \  \/   | |  | |   /    \    | | | |  |  | /  /          
                 / \  \   | |__| |  /  /\  \   | |_| |  |  |/  /          
                |  |  |   |  __  | /  /__\  \  |    /   |      \           
                |  |  |   | |  | | |   __   |  |    \   |  |\   \          
                \     /   | |  | | |  |  |  |  | |\  \  |  | \   \       
                 \___/    |_|  |_| |__|  |__|  |_| \__\ |__|  \__/        
                                                                              
                      - O R C A' S   B I G   F R I E N D -                    
                                      &                                       
                       - I N T E G R A L  F E E D E R -                       
                                                                              
 v1 FN, 2020, v2 2021                                                         
------------------------------------------------------------------------------


Reading SHARK input file optpbed3-wb2plyp-train-1.SHARKINP.tmp ... ok
----------------------
SHARK INTEGRAL PACKAGE
----------------------

Number of atoms                             ...     21
Number of basis functions                   ...    826
Number of shells                            ...    322
Maximum angular momentum                    ...      3
Integral batch strategy                     ... SHARK/LIBINT Hybrid
RI-J (if used) integral strategy            ... SPLIT-RIJ (Revised 2003 algorithm where possible)
Printlevel                                  ...      1
Contraction scheme used                     ... PARTIAL GENERAL contraction
Coulomb Range Separation                    ... NOT USED
Exchange Range Separation                   ... NOT USED
Finite Nucleus Model                        ... NOT USED
Auxiliary Coulomb fitting basis             ... AVAILABLE
   # of basis functions in Aux-J            ...   1316
   # of shells in Aux-J                     ...    420
   Maximum angular momentum in Aux-J        ...      4
Auxiliary J/K fitting basis                 ... NOT available
Auxiliary Correlation fitting basis         ... AVAILABLE
   # of basis functions in Aux-C            ...   1694
   # of shells in Aux-C                     ...    462
   Maximum angular momentum in Aux-C        ...      4
Auxiliary 'external' fitting basis          ... NOT available
Integral threshold                          ...     2.500000e-11
Primitive cut-off                           ...     2.500000e-12
Primitive pair pre-selection threshold      ...     2.500000e-12

Calculating pre-screening integrals         ... done (  0.2 sec) Dimension = 322
Calculating pre-screening integrals (ORCA)  ... done (  0.4 sec) Dimension = 238
Organizing shell pair data                  ... done (  0.7 sec)
Shell pair information
Total number of shell pairs                 ...     52003
Shell pairs after pre-screening             ...     39352
Total number of primitive shell pairs       ...     66493
Primitive shell pairs kept                  ...     46476
          la=0 lb=0:   8957 shell pairs
          la=1 lb=0:   9791 shell pairs
          la=1 lb=1:   2253 shell pairs
          la=2 lb=0:   6709 shell pairs
          la=2 lb=1:   3092 shell pairs
          la=2 lb=2:   1100 shell pairs
          la=3 lb=0:   3972 shell pairs
          la=3 lb=1:   1814 shell pairs
          la=3 lb=2:   1273 shell pairs
          la=3 lb=3:    391 shell pairs

Calculating one electron integrals          ... done (  0.1 sec)
Calculating RI/J V-Matrix + Cholesky decomp.... done (  0.2 sec)
Calculating RI/C V-Matrix + Cholesky decomp.... done (  0.3 sec)
Calculating Nuclear repulsion               ... done (  0.0 sec) ENN=    866.723037408548 Eh

SHARK setup successfully completed in   2.8 seconds

Maximum memory used throughout the entire GTOINT-calculation: 59.3 MB


           ************************************************************
           *        Program running with 4 parallel MPI-processes     *
           *              working on a common directory               *
           ************************************************************
-------------------------------------------------------------------------------
                                 ORCA SCF
-------------------------------------------------------------------------------

------------
SCF SETTINGS
------------
Hamiltonian:
 Density Functional     Method          .... DFT(GTOs)
 Exchange Functional    Exchange        .... PBE
   PBE kappa parameter   XKappa         ....  0.804000
   PBE mue parameter    XMuePBE         ....  0.219520
 Correlation Functional Correlation     .... PBE
   PBE beta parameter  CBetaPBE         ....  0.066725
 LDA part of GGA corr.  LDAOpt          .... PW91-LDA
 Gradients option       PostSCFGGA      .... off
 Hybrid DFT is turned on
   Fraction HF Exchange ScalHFX         ....  0.250000
   Scaling of DF-GGA-X  ScalDFX         ....  0.750000
   Scaling of DF-GGA-C  ScalDFC         ....  1.000000
   Scaling of DF-LDA-C  ScalLDAC        ....  1.000000
   Perturbative correction              ....  0.000000
   Density functional embedding theory  .... OFF
   NL short-range parameter             ....  6.900000
 RI-approximation to the Coulomb term is turned on
   Number of AuxJ basis functions       .... 1316
   RIJ-COSX (HFX calculated with COS-X)).... on


General Settings:
 Integral files         IntName         .... optpbed3-wb2plyp-train-1
 Hartree-Fock type      HFTyp           .... RHF
 Total Charge           Charge          ....    0
 Multiplicity           Mult            ....    1
 Number of Electrons    NEL             ....   98
 Basis Dimension        Dim             ....  742
 Nuclear Repulsion      ENuc            ....    866.7230374085 Eh

Convergence Acceleration:
 DIIS                   CNVDIIS         .... on
   Start iteration      DIISMaxIt       ....    12
   Startup error        DIISStart       ....  0.200000
   # of expansion vecs  DIISMaxEq       ....     5
   Bias factor          DIISBfac        ....   1.050
   Max. coefficient     DIISMaxC        ....  10.000
 Trust-Rad. Augm. Hess. CNVTRAH         .... auto
   Auto Start mean grad. ratio tolernc. ....  1.125000
   Auto Start start iteration           ....    20
   Auto Start num. interpolation iter.  ....    10
   Max. Number of Micro iterations      ....    16
   Max. Number of Macro iterations      .... Maxiter - #DIIS iter
   Number of Davidson start vectors     ....     2
   Converg. threshold I  (grad. norm)   ....   1.000e-05
   Converg. threshold II (energy diff.) ....   1.000e-08
   Grad. Scal. Fac. for Micro threshold ....   0.100
   Minimum threshold for Micro iter.    ....   0.010
   NR start threshold (gradient norm)   ....   0.001
   Initial trust radius                 ....   0.400
   Minimum AH scaling param. (alpha)    ....   1.000
   Maximum AH scaling param. (alpha)    .... 1000.000
   Orbital update algorithm             .... Taylor
   White noise on init. David. guess    .... on
   Maximum white noise                  ....   0.010
   Quad. conv. algorithm                .... NR
 SOSCF                  CNVSOSCF        .... on
   Start iteration      SOSCFMaxIt      ....   150
   Startup grad/error   SOSCFStart      ....  0.003300
 Level Shifting         CNVShift        .... on
   Level shift para.    LevelShift      ....    0.2500
   Turn off err/grad.   ShiftErr        ....    0.0010
 Zerner damping         CNVZerner       .... off
 Static damping         CNVDamp         .... on
   Fraction old density DampFac         ....    0.7000
   Max. Damping (<1)    DampMax         ....    0.9800
   Min. Damping (>=0)   DampMin         ....    0.0000
   Turn off err/grad.   DampErr         ....    0.1000
 Fernandez-Rico         CNVRico         .... off

SCF Procedure:
 Maximum # iterations   MaxIter         ....   125
 SCF integral mode      SCFMode         .... Direct
   Integral package                     .... SHARK and LIBINT hybrid scheme
 Reset frequency        DirectResetFreq ....    20
 Integral Threshold     Thresh          ....  2.500e-11 Eh
 Primitive CutOff       TCut            ....  2.500e-12 Eh

Convergence Tolerance:
 Convergence Check Mode ConvCheckMode   .... Total+1el-Energy
 Convergence forced     ConvForced      .... 0
 Energy Change          TolE            ....  1.000e-08 Eh
 1-El. energy change                    ....  1.000e-05 Eh
 Orbital Gradient       TolG            ....  1.000e-05
 Orbital Rotation angle TolX            ....  1.000e-05
 DIIS Error             TolErr          ....  5.000e-07


Diagonalization of the overlap matrix:
Smallest eigenvalue                        ... 1.822e-06
Time for diagonalization                   ...    0.210 sec
Threshold for overlap eigenvalues          ... 1.000e-08
Number of eigenvalues below threshold      ... 0
Time for construction of square roots      ...    0.101 sec
Total time needed                          ...    0.317 sec

Time for model grid setup =    0.661 sec

------------------------------
INITIAL GUESS: MODEL POTENTIAL
------------------------------
Loading Hartree-Fock densities                     ... done
Calculating cut-offs                               ... done
Initializing the effective Hamiltonian             ... done
Setting up the integral package (SHARK)            ... done
Starting the Coulomb interaction                   ... done (   1.2 sec)
Reading the grid                                   ... done
Mapping shells                                     ... done
Starting the XC term evaluation                    ... done (   1.9 sec)
  promolecular density results
     # of electrons  =     97.997283186
     EX              =    -85.115693484
     EC              =     -3.322347427
     EX+EC           =    -88.438040911
Transforming the Hamiltonian                       ... done (   0.1 sec)
Diagonalizing the Hamiltonian                      ... done (   0.2 sec)
Back transforming the eigenvectors                 ... done (   0.0 sec)
Now organizing SCF variables                       ... done
                      ------------------
                      INITIAL GUESS DONE (   4.1 sec)
                      ------------------
-------------------
DFT GRID GENERATION
-------------------

General Integration Accuracy     IntAcc      ... 4.388
Radial Grid Type                 RadialGrid  ... OptM3 with GC (2021)
Angular Grid (max. ang.)         AngularGrid ... 4 (Lebedev-302)
Angular grid pruning method      GridPruning ... 4 (adaptive)
Weight generation scheme         WeightScheme... Becke
Basis function cutoff            BFCut       ... 1.0000e-11
Integration weight cutoff        WCut        ... 1.0000e-14
Angular grids for H and He will be reduced by one unit
Partially contracted basis set               ... off
Rotationally invariant grid construction     ... off

Total number of grid points                  ...   110048
Total number of batches                      ...     1728
Average number of points per batch           ...       63
Average number of grid points per atom       ...     5240
Time for grid setup =    2.201 sec

--------------------
COSX GRID GENERATION
--------------------

GRIDX 1
-------
General Integration Accuracy     IntAcc      ... 3.816
Radial Grid Type                 RadialGrid  ... OptM3 with GC (2021)
Angular Grid (max. ang.)         AngularGrid ... 1 (Lebedev-50)
Angular grid pruning method      GridPruning ... 4 (adaptive)
Weight generation scheme         WeightScheme... Becke
Basis function cutoff            BFCut       ... 1.0000e-11
Integration weight cutoff        WCut        ... 1.0000e-14
Angular grids for H and He will be reduced by one unit
Partially contracted basis set               ... on
Rotationally invariant grid construction     ... off

Total number of grid points                  ...    13989
Total number of batches                      ...      231
Average number of points per batch           ...       60
Average number of grid points per atom       ...      666
UseSFitting                                  ... on

GRIDX 2
-------
General Integration Accuracy     IntAcc      ... 4.020
Radial Grid Type                 RadialGrid  ... OptM3 with GC (2021)
Angular Grid (max. ang.)         AngularGrid ... 2 (Lebedev-110)
Angular grid pruning method      GridPruning ... 4 (adaptive)
Weight generation scheme         WeightScheme... Becke
Basis function cutoff            BFCut       ... 1.0000e-11
Integration weight cutoff        WCut        ... 1.0000e-14
Angular grids for H and He will be reduced by one unit
Partially contracted basis set               ... on
Rotationally invariant grid construction     ... off

Total number of grid points                  ...    34307
Total number of batches                      ...      545
Average number of points per batch           ...       62
Average number of grid points per atom       ...     1634
UseSFitting                                  ... on

GRIDX 3
-------
General Integration Accuracy     IntAcc      ... 4.338
Radial Grid Type                 RadialGrid  ... OptM3 with GC (2021)
Angular Grid (max. ang.)         AngularGrid ... 3 (Lebedev-194)
Angular grid pruning method      GridPruning ... 4 (adaptive)
Weight generation scheme         WeightScheme... Becke
Basis function cutoff            BFCut       ... 1.0000e-11
Integration weight cutoff        WCut        ... 1.0000e-14
Angular grids for H and He will be reduced by one unit
Partially contracted basis set               ... on
Rotationally invariant grid construction     ... off

Total number of grid points                  ...    74089
Total number of batches                      ...     1168
Average number of points per batch           ...       63
Average number of grid points per atom       ...     3528
UseSFitting                                  ... on

Time for X-Grid setup             =    5.344 sec


--------------------
CPCM SOLVATION MODEL
--------------------
CPCM parameters:
  Epsilon                                         ...       2.0165
  Refrac                                          ...       1.4266
  Rsolv                                           ...       1.3000
  Surface type                                    ... GAUSSIAN VDW
  Epsilon function type                           ...         CPCM
Solvent:                                     ... CYCLOHEXANE
SMD-CDS solvent descriptors:
  Soln                                       ...    1.4266
  Soln25                                     ...    1.4235
  Sola                                       ...    0.0000
  Solb                                       ...    0.0000
  Solg                                       ...   35.4800
  Solc                                       ...    0.0000
  Solh                                       ...    0.0000
Radii:
 Radius for F  used is    3.2692 Bohr (=   1.7300 Ang.)
 Radius for B  used is    3.6283 Bohr (=   1.9200 Ang.)
 Radius for N  used is    3.5716 Bohr (=   1.8900 Ang.)
 Radius for C  used is    3.4960 Bohr (=   1.8500 Ang.)
 Radius for H  used is    2.2677 Bohr (=   1.2000 Ang.)
Calculating surface                               ...        done! (  0.0s)
GEPOL surface points                              ...         1218
GEPOL Volume                                      ...    1223.4663
GEPOL Surface-area                                ...     700.3562
Calculating surface distance matrix               ...        done! (  0.0s)
Performing Cholesky decomposition & store         ...        done! (  0.2s)
Overall time for CPCM initialization              ...                 0.2s
 re-compute Schwartz prescreening matrix in partically contracted basis (1) ...done (   0.192 sec)
--------------
SCF ITERATIONS
--------------
ITER       Energy         Delta-E        Max-DP      RMS-DP      [F,P]     Damp
               ***  Starting incremental Fock matrix formation  ***
  0   -680.6404038718   0.000000000000 0.05121028  0.00078407  0.2054335 0.7000
  1   -680.7454959079  -0.105092036125 0.04926738  0.00057089  0.0921410 0.7000
                               ***Turning on DIIS***
  2   -680.7927045218  -0.047208613813 0.13737271  0.00112251  0.0352950 0.0000
  3   -680.8657268308  -0.073022309089 0.02586955  0.00032994  0.0449410 0.0000
  4   -680.8802529097  -0.014526078871 0.01276994  0.00010138  0.0086263 0.0000
  5   -680.8807743983  -0.000521488582 0.00365454  0.00002542  0.0039049 0.0000
                      *** Initiating the SOSCF procedure ***
                           *** Shutting down DIIS ***
                      *** Re-Reading the Fockian *** 
                      *** Removing any level shift *** 
ITER      Energy       Delta-E        Grad      Rot      Max-DP    RMS-DP
  6   -680.88082168  -0.0000472800  0.000246  0.000246  0.001007  0.000015
               *** Restarting incremental Fock matrix formation ***
  7   -680.88083011  -0.0000084358  0.000174  0.000805  0.004609  0.000055
  8   -680.88082847   0.0000016484  0.000375  0.000659  0.000482  0.000006
  9   -680.88083138  -0.0000029128  0.000045  0.000163  0.001281  0.000012
 10   -680.88083130   0.0000000822  0.000058  0.000081  0.000669  0.000005
                  ***Gradient check signals convergence***
              ***Rediagonalizing the Fockian in SOSCF/NRSCF***

               *****************************************************
               *                     SUCCESS                       *
               *           SCF CONVERGED AFTER  11 CYCLES          *
               *****************************************************

Old exchange energy                            =    -21.649184054 Eh
New exchange energy                            =    -21.649199217 Eh
Exchange energy change after final integration =     -0.000015163 Eh
Total energy after final integration           =   -680.880846598 Eh
Final COS-X integration done in                =    73.232 sec

SMD CDS free energy correction energy :                -4.44040     Kcal/mol
Total Energy after SMD CDS correction =              -680.887922818 Eh

----------------
TOTAL SCF ENERGY
----------------

Total Energy       :         -680.88792282 Eh          -18527.90232 eV

Components:
Nuclear Repulsion  :          866.72303741 Eh           23584.73287 eV
Electronic Energy  :        -1547.61096023 Eh          -42112.63519 eV
One Electron Energy:        -2651.45551636 Eh          -72149.77262 eV
Two Electron Energy:         1103.84455613 Eh           30037.13743 eV
Max COSX asymmetry :            0.00001070 Eh               0.00029 eV
CPCM Dielectric    :           -0.01014058 Eh              -0.27594 eV
SMD CDS (Gcds)     :           -0.00707622 Eh              -0.19255 eV

Virial components:
Potential Energy   :        -1358.24465839 Eh          -36959.71615 eV
Kinetic Energy     :          677.35673557 Eh           18431.81383 eV
Virial Ratio       :            2.00521319


DFT components:
N(Alpha)           :       49.000016302755 electrons
N(Beta)            :       49.000016302755 electrons
N(Total)           :       98.000032605510 electrons
E(X)               :      -64.813247868381 Eh       
E(C)               :       -3.325463868960 Eh       
E(XC)              :      -68.138711737341 Eh       
DFET-embed. en.    :        0.000000000000 Eh       
CPCM Solvation Model Properties:
Surface-charge          :           -0.04233564
Charge-correction       :            0.00003487 Eh               0.00095 eV
Free-energy (cav+disp)  :           -0.00707622 Eh              -0.19255 eV

---------------
SCF CONVERGENCE
---------------

  Last Energy change         ...   -1.3889e-07  Tolerance :   1.0000e-08
  Last MAX-Density change    ...    3.5527e-15  Tolerance :   1.0000e-07
  Last RMS-Density change    ...    1.6042e-17  Tolerance :   5.0000e-09
  Last Orbital Gradient      ...    1.9047e-06  Tolerance :   1.0000e-05
  Last Orbital Rotation      ...    6.9038e-06  Tolerance :   1.0000e-05

             **** THE GBW FILE WAS UPDATED (optpbed3-wb2plyp-train-1.gbw) ****
             **** DENSITY optpbed3-wb2plyp-train-1.scfp WAS UPDATED ****
             **** ENERGY FILE WAS UPDATED (optpbed3-wb2plyp-train-1.en.tmp) ****
             **** THE GBW FILE WAS UPDATED (optpbed3-wb2plyp-train-1.gbw) ****
             **** DENSITY optpbed3-wb2plyp-train-1.scfp WAS UPDATED ****
----------------
ORBITAL ENERGIES
----------------

  NO   OCC          E(Eh)            E(eV) 
   0   2.0000     -24.724693      -672.7931 
   1   2.0000     -24.724544      -672.7890 
   2   2.0000     -14.427511      -392.5925 
   3   2.0000     -14.427502      -392.5923 
   4   2.0000     -10.280896      -279.7574 
   5   2.0000     -10.277401      -279.6623 
   6   2.0000     -10.277390      -279.6620 
   7   2.0000     -10.274523      -279.5840 
   8   2.0000     -10.274489      -279.5831 
   9   2.0000     -10.245649      -278.7983 
  10   2.0000     -10.245630      -278.7978 
  11   2.0000     -10.233147      -278.4581 
  12   2.0000     -10.233140      -278.4579 
  13   2.0000      -6.852613      -186.4691 
  14   2.0000      -1.209517       -32.9126 
  15   2.0000      -1.175748       -31.9937 
  16   2.0000      -1.037486       -28.2314 
  17   2.0000      -1.020310       -27.7640 
  18   2.0000      -0.850963       -23.1559 
  19   2.0000      -0.827360       -22.5136 
  20   2.0000      -0.814461       -22.1626 
  21   2.0000      -0.760748       -20.7010 
  22   2.0000      -0.698064       -18.9953 
  23   2.0000      -0.637309       -17.3421 
  24   2.0000      -0.621095       -16.9009 
  25   2.0000      -0.607873       -16.5411 
  26   2.0000      -0.603825       -16.4309 
  27   2.0000      -0.569345       -15.4927 
  28   2.0000      -0.532006       -14.4766 
  29   2.0000      -0.528255       -14.3745 
  30   2.0000      -0.508279       -13.8310 
  31   2.0000      -0.483198       -13.1485 
  32   2.0000      -0.473208       -12.8766 
  33   2.0000      -0.458543       -12.4776 
  34   2.0000      -0.455469       -12.3939 
  35   2.0000      -0.451630       -12.2895 
  36   2.0000      -0.450027       -12.2458 
  37   2.0000      -0.425167       -11.5694 
  38   2.0000      -0.420902       -11.4533 
  39   2.0000      -0.416518       -11.3340 
  40   2.0000      -0.404885       -11.0175 
  41   2.0000      -0.397595       -10.8191 
  42   2.0000      -0.388665       -10.5761 
  43   2.0000      -0.381673       -10.3859 
  44   2.0000      -0.363142        -9.8816 
  45   2.0000      -0.325794        -8.8653 
  46   2.0000      -0.288767        -7.8578 
  47   2.0000      -0.281290        -7.6543 
  48   2.0000      -0.234883        -6.3915 
  49   0.0000      -0.109282        -2.9737 
  50   0.0000       0.002871         0.0781 
  51   0.0000       0.013084         0.3560 
  52   0.0000       0.018661         0.5078 
  53   0.0000       0.019996         0.5441 
  54   0.0000       0.026163         0.7119 
  55   0.0000       0.031401         0.8545 
  56   0.0000       0.031445         0.8557 
  57   0.0000       0.034284         0.9329 
  58   0.0000       0.037436         1.0187 
  59   0.0000       0.051204         1.3933 
  60   0.0000       0.051294         1.3958 
  61   0.0000       0.054403         1.4804 
  62   0.0000       0.054658         1.4873 
  63   0.0000       0.056158         1.5281 
  64   0.0000       0.063229         1.7205 
  65   0.0000       0.078689         2.1412 
  66   0.0000       0.083912         2.2834 
  67   0.0000       0.084184         2.2908 
  68   0.0000       0.092800         2.5252 
  69   0.0000       0.096372         2.6224 
  70   0.0000       0.097802         2.6613 
  71   0.0000       0.102030         2.7764 
  72   0.0000       0.105597         2.8734 
  73   0.0000       0.106541         2.8991 
  74   0.0000       0.113001         3.0749 
  75   0.0000       0.113905         3.0995 
  76   0.0000       0.118545         3.2258 
  77   0.0000       0.124148         3.3782 
  78   0.0000       0.126098         3.4313 
  79   0.0000       0.126340         3.4379 
  80   0.0000       0.130382         3.5479 
  81   0.0000       0.136447         3.7129 
  82   0.0000       0.140033         3.8105 
  83   0.0000       0.143139         3.8950 
  84   0.0000       0.145930         3.9710 
  85   0.0000       0.149315         4.0631 
  86   0.0000       0.153238         4.1698 
  87   0.0000       0.156281         4.2526 
  88   0.0000       0.164546         4.4775 
  89   0.0000       0.165641         4.5073 
  90   0.0000       0.166502         4.5307 
  91   0.0000       0.169085         4.6010 
  92   0.0000       0.173178         4.7124 
  93   0.0000       0.183227         4.9859 
  94   0.0000       0.191364         5.2073 
  95   0.0000       0.191643         5.2149 
  96   0.0000       0.196592         5.3495 
  97   0.0000       0.197251         5.3675 
  98   0.0000       0.202645         5.5143 
  99   0.0000       0.205618         5.5952 
 100   0.0000       0.208825         5.6824 
 101   0.0000       0.210674         5.7327 
 102   0.0000       0.216039         5.8787 
 103   0.0000       0.220220         5.9925 
 104   0.0000       0.234216         6.3733 
 105   0.0000       0.238036         6.4773 
 106   0.0000       0.243137         6.6161 
 107   0.0000       0.243439         6.6243 
 108   0.0000       0.246512         6.7079 
 109   0.0000       0.256984         6.9929 
 110   0.0000       0.257310         7.0018 
 111   0.0000       0.257697         7.0123 
 112   0.0000       0.268835         7.3154 
 113   0.0000       0.270612         7.3637 
 114   0.0000       0.276714         7.5298 
 115   0.0000       0.278841         7.5876 
 116   0.0000       0.279390         7.6026 
 117   0.0000       0.284129         7.7315 
 118   0.0000       0.285345         7.7646 
 119   0.0000       0.288722         7.8565 
 120   0.0000       0.293645         7.9905 
 121   0.0000       0.294076         8.0022 
 122   0.0000       0.297232         8.0881 
 123   0.0000       0.303202         8.2506 
 124   0.0000       0.305525         8.3138 
 125   0.0000       0.319634         8.6977 
 126   0.0000       0.322478         8.7751 
 127   0.0000       0.331047         9.0082 
 128   0.0000       0.331177         9.0118 
 129   0.0000       0.331555         9.0221 
 130   0.0000       0.335862         9.1393 
 131   0.0000       0.349324         9.5056 
 132   0.0000       0.352487         9.5917 
 133   0.0000       0.353262         9.6127 
 134   0.0000       0.366208         9.9650 
 135   0.0000       0.366290         9.9672 
 136   0.0000       0.367402         9.9975 
 137   0.0000       0.372084        10.1249 
 138   0.0000       0.373029        10.1506 
 139   0.0000       0.377900        10.2832 
 140   0.0000       0.386895        10.5279 
 141   0.0000       0.392006        10.6670 
 142   0.0000       0.400098        10.8872 
 143   0.0000       0.400407        10.8956 
 144   0.0000       0.407575        11.0907 
 145   0.0000       0.407617        11.0918 
 146   0.0000       0.412296        11.2192 
 147   0.0000       0.421771        11.4770 
 148   0.0000       0.423657        11.5283 
 149   0.0000       0.428500        11.6601 
 150   0.0000       0.431489        11.7414 
 151   0.0000       0.431858        11.7514 
 152   0.0000       0.432844        11.7783 
 153   0.0000       0.435888        11.8611 
 154   0.0000       0.443073        12.0566 
 155   0.0000       0.444250        12.0886 
 156   0.0000       0.453316        12.3354 
 157   0.0000       0.459587        12.5060 
 158   0.0000       0.464395        12.6368 
 159   0.0000       0.468509        12.7488 
 160   0.0000       0.469200        12.7676 
 161   0.0000       0.473181        12.8759 
 162   0.0000       0.479469        13.0470 
 163   0.0000       0.484134        13.1740 
 164   0.0000       0.487602        13.2683 
 165   0.0000       0.498930        13.5766 
 166   0.0000       0.499881        13.6024 
 167   0.0000       0.502963        13.6863 
 168   0.0000       0.508582        13.8392 
 169   0.0000       0.512391        13.9429 
 170   0.0000       0.513851        13.9826 
 171   0.0000       0.519964        14.1489 
 172   0.0000       0.527486        14.3536 
 173   0.0000       0.530905        14.4467 
 174   0.0000       0.540205        14.6997 
 175   0.0000       0.542896        14.7729 
 176   0.0000       0.546198        14.8628 
 177   0.0000       0.551211        14.9992 
 178   0.0000       0.552853        15.0439 
 179   0.0000       0.559473        15.2240 
 180   0.0000       0.569092        15.4858 
 181   0.0000       0.573442        15.6042 
 182   0.0000       0.573472        15.6050 
 183   0.0000       0.579496        15.7689 
 184   0.0000       0.588124        16.0037 
 185   0.0000       0.610152        16.6031 
 186   0.0000       0.611945        16.6519 
 187   0.0000       0.622124        16.9289 
 188   0.0000       0.628641        17.1062 
 189   0.0000       0.638364        17.3708 
 190   0.0000       0.644038        17.5252 
 191   0.0000       0.645443        17.5634 
 192   0.0000       0.650053        17.6889 
 193   0.0000       0.654676        17.8146 
 194   0.0000       0.665285        18.1033 
 195   0.0000       0.671425        18.2704 
 196   0.0000       0.676027        18.3956 
 197   0.0000       0.676603        18.4113 
 198   0.0000       0.692086        18.8326 
 199   0.0000       0.699079        19.0229 
 200   0.0000       0.700497        19.0615 
 201   0.0000       0.704904        19.1814 
 202   0.0000       0.712740        19.3946 
 203   0.0000       0.714417        19.4403 
 204   0.0000       0.722373        19.6568 
 205   0.0000       0.722808        19.6686 
 206   0.0000       0.726359        19.7652 
 207   0.0000       0.732246        19.9254 
 208   0.0000       0.746090        20.3021 
 209   0.0000       0.748708        20.3734 
 210   0.0000       0.749853        20.4045 
 211   0.0000       0.753824        20.5126 
 212   0.0000       0.764583        20.8054 
 213   0.0000       0.776353        21.1256 
 214   0.0000       0.782155        21.2835 
 215   0.0000       0.790274        21.5045 
 216   0.0000       0.794245        21.6125 
 217   0.0000       0.795432        21.6448 
 218   0.0000       0.809839        22.0368 
 219   0.0000       0.812143        22.0995 
 220   0.0000       0.819876        22.3100 
 221   0.0000       0.822648        22.3854 
 222   0.0000       0.837109        22.7789 
 223   0.0000       0.844357        22.9761 
 224   0.0000       0.855390        23.2764 
 225   0.0000       0.860526        23.4161 
 226   0.0000       0.862274        23.4637 
 227   0.0000       0.863181        23.4883 
 228   0.0000       0.870935        23.6994 
 229   0.0000       0.875796        23.8316 
 230   0.0000       0.893588        24.3158 
 231   0.0000       0.895620        24.3711 
 232   0.0000       0.900256        24.4972 
 233   0.0000       0.905080        24.6285 
 234   0.0000       0.916419        24.9370 
 235   0.0000       0.922472        25.1017 
 236   0.0000       0.925306        25.1789 
 237   0.0000       0.925843        25.1935 
 238   0.0000       0.943395        25.6711 
 239   0.0000       0.944671        25.7058 
 240   0.0000       0.950245        25.8575 
 241   0.0000       0.951674        25.8964 
 242   0.0000       0.961719        26.1697 
 243   0.0000       0.968271        26.3480 
 244   0.0000       0.969005        26.3680 
 245   0.0000       0.972565        26.4648 
 246   0.0000       0.980711        26.6865 
 247   0.0000       0.992132        26.9973 
 248   0.0000       0.998873        27.1807 
 249   0.0000       1.000308        27.2198 
 250   0.0000       1.006809        27.3967 
 251   0.0000       1.008954        27.4550 
 252   0.0000       1.025275        27.8992 
 253   0.0000       1.026717        27.9384 
 254   0.0000       1.027153        27.9503 
 255   0.0000       1.033097        28.1120 
 256   0.0000       1.057940        28.7880 
 257   0.0000       1.061649        28.8889 
 258   0.0000       1.062093        28.9010 
 259   0.0000       1.069124        29.0924 
 260   0.0000       1.085157        29.5286 
 261   0.0000       1.092009        29.7151 
 262   0.0000       1.093276        29.7496 
 263   0.0000       1.099729        29.9252 
 264   0.0000       1.100874        29.9563 
 265   0.0000       1.110585        30.2206 
 266   0.0000       1.116067        30.3697 
 267   0.0000       1.121301        30.5121 
 268   0.0000       1.144201        31.1353 
 269   0.0000       1.153642        31.3922 
 270   0.0000       1.157164        31.4880 
 271   0.0000       1.164915        31.6989 
 272   0.0000       1.179025        32.0829 
 273   0.0000       1.182730        32.1837 
 274   0.0000       1.185509        32.2593 
 275   0.0000       1.189345        32.3637 
 276   0.0000       1.196450        32.5571 
 277   0.0000       1.216069        33.0909 
 278   0.0000       1.222063        33.2540 
 279   0.0000       1.229154        33.4470 
 280   0.0000       1.230764        33.4908 
 281   0.0000       1.233969        33.5780 
 282   0.0000       1.249778        34.0082 
 283   0.0000       1.255027        34.1510 
 284   0.0000       1.268523        34.5183 
 285   0.0000       1.282303        34.8932 
 286   0.0000       1.285547        34.9815 
 287   0.0000       1.291674        35.1482 
 288   0.0000       1.297972        35.3196 
 289   0.0000       1.299975        35.3741 
 290   0.0000       1.300464        35.3874 
 291   0.0000       1.311065        35.6759 
 292   0.0000       1.324509        36.0417 
 293   0.0000       1.326852        36.1055 
 294   0.0000       1.329935        36.1894 
 295   0.0000       1.340973        36.4897 
 296   0.0000       1.348160        36.6853 
 297   0.0000       1.348344        36.6903 
 298   0.0000       1.348366        36.6909 
 299   0.0000       1.353775        36.8381 
 300   0.0000       1.359689        36.9990 
 301   0.0000       1.380576        37.5674 
 302   0.0000       1.385329        37.6967 
 303   0.0000       1.388235        37.7758 
 304   0.0000       1.393452        37.9178 
 305   0.0000       1.402065        38.1521 
 306   0.0000       1.402606        38.1668 
 307   0.0000       1.417925        38.5837 
 308   0.0000       1.424918        38.7740 
 309   0.0000       1.437998        39.1299 
 310   0.0000       1.446086        39.3500 
[...]
------------------------

Dimension of the eigenvalue problem            ...  24255
Number of roots to be determined               ...     10
Maximum size of the expansion space            ...     70
Maximum number of iterations                   ...    100
Convergence tolerance for the residual         ...    1.000e-06
Convergence tolerance for the energies         ...    1.000e-06
Orthogonality tolerance                        ...    1.000e-14
Level Shift                                    ...    0.000e+00
Constructing the preconditioner                ... o.k.
Building the initial guess                     ... o.k.
Number of trial vectors determined             ...     70


                       ****Iteration    0****

   Memory handling for direct AO based CIS:
   Memory per vector needed      ...    31 MB
   Memory needed                 ...   945 MB
   Memory available              ...  4000 MB
   Number of vectors per batch   ...   126
   Number of batches             ...     1
   Time for densities:            0.640
   Time for RI-J (Direct):       10.584
   Time for K (COSX):            79.277
   Time for XC-Integration:      46.318
   Time for LR-CPCM terms:       12.544
   Time for Sigma-Completion:     0.406
   Size of expansion space: 30
   Lowest Energy          :     0.137108906801
   Maximum Energy change  :     0.262775053470 (vector 9)
   Maximum residual norm  :     0.024280780103

                       ****Iteration    1****
   Time for densities:            0.217
   Time for RI-J (Direct):        6.164
   Time for K (COSX):            31.659
   Time for XC-Integration:      16.095
   Time for LR-CPCM terms:        5.712
   Time for Sigma-Completion:     0.134
   Size of expansion space: 40
   Lowest Energy          :     0.115140763618
   Maximum Energy change  :     0.021968143182 (vector 0)
   Maximum residual norm  :     0.001158428122

                       ****Iteration    2****
   Time for densities:            0.197
   Time for RI-J (Direct):        5.887
   Time for K (COSX):            31.619
   Time for XC-Integration:      15.654
   Time for LR-CPCM terms:        5.797
   Time for Sigma-Completion:     0.135
   Size of expansion space: 50
   Lowest Energy          :     0.113489906722
   Maximum Energy change  :     0.002597681211 (vector 4)
   Maximum residual norm  :     0.000279594229

                       ****Iteration    3****
   Time for densities:            0.202
   Time for RI-J (Direct):        6.111
   Time for K (COSX):            32.159
   Time for XC-Integration:      16.216
   Time for LR-CPCM terms:        5.729
   Time for Sigma-Completion:     0.140
   Size of expansion space: 60
   Lowest Energy          :     0.113429597619
   Maximum Energy change  :     0.000649256181 (vector 4)
   Maximum residual norm  :     0.000152765518

                       ****Iteration    4****
   Time for densities:            0.214
   Time for RI-J (Direct):        6.135
   Time for K (COSX):            32.175
   Time for XC-Integration:      15.219
   Time for LR-CPCM terms:        5.943
   Time for Sigma-Completion:     0.142
   Size of expansion space: 70
   Lowest Energy          :     0.113426118550
   Maximum Energy change  :     0.000341700428 (vector 4)
   Maximum residual norm  :     0.000055761445
   Rebuilding the expansion space

                       ****Iteration    5****
   Time for densities:            0.412
   Time for RI-J (Direct):        8.339
   Time for K (COSX):            56.216
   Time for XC-Integration:      31.713
   Time for LR-CPCM terms:       10.376
   Time for Sigma-Completion:     0.267
   Size of expansion space: 20
   Lowest Energy          :     0.113425389942
   Maximum Energy change  :     0.000062366549 (vector 4)
   Maximum residual norm  :     0.000007172583

                       ****Iteration    6****
   Time for densities:            0.183
   Time for RI-J (Direct):        7.264
   Time for K (COSX):            32.395
   Time for XC-Integration:      16.717
   Time for LR-CPCM terms:        5.824
   Time for Sigma-Completion:     0.149
   Size of expansion space: 30
   Lowest Energy          :     0.113425365341
   Maximum Energy change  :     0.000010141939 (vector 4)
   Maximum residual norm  :     0.000001720268

                       ****Iteration    7****
   Time for densities:            0.209
   Time for RI-J (Direct):        6.116
   Time for K (COSX):            31.799
   Time for XC-Integration:      16.436
   Time for LR-CPCM terms:        5.780
   Time for Sigma-Completion:     0.144
   Size of expansion space: 40
   Lowest Energy          :     0.113425363713
   Maximum Energy change  :     0.000004886088 (vector 4)
   Maximum residual norm  :     0.000001291232

                       ****Iteration    8****
   Time for densities:            0.208
   Time for RI-J (Direct):        6.202
   Time for K (COSX):            32.238
   Time for XC-Integration:      15.011
   Time for LR-CPCM terms:        5.755
   Time for Sigma-Completion:     0.140
   Size of expansion space: 50
   Lowest Energy          :     0.113425363646
   Maximum Energy change  :     0.000003701811 (vector 9)
   Maximum residual norm  :     0.000006110771

                       ****Iteration    9****
   Time for densities:            0.210
   Time for RI-J (Direct):        6.065
   Time for K (COSX):            33.151
   Time for XC-Integration:      14.858
   Time for LR-CPCM terms:        5.752
   Time for Sigma-Completion:     0.135
   Size of expansion space: 60
   Lowest Energy          :     0.113425363644
   Maximum Energy change  :     0.002156477704 (vector 9)
   Maximum residual norm  :     0.000511645088

                       ****Iteration   10****
   Time for densities:            0.198
   Time for RI-J (Direct):        6.076
   Time for K (COSX):            31.110
   Time for XC-Integration:      16.558
   Time for LR-CPCM terms:        6.362
   Time for Sigma-Completion:     0.143
   Size of expansion space: 70
   Lowest Energy          :     0.113425363644
   Maximum Energy change  :     0.000843653507 (vector 9)
   Maximum residual norm  :     0.000124678697
   Rebuilding the expansion space

                       ****Iteration   11****
   Time for densities:            0.385
   Time for RI-J (Direct):        8.115
   Time for K (COSX):            51.595
   Time for XC-Integration:      28.747
   Time for LR-CPCM terms:        8.807
   Time for Sigma-Completion:     0.235
   Size of expansion space: 19
   Lowest Energy          :     0.113425360984
   Maximum Energy change  :     0.000154738490 (vector 9)
   Maximum residual norm  :     0.000046640870

                       ****Iteration   12****
   Time for densities:            0.177
   Time for RI-J (Direct):        5.854
   Time for K (COSX):            28.721
   Time for XC-Integration:      14.867
   Time for LR-CPCM terms:        5.457
   Time for Sigma-Completion:     0.107
   Size of expansion space: 28
   Lowest Energy          :     0.113425360984
   Maximum Energy change  :     0.000093043620 (vector 9)
   Maximum residual norm  :     0.000021463692

                       ****Iteration   13****
   Time for densities:            0.179
   Time for RI-J (Direct):        5.827
   Time for K (COSX):            28.801
   Time for XC-Integration:      14.383
   Time for LR-CPCM terms:        5.826
   Time for Sigma-Completion:     0.096
   Size of expansion space: 37
   Lowest Energy          :     0.113425360984
   Maximum Energy change  :     0.000035873477 (vector 9)
   Maximum residual norm  :     0.000004943925

                       ****Iteration   14****
   Time for densities:            0.149
   Time for RI-J (Direct):        5.947
   Time for K (COSX):            29.227
   Time for XC-Integration:      15.338
   Time for LR-CPCM terms:        5.414
   Time for Sigma-Completion:     0.135
   Size of expansion space: 46
   Lowest Energy          :     0.113425360984
   Maximum Energy change  :     0.000008569938 (vector 9)
   Maximum residual norm  :     0.000001498216

                       ****Iteration   15****
   Time for densities:            0.195
   Time for RI-J (Direct):        5.921
   Time for K (COSX):            29.384
   Time for XC-Integration:      14.606
   Time for LR-CPCM terms:        5.473
   Time for Sigma-Completion:     0.111
   Size of expansion space: 55
   Lowest Energy          :     0.113425360984
   Maximum Energy change  :     0.000002194401 (vector 9)
   Maximum residual norm  :     0.000000282422

      *** CONVERGENCE OF RESIDUAL NORM REACHED ***

Storing the converged CI vectors               ... optpbed3-wb2plyp-train-1_job2.cis1

                 *** DAVIDSON DONE ***

Total time for solving the CIS problem:  1125.689sec

------------------
DOUBLES CORRECTION (Double precision version)
------------------

The (D) correction will be scaled by  0.2700
Doing v(i,a)*T(i,a) terms (RI)                    ... ok
Doing u(i,j,a,b) terms for state   0              ... ok
Doing u(i,j,a,b) terms for state   1              ... ok
Doing u(i,j,a,b) terms for state   2              ... ok
Doing u(i,j,a,b) terms for state   3              ... ok
Doing u(i,j,a,b) terms for state   4              ... ok
Doing u(i,j,a,b) terms for state   5              ... ok
Doing u(i,j,a,b) terms for state   6              ... ok
Doing u(i,j,a,b) terms for state   7              ... ok
Doing u(i,j,a,b) terms for state   8              ... ok
Doing u(i,j,a,b) terms for state   9              ... ok

Contributions to the (D) correction(s) (in eV)

STATE  Final   Init.   Total   v(ext)   v(int)  v(3)    u
       omega   omega     (D)                             
-----------------------------------------------------------------------------
   0   2.918   3.086  -0.168   0.526   0.862  -0.081  -1.474
   1   4.265   4.689  -0.424   0.531   0.803  -0.048  -1.709
   2   4.532   5.004  -0.473   0.529   0.781  -0.050  -1.732
   3   5.774   5.747   0.027   0.028   0.868  -0.001  -0.868
   4   5.905   6.234  -0.329   0.509   0.764  -0.107  -1.495
   5   6.347   6.340   0.007   0.022   0.859  -0.001  -0.872
   6   6.482   6.453   0.029   0.027   0.867  -0.002  -0.863
   7   6.483   6.469   0.014   0.027   0.865  -0.002  -0.876
   8   6.759   6.757   0.001   0.029   0.859  -0.001  -0.885
   9   6.594   6.828  -0.234   0.398   0.855  -0.044  -1.442

(D)-timings
 V(i,a)*T(i,a) terms           ...   134.213 sec
 U(i,j,a,b) 3-internal         ...     3.476 sec
 U(i,j,a,b) 3-external         ...   143.337 sec
 U(i,j,a,b) pair terms         ...    64.467 sec
 Total measured time           ...   631.803 sec

 Time for (ab|v) I/O           ...    43.843 sec


------------------------------------
TD-DFT/TDA EXCITED STATES (SINGLETS)
------------------------------------

the weight of the individual excitations are printed if larger than 1.0e-02

STATE  1:  E=   0.107246 au      2.918 eV    23537.8 cm**-1 <S**2> =   0.000000
    48a ->  49a  :     0.949314 (c=  0.97432747)

STATE  2:  E=   0.156745 au      4.265 eV    34401.5 cm**-1 <S**2> =   0.000000
    47a ->  49a  :     0.949743 (c= -0.97454768)

STATE  3:  E=   0.166537 au      4.532 eV    36550.7 cm**-1 <S**2> =   0.000000
    45a ->  49a  :     0.010706 (c= -0.10347135)
    46a ->  49a  :     0.938524 (c= -0.96877471)

STATE  4:  E=   0.212205 au      5.774 eV    46573.5 cm**-1 <S**2> =   0.000000
    48a ->  50a  :     0.746107 (c= -0.86377457)
    48a ->  56a  :     0.130685 (c=  0.36150401)
    48a ->  71a  :     0.038487 (c=  0.19618141)
    48a ->  72a  :     0.031224 (c=  0.17670424)

STATE  5:  E=   0.216991 au      5.905 eV    47624.0 cm**-1 <S**2> =   0.000000
    45a ->  49a  :     0.889219 (c=  0.94298396)
    48a ->  62a  :     0.014473 (c= -0.12030389)
    48a ->  74a  :     0.010007 (c= -0.10003300)

STATE  6:  E=   0.233255 au      6.347 eV    51193.6 cm**-1 <S**2> =   0.000000
    45a ->  50a  :     0.021757 (c= -0.14750247)
    48a ->  51a  :     0.801630 (c=  0.89533772)
    48a ->  54a  :     0.024249 (c=  0.15572236)
    48a ->  61a  :     0.015000 (c=  0.12247318)
    48a ->  65a  :     0.048124 (c= -0.21937200)
    48a ->  69a  :     0.016072 (c= -0.12677519)
    48a ->  81a  :     0.011234 (c= -0.10599105)

STATE  7:  E=   0.238191 au      6.482 eV    52276.9 cm**-1 <S**2> =   0.000000
    48a ->  50a  :     0.014946 (c=  0.12225328)
    48a ->  52a  :     0.208593 (c=  0.45672012)
    48a ->  53a  :     0.531871 (c= -0.72929453)
    48a ->  55a  :     0.034151 (c= -0.18479909)
    48a ->  56a  :     0.041589 (c=  0.20393458)
    48a ->  60a  :     0.057544 (c= -0.23988279)
    48a ->  68a  :     0.038543 (c=  0.19632464)

STATE  8:  E=   0.238249 au      6.483 eV    52289.7 cm**-1 <S**2> =   0.000000
    48a ->  50a  :     0.024941 (c= -0.15792771)
    48a ->  52a  :     0.383067 (c= -0.61892420)
    48a ->  53a  :     0.274099 (c= -0.52354487)
    48a ->  55a  :     0.081891 (c=  0.28616619)
    48a ->  56a  :     0.092748 (c= -0.30454589)
    48a ->  60a  :     0.029668 (c= -0.17224270)
    48a ->  63a  :     0.010613 (c= -0.10301940)
    48a ->  68a  :     0.020648 (c=  0.14369292)
    48a ->  78a  :     0.011304 (c=  0.10632128)
    48a ->  79a  :     0.017462 (c= -0.13214424)

STATE  9:  E=   0.248377 au      6.759 eV    54512.5 cm**-1 <S**2> =   0.000000
    45a ->  51a  :     0.012792 (c=  0.11310192)
    46a ->  51a  :     0.016398 (c= -0.12805654)
    48a ->  50a  :     0.115576 (c= -0.33996420)
    48a ->  52a  :     0.139371 (c=  0.37332461)
    48a ->  55a  :     0.016045 (c= -0.12666708)
    48a ->  56a  :     0.538938 (c= -0.73412396)
    48a ->  58a  :     0.028283 (c= -0.16817651)
    48a ->  71a  :     0.018248 (c= -0.13508522)
    48a ->  78a  :     0.018915 (c=  0.13753046)
    48a ->  84a  :     0.018984 (c= -0.13778317)

STATE 10:  E=   0.242339 au      6.594 eV    53187.3 cm**-1 <S**2> =   0.000000
    45a ->  49a  :     0.039687 (c= -0.19921662)
    48a ->  59a  :     0.043208 (c=  0.20786652)
    48a ->  62a  :     0.534112 (c= -0.73082990)
    48a ->  66a  :     0.086810 (c=  0.29463534)
    48a ->  74a  :     0.205428 (c= -0.45324221)


-----------------------------
TD-DFT/TDA-EXCITATION SPECTRA
-----------------------------

Center of mass = ( -0.0077, -0.6397, -0.2647)
Calculating the Dipole integrals                  ... done
Transforming integrals                            ... done
Calculating the Linear Momentum integrals         ... done
Transforming integrals                            ... done
Calculating angular momentum integrals            ... done
Transforming integrals                            ... done

-----------------------------------------------------------------------------
         ABSORPTION SPECTRUM VIA TRANSITION ELECTRIC DIPOLE MOMENTS
-----------------------------------------------------------------------------
State   Energy    Wavelength  fosc         T2        TX        TY        TZ  
        (cm-1)      (nm)                 (au**2)    (au)      (au)      (au) 
-----------------------------------------------------------------------------
   1   23537.8    424.8   0.855474866  11.96510  -3.39786  -0.21236   0.61200
   2   34401.5    290.7   0.118827099   1.13714  -1.04717  -0.06743   0.18980
   3   36550.7    273.6   0.113374338   1.02116   0.01564   0.92181   0.41375
   4   46573.5    214.7   0.000007781   0.00006   0.00719  -0.00080  -0.00164
   5   47624.0    210.0   0.293377973   2.02804   0.02807   1.28983   0.60299
   6   51193.6    195.3   0.015645575   0.10061  -0.05975   0.12506  -0.28531
   7   52276.9    191.3   0.000036852   0.00023   0.01464  -0.00091  -0.00411
   8   52289.7    191.2   0.000022845   0.00014   0.01172   0.00058  -0.00249
   9   54512.5    183.4   0.000039205   0.00024  -0.01098   0.00934   0.00537
  10   53187.3    188.0   0.089502446   0.55399   0.01628   0.67086   0.32198

-----------------------------------------------------------------------------
         ABSORPTION SPECTRUM VIA TRANSITION VELOCITY DIPOLE MOMENTS
-----------------------------------------------------------------------------
State   Energy    Wavelength   fosc        P2         PX        PY        PZ  
        (cm-1)      (nm)                 (au**2)     (au)      (au)      (au) 
-----------------------------------------------------------------------------
   1   23537.8    424.8   0.185438951   0.02983   0.16970   0.01056  -0.03039
   2   34401.5    290.7   0.029394570   0.00691   0.08170   0.00499  -0.01452
   3   36550.7    273.6   0.000184207   0.00005   0.00036  -0.00662  -0.00145
   4   46573.5    214.7   0.000007656   0.00000  -0.00155  -0.00007   0.00019
   5   47624.0    210.0   0.025901667   0.00843  -0.00176  -0.08315  -0.03891
   6   51193.6    195.3   0.013068226   0.00457   0.01278  -0.02753   0.06042
   7   52276.9    191.3   0.000840039   0.00030  -0.01697  -0.00091   0.00336
   8   52289.7    191.2   0.000415126   0.00015  -0.01194  -0.00083   0.00224
   9   54512.5    183.4   0.000017166   0.00001   0.00244  -0.00048  -0.00045
  10   53187.3    188.0   0.005268369   0.00192  -0.00128  -0.03881  -0.02018

-------------------------------------------------------------------
                             CD SPECTRUM
-------------------------------------------------------------------
State  Energy     Wavelength     R         MX        MY        MZ   
       (cm-1)       (nm)     (1e40*cgs)   (au)      (au)      (au)  
-------------------------------------------------------------------
   1   23537.8    424.8     -0.52966   0.15187  -0.32946   0.72702
   2   34401.5    290.7     -0.02836  -0.05812   0.12528  -0.27646
   3   36550.7    273.6      0.18401   0.00407   0.00084  -0.00108
   4   46573.5    214.7     -0.07368   0.00073   0.11125   0.04398
   5   47624.0    210.0      0.11166   0.00656   0.00060  -0.00120
   6   51193.6    195.3     -0.13268   0.19870   0.01201  -0.03536
   7   52276.9    191.3     -0.19302  -0.02923   0.28670  -0.06779
   8   52289.7    191.2      0.06977  -0.02898  -0.25782  -0.25601
   9   54512.5    183.4      1.14561   0.00384   0.20974   0.09548
  10   53187.3    188.0     -0.65146   0.00871  -0.00104  -0.00257

-------------------------------------------------------------------
         CD SPECTRUM VIA TRANSITION VELOCITY DIPOLE MOMENTS        
-------------------------------------------------------------------
State  Energy     Wavelength     R         MX        MY        MZ   
       (cm-1)       (nm)     (1e40*cgs)   (au)      (au)      (au)  
-------------------------------------------------------------------
   1   23537.8    424.8      0.88712   0.15187  -0.32946   0.72702
   2   34401.5    290.7     -0.33452  -0.05812   0.12528  -0.27646
   3   36550.7    273.6     -0.00716   0.00407   0.00084  -0.00108
   4   46573.5    214.7     -0.00073   0.00073   0.11125   0.04398
   5   47624.0    210.0     -0.03239   0.00656   0.00060  -0.00120
   6   51193.6    195.3      0.14686   0.19870   0.01201  -0.03536
   7   52276.9    191.3      0.01672  -0.02923   0.28670  -0.06779
   8   52289.7    191.2     -0.02473  -0.02898  -0.25782  -0.25601
   9   54512.5    183.4     -0.25316   0.00384   0.20974   0.09548
  10   53187.3    188.0      0.15757   0.00871  -0.00104  -0.00257

Total run time:     1764.075 sec

           *** ORCA-CIS/TD-DFT FINISHED WITHOUT ERROR ***

Maximum memory used throughout the entire CIS-calculation: 862.0 MB

-----------------------
CIS/TD-DFT TOTAL ENERGY
-----------------------

    E(SCF)  =   -679.742455280 Eh
    DE(CIS) =      0.107246252 Eh (Root  1)
    ----------------------------- ---------
    E(tot)  =   -679.635209028 Eh

  Warning: (DFTVDWD): Non-parameterized functional used for dispersion correction ! 

  Warning: (D3BJ): Non-parameterized functional used for dispersion correction !

Please define all necessary parameters (s6, s8, a1, and a2) in the %method block!
[file orca_tools/Tool-Misc/qcdftvdw.cpp, line 36127]: ERROR in DFT dispersion correction!

