
                                 *****************
                                 * O   R   C   A *
                                 *****************

                                            #,                                       
                                            ###                                      
                                            ####                                     
                                            #####                                    
                                            ######                                   
                                           ########,                                 
                                     ,,################,,,,,                         
                               ,,#################################,,                 
                          ,,##########################################,,             
                       ,#########################################, ''#####,          
                    ,#############################################,,   '####,        
                  ,##################################################,,,,####,       
                ,###########''''           ''''###############################       
              ,#####''   ,,,,##########,,,,          '''####'''          '####       
            ,##' ,,,,###########################,,,                        '##       
           ' ,,###''''                  '''############,,,                           
         ,,##''                                '''############,,,,        ,,,,,,###''
      ,#''                                            '''#######################'''  
     '                                                          ''''####''''         
             ,#######,   #######,   ,#######,      ##                                
            ,#'     '#,  ##    ##  ,#'     '#,    #''#        ######   ,####,        
            ##       ##  ##   ,#'  ##            #'  '#       #        #'  '#        
            ##       ##  #######   ##           ,######,      #####,   #    #        
            '#,     ,#'  ##    ##  '#,     ,#' ,#      #,         ##   #,  ,#        
             '#######'   ##     ##  '#######'  #'      '#     #####' # '####'        



                  #######################################################
                  #                        -***-                        #
                  #          Department of theory and spectroscopy      #
                  #    Directorship and core code : Frank Neese         #
                  #        Max Planck Institute fuer Kohlenforschung    #
                  #                Kaiser Wilhelm Platz 1               #
                  #                 D-45470 Muelheim/Ruhr               #
                  #                      Germany                        #
                  #                                                     #
                  #                  All rights reserved                #
                  #                        -***-                        #
                  #######################################################


                         Program Version 5.0.2 -  RELEASE  -


 With contributions from (in alphabetic order):
   Daniel Aravena         : Magnetic Suceptibility
   Michael Atanasov       : Ab Initio Ligand Field Theory (pilot matlab implementation)
   Alexander A. Auer      : GIAO ZORA, VPT2 properties, NMR spectrum
   Ute Becker             : Parallelization
   Giovanni Bistoni       : ED, misc. LED, open-shell LED, HFLD
   Martin Brehm           : Molecular dynamics
   Dmytro Bykov           : SCF Hessian
   Vijay G. Chilkuri      : MRCI spin determinant printing, contributions to CSF-ICE
   Dipayan Datta          : RHF DLPNO-CCSD density
   Achintya Kumar Dutta   : EOM-CC, STEOM-CC
   Dmitry Ganyushin       : Spin-Orbit,Spin-Spin,Magnetic field MRCI
   Miquel Garcia          : C-PCM and meta-GGA Hessian, CC/C-PCM, Gaussian charge scheme
   Yang Guo               : DLPNO-NEVPT2, F12-NEVPT2, CIM, IAO-localization
   Andreas Hansen         : Spin unrestricted coupled pair/coupled cluster methods
   Benjamin Helmich-Paris : MC-RPA, TRAH-SCF, COSX integrals
   Lee Huntington         : MR-EOM, pCC
   Robert Izsak           : Overlap fitted RIJCOSX, COSX-SCS-MP3, EOM
   Marcus Kettner         : VPT2
   Christian Kollmar      : KDIIS, OOCD, Brueckner-CCSD(T), CCSD density, CASPT2, CASPT2-K
   Simone Kossmann        : Meta GGA functionals, TD-DFT gradient, OOMP2, MP2 Hessian
   Martin Krupicka        : Initial AUTO-CI
   Lucas Lang             : DCDCAS
   Marvin Lechner         : AUTO-CI (C++ implementation), FIC-MRCC
   Dagmar Lenk            : GEPOL surface, SMD
   Dimitrios Liakos       : Extrapolation schemes; Compound Job, initial MDCI parallelization
   Dimitrios Manganas     : Further ROCIS development; embedding schemes
   Dimitrios Pantazis     : SARC Basis sets
   Anastasios Papadopoulos: AUTO-CI, single reference methods and gradients
   Taras Petrenko         : DFT Hessian,TD-DFT gradient, ASA, ECA, R-Raman, ABS, FL, XAS/XES, NRVS
   Peter Pinski           : DLPNO-MP2, DLPNO-MP2 Gradient
   Christoph Reimann      : Effective Core Potentials
   Marius Retegan         : Local ZFS, SOC
   Christoph Riplinger    : Optimizer, TS searches, QM/MM, DLPNO-CCSD(T), (RO)-DLPNO pert. Triples
   Tobias Risthaus        : Range-separated hybrids, TD-DFT gradient, RPA, STAB
   Michael Roemelt        : Original ROCIS implementation
   Masaaki Saitow         : Open-shell DLPNO-CCSD energy and density
   Barbara Sandhoefer     : DKH picture change effects
   Avijit Sen             : IP-ROCIS
   Kantharuban Sivalingam : CASSCF convergence, NEVPT2, FIC-MRCI
   Bernardo de Souza      : ESD, SOC TD-DFT
   Georgi Stoychev        : AutoAux, RI-MP2 NMR, DLPNO-MP2 response
   Willem Van den Heuvel  : Paramagnetic NMR
   Boris Wezisla          : Elementary symmetry handling
   Frank Wennmohs         : Technical directorship


 We gratefully acknowledge several colleagues who have allowed us to
 interface, adapt or use parts of their codes:
   Stefan Grimme, W. Hujo, H. Kruse, P. Pracht,  : VdW corrections, initial TS optimization,
                  C. Bannwarth, S. Ehlert          DFT functionals, gCP, sTDA/sTD-DF
   Ed Valeev, F. Pavosevic, A. Kumar             : LibInt (2-el integral package), F12 methods
   Garnet Chan, S. Sharma, J. Yang, R. Olivares  : DMRG
   Ulf Ekstrom                                   : XCFun DFT Library
   Mihaly Kallay                                 : mrcc  (arbitrary order and MRCC methods)
   Jiri Pittner, Ondrej Demel                    : Mk-CCSD
   Frank Weinhold                                : gennbo (NPA and NBO analysis)
   Christopher J. Cramer and Donald G. Truhlar   : smd solvation model
   Lars Goerigk                                  : TD-DFT with DH, B97 family of functionals
   V. Asgeirsson, H. Jonsson                     : NEB implementation
   FAccTs GmbH                                   : IRC, NEB, NEB-TS, DLPNO-Multilevel, CI-OPT
                                                   MM, QMMM, 2- and 3-layer-ONIOM, Crystal-QMMM,
                                                   LR-CPCM, SF, NACMEs, symmetry and pop. for TD-DFT,
                                                   nearIR, NL-DFT gradient (VV10), updates on ESD,
                                                   ML-optimized integration grids
   S Lehtola, MJT Oliveira, MAL Marques          : LibXC Library
   Liviu Ungur et al                             : ANISO software


 Your calculation uses the libint2 library for the computation of 2-el integrals
 For citations please refer to: http://libint.valeyev.net

 Your ORCA version has been built with support for libXC version: 5.1.0
 For citations please refer to: https://tddft.org/programs/libxc/

 This ORCA versions uses:
   CBLAS   interface :  Fast vector & matrix operations
   LAPACKE interface :  Fast linear algebra routines
   SCALAPACK package :  Parallel linear algebra routines
   Shared memory     :  Shared parallel matrices
   BLAS/LAPACK       :  OpenBLAS 0.3.15  USE64BITINT DYNAMIC_ARCH NO_AFFINITY Haswell SINGLE_THREADED
        Core in use  :  Haswell
   Copyright (c) 2011-2014, The OpenBLAS Project


Your calculation utilizes the atom-pairwise dispersion correction
with the zero-damping scheme (D30)
Cite in your paper:
S.Grimme, J.Antony, S.Ehrlich and H.Krieg, J.Chem.Phys., 132, (2010), 154104 
   

Your calculation utilizes the SMD solvation module
Please cite in your paper:
A.V. Marenich, C.J. Cramer, D.G. Truhlar J. Phys. Chem. B, 113, (2009), 6378 

XCFun DFT library Copyright 2009-2010 Ulf Ekstrom and contributors.
See http://admol.org/xcfun for more information.
This is free software; see the source code for copying conditions.
There is ABSOLUTELY NO WARRANTY; not even for MERCHANTABILITY or FITNESS FOR A PARTICULAR PURPOSE.
For details see the documentation.
Scientific users of this library should cite U. Ekstrom, L. Visscher, R. Bast, A. J. Thorvaldsen and K. Ruud;
J.Chem.Theor.Comp. 2010, DOI: 10.1021/ct100117s
XCFun Version 0.99 

================================================================================

----- Orbital basis set information -----
Your calculation utilizes the basis: aug-cc-pVTZ 
    H, B-Ne : Obtained from the ccRepo (grant-hill.group.shef.ac.uk/ccrepo) Feb. 2017
              R. A. Kendall, T. H. Dunning, Jr., R. J. Harrison, J. Chem. Phys. 96, 6796 (1992)
         He : Obtained from the ccRepo (grant-hill.group.shef.ac.uk/ccrepo) Feb. 2017
              D. E. Woon, T. H. Dunning, Jr., J. Chem. Phys. 100, 2975 (1994)
  Li-Be, Na : Obtained from the ccRepo (grant-hill.group.shef.ac.uk/ccrepo) Feb. 2017
              B. P. Prascher, D. E. Woon, K. A. Peterson, T. H. Dunning, Jr., A. K. Wilson, Theor. Chem. Acc. 128, 69 (2011)
         Mg : Obtained from the Peterson Research Group Website (tyr0.chem.wsu.edu/~kipeters) Feb. 2017
              B. P. Prascher, D. E. Woon, K. A. Peterson, T. H. Dunning, Jr., A. K. Wilson, Theor. Chem. Acc. 128, 69 (2011)
      Al-Ar : Obtained from the ccRepo (grant-hill.group.shef.ac.uk/ccrepo) Feb. 2017
              D. E. Woon, T. H. Dunning, Jr., J. Chem. Phys. 98, 1358 (1993)
      Sc-Zn : Obtained from the ccRepo (grant-hill.group.shef.ac.uk/ccrepo) Feb. 2017
              N. B. Balabanov, K. A. Peterson, J. Chem. Phys. 123, 064107 (2005)
              N. B. Balabanov, K. A. Peterson, J. Chem. Phys. 125, 074110 (2006)
      Ga-Kr : Obtained from the ccRepo (grant-hill.group.shef.ac.uk/ccrepo) Feb. 2017
              A. K. Wilson, D. E. Woon, K. A. Peterson, T. H. Dunning, Jr., J. Chem. Phys. 110, 7667 (1999)
     Ag, Au : Obtained from the Peterson Research Group Website (tyr0.chem.wsu.edu/~kipeters) Feb. 2017
              K. A. Peterson, C. Puzzarini, Theor. Chem. Acc. 114, 283 (2005)

The basis set includes element-specific modifications.

Your calculation utilizes the basis: cc-pVTZ 
       H, B-Ne : Obtained from the ccRepo (grant-hill.group.shef.ac.uk/ccrepo) Feb. 2017
                 T. H. Dunning, Jr., J. Chem. Phys. 90, 1007 (1989)
            He : Obtained from the ccRepo (grant-hill.group.shef.ac.uk/ccrepo) Feb. 2017
                 D. E. Woon, T. H. Dunning, Jr., J. Chem. Phys. 100, 2975 (1994)
  Li-Be, Na-Mg : Obtained from the ccRepo (grant-hill.group.shef.ac.uk/ccrepo) Feb. 2017
                 B. P. Prascher, D. E. Woon, K. A. Peterson, T. H. Dunning, Jr., A. K. Wilson, Theor. Chem. Acc. 128, 69 (2011)
         Al-Ar : Obtained from the ccRepo (grant-hill.group.shef.ac.uk/ccrepo) Feb. 2017
                 D. E. Woon, T. H. Dunning, Jr., J. Chem. Phys. 98, 1358 (1993)
            Ca : Obtained from the Peterson Research Group Website (tyr0.chem.wsu.edu/~kipeters) Feb. 2017
                 J. Koput, K. A. Peterson, J. Phys. Chem. 106, 9595 (2002)
         Sc-Zn : Obtained from the ccRepo (grant-hill.group.shef.ac.uk/ccrepo) Feb. 2017
                 N. B. Balabanov, K. A. Peterson, J. Chem. Phys. 123, 064107 (2005)
                 N. B. Balabanov, K. A. Peterson, J. Chem. Phys. 125, 074110 (2006)
         Ga-Kr : Obtained from the ccRepo (grant-hill.group.shef.ac.uk/ccrepo) Feb. 2017
                 A. K. Wilson, D. E. Woon, K. A. Peterson, T. H. Dunning, Jr., J. Chem. Phys. 110, 7667 (1999)
             Y : Obtained from the ccRepo (grant-hill.group.shef.ac.uk/ccrepo) Feb. 2017
                 K. A. Peterson, D. Figgen, M. Dolg, H. Stoll, J. Chem. Phys. 126, 124101 (2007)
        Ag, Au : Obtained from the Peterson Research Group Website (tyr0.chem.wsu.edu/~kipeters) Feb. 2017
                 K. A. Peterson, C. Puzzarini, Theor. Chem. Acc. 114, 283 (2005)

----- AuxJ basis set information -----
Your calculation utilizes the auxiliary basis: aug-cc-pVTZ/JK 
  H, B-F, Al-Cl, Ga-Br : Obtained from the TURBOMOLE 7.0 basis set library

The basis set includes element-specific modifications.

Your calculation utilizes the auxiliary basis: cc-pVTZ/JK 
  H, B-F, Al-Cl, Ga-Br : Obtained from the TURBOMOLE 7.0 basis set library

----- AuxC basis set information -----
Your calculation utilizes the auxiliary basis: aug-cc-pVTZ/C 
  H-He, B-F, Al-Ar, Ga-Kr : Obtained from the EMSL Basis Set Exchange (bse.pnl.gov) Feb. 2017
                            F. Weigend, A. Kohn, C. Hattig, J. Chem. Phys. 116, 3175 (2002)
                   Be, Mg : Obtained from the TURBOMOLE 7.0 basis set library
                            C. Haettig, Phys. Chem. Chem. Phys. 7, 59 (2005)
                       Ne : Obtained from the EMSL Basis Set Exchange (bse.pnl.gov) Feb. 2017
                            C. Haettig, Phys. Chem. Chem. Phys. 7, 59 (2005)
                            F. Weigend, A. Kohn, C. Hattig, J. Chem. Phys. 116, 3175 (2002)
                    Sc-Zn : Obtained from the EMSL Basis Set Exchange (bse.pnl.gov) Feb. 2017
                            J. G. Hill, J. A. Platts, J. Chem. Phys. 128, 044104 (2008)

The basis set includes element-specific modifications.

Your calculation utilizes the auxiliary basis: cc-pVTZ/C 
  Obtained from the EMSL Basis Set Exchange (bse.pnl.gov) Feb. 2017
  H-He, B-F, Al-Ar, Ga-Kr : F. Weigend, A. Kohn, C. Hattig, J. Chem. Phys. 116, 3175 (2002)
             Li-Be, Na-Mg : C. Haettig, Phys. Chem. Chem. Phys. 7, 59 (2005)
                       Ne : C. Haettig, Phys. Chem. Chem. Phys. 7, 59 (2005)
                            F. Weigend, A. Kohn, C. Hattig, J. Chem. Phys. 116, 3175 (2002)
                    Sc-Zn : J. G. Hill, J. A. Platts, J. Chem. Phys. 128, 044104 (2008)

================================================================================
                                        WARNINGS
                       Please study these warnings very carefully!
================================================================================


WARNING: Geometry Optimization
  ===> : Switching off AutoStart
         For restart on a previous wavefunction, please use MOREAD

INFO   : the flag for use of the SHARK integral package has been found!



***************************************
The coordinates will be read from file: 
***************************************


Your calculation utilizes the atom-pairwise dispersion correction
with the zero-damping scheme (D30)
Cite in your paper:
S.Grimme, J.Antony, S.Ehrlich and H.Krieg, J.Chem.Phys., 132, (2010), 154104 
   

Your calculation utilizes the SMD solvation module
Please cite in your paper:
A.V. Marenich, C.J. Cramer, D.G. Truhlar J. Phys. Chem. B, 113, (2009), 6378 

XCFun DFT library Copyright 2009-2010 Ulf Ekstrom and contributors.
See http://admol.org/xcfun for more information.
This is free software; see the source code for copying conditions.
There is ABSOLUTELY NO WARRANTY; not even for MERCHANTABILITY or FITNESS FOR A PARTICULAR PURPOSE.
For details see the documentation.
Scientific users of this library should cite U. Ekstrom, L. Visscher, R. Bast, A. J. Thorvaldsen and K. Ruud;
J.Chem.Theor.Comp. 2010, DOI: 10.1021/ct100117s
XCFun Version 0.99 

================================================================================

----- Orbital basis set information -----
Your calculation utilizes the basis: aug-cc-pVTZ 
    H, B-Ne : Obtained from the ccRepo (grant-hill.group.shef.ac.uk/ccrepo) Feb. 2017
              R. A. Kendall, T. H. Dunning, Jr., R. J. Harrison, J. Chem. Phys. 96, 6796 (1992)
         He : Obtained from the ccRepo (grant-hill.group.shef.ac.uk/ccrepo) Feb. 2017
              D. E. Woon, T. H. Dunning, Jr., J. Chem. Phys. 100, 2975 (1994)
  Li-Be, Na : Obtained from the ccRepo (grant-hill.group.shef.ac.uk/ccrepo) Feb. 2017
              B. P. Prascher, D. E. Woon, K. A. Peterson, T. H. Dunning, Jr., A. K. Wilson, Theor. Chem. Acc. 128, 69 (2011)
         Mg : Obtained from the Peterson Research Group Website (tyr0.chem.wsu.edu/~kipeters) Feb. 2017
              B. P. Prascher, D. E. Woon, K. A. Peterson, T. H. Dunning, Jr., A. K. Wilson, Theor. Chem. Acc. 128, 69 (2011)
      Al-Ar : Obtained from the ccRepo (grant-hill.group.shef.ac.uk/ccrepo) Feb. 2017
              D. E. Woon, T. H. Dunning, Jr., J. Chem. Phys. 98, 1358 (1993)
      Sc-Zn : Obtained from the ccRepo (grant-hill.group.shef.ac.uk/ccrepo) Feb. 2017
              N. B. Balabanov, K. A. Peterson, J. Chem. Phys. 123, 064107 (2005)
              N. B. Balabanov, K. A. Peterson, J. Chem. Phys. 125, 074110 (2006)
      Ga-Kr : Obtained from the ccRepo (grant-hill.group.shef.ac.uk/ccrepo) Feb. 2017
              A. K. Wilson, D. E. Woon, K. A. Peterson, T. H. Dunning, Jr., J. Chem. Phys. 110, 7667 (1999)
     Ag, Au : Obtained from the Peterson Research Group Website (tyr0.chem.wsu.edu/~kipeters) Feb. 2017
              K. A. Peterson, C. Puzzarini, Theor. Chem. Acc. 114, 283 (2005)

The basis set includes element-specific modifications.

Your calculation utilizes the basis: cc-pVTZ 
       H, B-Ne : Obtained from the ccRepo (grant-hill.group.shef.ac.uk/ccrepo) Feb. 2017
                 T. H. Dunning, Jr., J. Chem. Phys. 90, 1007 (1989)
            He : Obtained from the ccRepo (grant-hill.group.shef.ac.uk/ccrepo) Feb. 2017
                 D. E. Woon, T. H. Dunning, Jr., J. Chem. Phys. 100, 2975 (1994)
  Li-Be, Na-Mg : Obtained from the ccRepo (grant-hill.group.shef.ac.uk/ccrepo) Feb. 2017
                 B. P. Prascher, D. E. Woon, K. A. Peterson, T. H. Dunning, Jr., A. K. Wilson, Theor. Chem. Acc. 128, 69 (2011)
         Al-Ar : Obtained from the ccRepo (grant-hill.group.shef.ac.uk/ccrepo) Feb. 2017
                 D. E. Woon, T. H. Dunning, Jr., J. Chem. Phys. 98, 1358 (1993)
            Ca : Obtained from the Peterson Research Group Website (tyr0.chem.wsu.edu/~kipeters) Feb. 2017
                 J. Koput, K. A. Peterson, J. Phys. Chem. 106, 9595 (2002)
         Sc-Zn : Obtained from the ccRepo (grant-hill.group.shef.ac.uk/ccrepo) Feb. 2017
                 N. B. Balabanov, K. A. Peterson, J. Chem. Phys. 123, 064107 (2005)
                 N. B. Balabanov, K. A. Peterson, J. Chem. Phys. 125, 074110 (2006)
         Ga-Kr : Obtained from the ccRepo (grant-hill.group.shef.ac.uk/ccrepo) Feb. 2017
                 A. K. Wilson, D. E. Woon, K. A. Peterson, T. H. Dunning, Jr., J. Chem. Phys. 110, 7667 (1999)
             Y : Obtained from the ccRepo (grant-hill.group.shef.ac.uk/ccrepo) Feb. 2017
                 K. A. Peterson, D. Figgen, M. Dolg, H. Stoll, J. Chem. Phys. 126, 124101 (2007)
        Ag, Au : Obtained from the Peterson Research Group Website (tyr0.chem.wsu.edu/~kipeters) Feb. 2017
                 K. A. Peterson, C. Puzzarini, Theor. Chem. Acc. 114, 283 (2005)

----- AuxJ basis set information -----
Your calculation utilizes the auxiliary basis: aug-cc-pVTZ/JK 
  H, B-F, Al-Cl, Ga-Br : Obtained from the TURBOMOLE 7.0 basis set library

The basis set includes element-specific modifications.

Your calculation utilizes the auxiliary basis: cc-pVTZ/JK 
  H, B-F, Al-Cl, Ga-Br : Obtained from the TURBOMOLE 7.0 basis set library

----- AuxC basis set information -----
Your calculation utilizes the auxiliary basis: aug-cc-pVTZ/C 
  H-He, B-F, Al-Ar, Ga-Kr : Obtained from the EMSL Basis Set Exchange (bse.pnl.gov) Feb. 2017
                            F. Weigend, A. Kohn, C. Hattig, J. Chem. Phys. 116, 3175 (2002)
                   Be, Mg : Obtained from the TURBOMOLE 7.0 basis set library
                            C. Haettig, Phys. Chem. Chem. Phys. 7, 59 (2005)
                       Ne : Obtained from the EMSL Basis Set Exchange (bse.pnl.gov) Feb. 2017
                            C. Haettig, Phys. Chem. Chem. Phys. 7, 59 (2005)
                            F. Weigend, A. Kohn, C. Hattig, J. Chem. Phys. 116, 3175 (2002)
                    Sc-Zn : Obtained from the EMSL Basis Set Exchange (bse.pnl.gov) Feb. 2017
                            J. G. Hill, J. A. Platts, J. Chem. Phys. 128, 044104 (2008)

The basis set includes element-specific modifications.

Your calculation utilizes the auxiliary basis: cc-pVTZ/C 
  Obtained from the EMSL Basis Set Exchange (bse.pnl.gov) Feb. 2017
  H-He, B-F, Al-Ar, Ga-Kr : F. Weigend, A. Kohn, C. Hattig, J. Chem. Phys. 116, 3175 (2002)
             Li-Be, Na-Mg : C. Haettig, Phys. Chem. Chem. Phys. 7, 59 (2005)
                       Ne : C. Haettig, Phys. Chem. Chem. Phys. 7, 59 (2005)
                            F. Weigend, A. Kohn, C. Hattig, J. Chem. Phys. 116, 3175 (2002)
                    Sc-Zn : J. G. Hill, J. A. Platts, J. Chem. Phys. 128, 044104 (2008)

================================================================================
                                        WARNINGS
                       Please study these warnings very carefully!
================================================================================

INFO   : Checking CIS options ...

INFO   : the flag for use of the SHARK integral package has been found!

================================================================================
                                       INPUT FILE
================================================================================
NAME = wb97x-d3-train-1.inp
|  1> ! wb97x-d3 aug-cc-PVTZ RIJCOSX Opt
|  2> %maxcore 4000
|  3> %basis
|  4>  AuxJ "aug-cc-PVTZ/JK"
|  5>  AuxC "aug-cc-PVTZ/C"
|  6>  newGTO H "cc-PVTZ" end
|  7>  newAuxJGTO H "cc-PVTZ/JK" end
|  8>  newAuxCGTO H "cc-PVTZ/C" end
|  9> end
| 10> %cpcm
| 11>  SMD true
| 12>  SMDsolvent "cyclohexane"
| 13> end
| 14> %pal nprocs 4 end
| 15> * xyz 0 1
| 16> F         -0.24810       -1.64740       -1.94630
| 17> B         -0.02410       -1.38450       -0.61380
| 18> F          0.17410       -2.55790        0.07750
| 19> N         -1.23320       -0.61900       -0.01780
| 20> C         -2.48730       -1.04400        0.05700
| 21> C         -3.29420       -0.06750        0.65890
| 22> C         -2.47560        0.99680        0.95860
| 23> C         -1.17200        0.64600        0.52970
| 24> C          0.02230        1.34530        0.59030
| 25> C          1.19590        0.79430        0.10240
| 26> C          2.51470        1.30920        0.05800
| 27> C          3.29980        0.34520       -0.53110
| 28> C          2.45810       -0.73450       -0.83550
| 29> N          1.21500       -0.46570       -0.45960
| 30> H         -2.76280       -2.01260       -0.31430
| 31> H         -4.34690       -0.15340        0.84190
| 32> H         -2.74500        1.92360        1.42590
| 33> H          0.03880        2.33360        1.02470
| 34> H          2.81590        2.27180        0.42210
| 35> H          4.35250        0.39110       -0.72820
| 36> H          2.70190       -1.67060       -1.30040
| 37> *
| 38> 
| 39> 
| 40> $new_job
| 41> ! wb97x-d3 aug-cc-PVTZ RIJCOSX SP
| 42> %maxcore 4000
| 43> %basis
| 44>  AuxJ "aug-cc-PVTZ/JK"
| 45>  AuxC "aug-cc-PVTZ/C"
| 46>  newGTO H "cc-PVTZ" end
| 47>  newAuxJGTO H "cc-PVTZ/JK" end
| 48>  newAuxCGTO H "cc-PVTZ/C" end
| 49> end
| 50> %cpcm
| 51>  SMD true
| 52>  SMDsolvent "cyclohexane"
| 53> end
| 54> %pal nprocs 4 end
| 55> %tddft
| 56>  nroots 10
| 57>  maxdim 7
| 58> end
| 59> * xyzfile 0 1
| 60> 
| 61>                          ****END OF INPUT****
================================================================================


                 $$$$$$$$$$$$$$$$$$$$$$$$$$$$$$$$$$$$$$$$$$$$$$ 
                 $ THERE ARE  2 JOBS TO BE PROCESSED THIS RUN $
                 $$$$$$$$$$$$$$$$$$$$$$$$$$$$$$$$$$$$$$$$$$$$$$ 




                 $$$$$$$$$$$$$$$$  JOB NUMBER  1 $$$$$$$$$$$$$$


                       *****************************
                       * Geometry Optimization Run *
                       *****************************

Geometry optimization settings:
Update method            Update   .... BFGS
Choice of coordinates    CoordSys .... Z-matrix Internals
Initial Hessian          InHess   .... Almoef's Model

Convergence Tolerances:
Energy Change            TolE     ....  5.0000e-06 Eh
Max. Gradient            TolMAXG  ....  3.0000e-04 Eh/bohr
RMS Gradient             TolRMSG  ....  1.0000e-04 Eh/bohr
Max. Displacement        TolMAXD  ....  4.0000e-03 bohr
RMS Displacement         TolRMSD  ....  2.0000e-03 bohr
Strict Convergence                ....  False
------------------------------------------------------------------------------
                        ORCA OPTIMIZATION COORDINATE SETUP
------------------------------------------------------------------------------

The optimization will be done in new redundant internal coordinates
Making redundant internal coordinates   ...  (new redundants) done
Evaluating the initial hessian          ...  (Almloef) done
Evaluating the coordinates              ...  done
Calculating the B-matrix                .... done
Calculating the G-matrix                .... done
Diagonalizing the G-matrix              .... done
The first mode is                       ....   65
The number of degrees of freedom        ....   57

    -----------------------------------------------------------------
                    Redundant Internal Coordinates


    -----------------------------------------------------------------
         Definition                    Initial Value    Approx d2E/dq
    -----------------------------------------------------------------
      1. B(B   1,F   0)                  1.3765         0.632800   
      2. B(F   2,B   1)                  1.3762         0.633478   
      3. B(N   3,B   1)                  1.5502         0.359832   
      4. B(C   4,N   3)                  1.3263         0.707222   
      5. B(C   5,C   4)                  1.4025         0.596819   
      6. B(C   6,C   5)                  1.3757         0.658399   
      7. B(C   7,N   3)                  1.3798         0.581057   
      8. B(C   7,C   6)                  1.4165         0.566900   
      9. B(C   8,C   7)                  1.3853         0.635687   
     10. B(C   9,C   8)                  1.3853         0.635738   
     11. B(C  10,C   9)                  1.4164         0.566946   
     12. B(C  11,C  10)                  1.3758         0.658350   
     13. B(C  12,C  11)                  1.4025         0.596861   
     14. B(N  13,C   9)                  1.3798         0.580994   
     15. B(N  13,B   1)                  1.5503         0.359742   
     16. B(N  13,C  12)                  1.3262         0.707354   
     17. B(H  14,C   4)                  1.0733         0.382899   
     18. B(H  15,C   5)                  1.0719         0.384808   
     19. B(H  16,C   6)                  1.0723         0.384242   
     20. B(H  17,C   8)                  1.0797         0.374012   
     21. B(H  18,C  10)                  1.0723         0.384252   
     22. B(H  19,C  11)                  1.0720         0.384751   
     23. B(H  20,C  12)                  1.0732         0.382962   
     24. A(F   2,B   1,N   3)          109.8909         0.395568   
     25. A(F   0,B   1,N   3)          109.8498         0.395494   
     26. A(F   0,B   1,F   2)          110.2941         0.435456   
     27. A(F   2,B   1,N  13)          109.8919         0.395551   
     28. A(N   3,B   1,N  13)          107.0078         0.360191   
     29. A(F   0,B   1,N  13)          109.8489         0.395476   
     30. A(B   1,N   3,C   7)          124.7990         0.387976   
     31. A(B   1,N   3,C   4)          126.9391         0.401573   
     32. A(C   4,N   3,C   7)          108.2617         0.433578   
     33. A(N   3,C   4,H  14)          120.8239         0.362425   
     34. A(N   3,C   4,C   5)          110.1892         0.438548   
     35. A(C   5,C   4,H  14)          128.9870         0.354303   
     36. A(C   6,C   5,H  15)          127.5282         0.360572   
     37. A(C   4,C   5,H  15)          125.6258         0.354602   
     38. A(C   4,C   5,C   6)          106.8460         0.435787   
     39. A(C   5,C   6,H  16)          127.8845         0.360481   
     40. A(C   5,C   6,C   7)          106.8613         0.431774   
     41. A(C   7,C   6,H  16)          125.2542         0.351441   
     42. A(C   6,C   7,C   8)          130.9321         0.429061   
     43. A(N   3,C   7,C   8)          121.2260         0.428151   
     44. A(N   3,C   7,C   6)          107.8418         0.419473   
     45. A(C   7,C   8,C   9)          120.9437         0.437998   
     46. A(C   9,C   8,H  17)          119.5280         0.356697   
     47. A(C   7,C   8,H  17)          119.5282         0.356693   
     48. A(C   8,C   9,C  10)          130.9380         0.429074   
     49. A(C  10,C   9,N  13)          107.8364         0.419471   
     50. A(C   8,C   9,N  13)          121.2255         0.428149   
     51. A(C   9,C  10,C  11)          106.8598         0.431774   
     52. A(C  11,C  10,H  18)          127.8867         0.360478   
     53. A(C   9,C  10,H  18)          125.2534         0.351447   
     54. A(C  12,C  11,H  19)          125.6215         0.354597   
     55. A(C  10,C  11,H  19)          127.5269         0.360558   
     56. A(C  10,C  11,C  12)          106.8517         0.435787   
     57. A(C  11,C  12,N  13)          110.1813         0.438568   
     58. A(N  13,C  12,H  20)          120.8295         0.362447   
     59. A(C  11,C  12,H  20)          128.9892         0.354317   
     60. A(C   9,N  13,C  12)          108.2708         0.433584   
     61. A(B   1,N  13,C  12)          126.9323         0.401568   
     62. A(B   1,N  13,C   9)          124.7968         0.387952   
     63. D(C   7,N   3,B   1,N  13)      0.3569         0.009321   
     64. D(C   7,N   3,B   1,F   0)   -118.8473         0.009321   
     65. D(C   4,N   3,B   1,F   0)     60.9941         0.009321   
     66. D(C   7,N   3,B   1,F   2)    119.6352         0.009321   
     67. D(C   4,N   3,B   1,F   2)    -60.5233         0.009321   
     68. D(C   4,N   3,B   1,N  13)   -179.8017         0.009321   
     69. D(H  14,C   4,N   3,C   7)    179.9976         0.041476   
     70. D(C   5,C   4,N   3,B   1)   -179.8669         0.041476   
     71. D(H  14,C   4,N   3,B   1)      0.1347         0.041476   
     72. D(C   5,C   4,N   3,C   7)     -0.0040         0.041476   
     73. D(C   6,C   5,C   4,H  14)   -179.9981         0.024541   
     74. D(H  15,C   5,C   4,H  14)      0.0110         0.024541   
     75. D(C   6,C   5,C   4,N   3)      0.0037         0.024541   
     76. D(H  15,C   5,C   4,N   3)   -179.9872         0.024541   
     77. D(C   7,C   6,C   5,C   4)     -0.0018         0.030238   
     78. D(H  16,C   6,C   5,H  15)      0.0031         0.030238   
     79. D(H  16,C   6,C   5,C   4)   -179.9875         0.030238   
     80. D(C   7,C   6,C   5,H  15)    179.9888         0.030238   
     81. D(C   8,C   7,C   6,H  16)      0.0554         0.022035   
     82. D(C   8,C   7,C   6,C   5)   -179.9308         0.022035   
     83. D(N   3,C   7,C   6,H  16)    179.9857         0.022035   
     84. D(N   3,C   7,C   6,C   5)     -0.0005         0.022035   
     85. D(C   8,C   7,N   3,C   4)    179.9412         0.027086   
     86. D(C   8,C   7,N   3,B   1)     -0.1923         0.027086   
     87. D(C   6,C   7,N   3,C   4)      0.0028         0.027086   
     88. D(C   6,C   7,N   3,B   1)    179.8693         0.027086   
     89. D(H  17,C   8,C   7,C   6)     -0.0707         0.028051   
     90. D(C   9,C   8,C   7,C   6)    179.8818         0.028051   
     91. D(C   9,C   8,C   7,N   3)     -0.0406         0.028051   
     92. D(H  17,C   8,C   7,N   3)   -179.9931         0.028051   
     93. D(C  10,C   9,C   8,C   7)   -179.8824         0.028056   
     94. D(N  13,C   9,C   8,H  17)    179.9930         0.028056   
     95. D(N  13,C   9,C   8,C   7)      0.0404         0.028056   
     96. D(C  10,C   9,C   8,H  17)      0.0701         0.028056   
     97. D(H  18,C  10,C   9,N  13)    179.9993         0.022039   
     98. D(H  18,C  10,C   9,C   8)     -0.0700         0.022039   
     99. D(C  11,C  10,C   9,N  13)     -0.0019         0.022039   
    100. D(C  11,C  10,C   9,C   8)    179.9288         0.022039   
    101. D(H  19,C  11,C  10,H  18)      0.0007         0.030233   
    102. D(H  19,C  11,C  10,C   9)   -179.9980         0.030233   
    103. D(C  12,C  11,C  10,H  18)   -179.9969         0.030233   
    104. D(C  12,C  11,C  10,C   9)      0.0044         0.030233   
    105. D(H  20,C  12,C  11,H  19)      0.0061         0.024545   
    106. D(H  20,C  12,C  11,C  10)   -179.9963         0.024545   
    107. D(N  13,C  12,C  11,H  19)    179.9968         0.024545   
    108. D(N  13,C  12,C  11,C  10)     -0.0056         0.024545   
    109. D(C   9,N  13,C  12,H  20)    179.9960         0.041493   
    110. D(B   1,N  13,C  12,H  20)     -0.1405         0.041493   
    111. D(B   1,N  13,C  12,C  11)    179.8679         0.041493   
    112. D(C  12,N  13,C   9,C  10)     -0.0016         0.027080   
    113. D(C  12,N  13,C   9,C   8)   -179.9403         0.027080   
    114. D(B   1,N  13,C   9,C  10)   -179.8687         0.027080   
    115. D(B   1,N  13,C   9,C   8)      0.1926         0.027080   
    116. D(C  12,N  13,B   1,N   3)    179.8008         0.009317   
    117. D(C  12,N  13,B   1,F   2)     60.5231         0.009317   
    118. D(C  12,N  13,B   1,F   0)    -60.9944         0.009317   
    119. D(C   9,N  13,B   1,N   3)     -0.3570         0.009317   
    120. D(C   9,N  13,C  12,C  11)      0.0044         0.041493   
    121. D(C   9,N  13,B   1,F   2)   -119.6347         0.009317   
    122. D(C   9,N  13,B   1,F   0)    118.8477         0.009317   
    -----------------------------------------------------------------

Number of atoms                         .... 21
Number of degrees of freedom            .... 122

         *************************************************************
         *                GEOMETRY OPTIMIZATION CYCLE   1            *
         *************************************************************
---------------------------------
CARTESIAN COORDINATES (ANGSTROEM)
---------------------------------
  F     -0.248100   -1.647400   -1.946300
  B     -0.024100   -1.384500   -0.613800
  F      0.174100   -2.557900    0.077500
  N     -1.233200   -0.619000   -0.017800
  C     -2.487300   -1.044000    0.057000
  C     -3.294200   -0.067500    0.658900
  C     -2.475600    0.996800    0.958600
  C     -1.172000    0.646000    0.529700
  C      0.022300    1.345300    0.590300
  C      1.195900    0.794300    0.102400
  C      2.514700    1.309200    0.058000
  C      3.299800    0.345200   -0.531100
  C      2.458100   -0.734500   -0.835500
  N      1.215000   -0.465700   -0.459600
  H     -2.762800   -2.012600   -0.314300
  H     -4.346900   -0.153400    0.841900
  H     -2.745000    1.923600    1.425900
  H      0.038800    2.333600    1.024700
  H      2.815900    2.271800    0.422100
  H      4.352500    0.391100   -0.728200
  H      2.701900   -1.670600   -1.300400

----------------------------
CARTESIAN COORDINATES (A.U.)
----------------------------
  NO LB      ZA    FRAG     MASS         X           Y           Z
   0 F     9.0000    0    18.998   -0.468841   -3.113135   -3.677974
   1 B     5.0000    0    10.810   -0.045542   -2.616326   -1.159914
   2 F     9.0000    0    18.998    0.329001   -4.833730    0.146454
   3 N     7.0000    0    14.007   -2.330410   -1.169740   -0.033637
   4 C     6.0000    0    12.011   -4.700316   -1.972874    0.107714
   5 C     6.0000    0    12.011   -6.225136   -0.127557    1.245141
   6 C     6.0000    0    12.011   -4.678206    1.883679    1.811491
   7 C     6.0000    0    12.011   -2.214759    1.220763    1.000988
   8 C     6.0000    0    12.011    0.042141    2.542249    1.115505
   9 C     6.0000    0    12.011    2.259923    1.501009    0.193508
  10 C     6.0000    0    12.011    4.752094    2.474029    0.109604
  11 C     6.0000    0    12.011    6.235718    0.652333   -1.003634
  12 C     6.0000    0    12.011    4.645136   -1.388004   -1.578866
  13 N     7.0000    0    14.007    2.296017   -0.880045   -0.868518
  14 H     1.0000    0     1.008   -5.220935   -3.803263   -0.593941
  15 H     1.0000    0     1.008   -8.214451   -0.289884    1.590960
  16 H     1.0000    0     1.008   -5.187298    3.635077    2.694560
  17 H     1.0000    0     1.008    0.073321    4.409865    1.936402
  18 H     1.0000    0     1.008    5.321280    4.293080    0.797653
  19 H     1.0000    0     1.008    8.225033    0.739072   -1.376099
  20 H     1.0000    0     1.008    5.105851   -3.156976   -2.457400

--------------------------------
INTERNAL COORDINATES (ANGSTROEM)
--------------------------------
 F      0   0   0     0.000000000000     0.00000000     0.00000000
 B      1   0   0     1.376535019533     0.00000000     0.00000000
 F      2   1   0     1.376243615789   110.29406026     0.00000000
 N      2   1   3     1.550202909299   109.84982791   238.72415697
 C      4   2   1     1.326268015900   126.93907207    60.99412890
 C      5   4   2     1.402470488103   110.18918188   180.13309584
 C      6   5   4     1.375739997238   106.84597807     0.00000000
 C      4   2   1     1.379756025535   124.79903113   241.15269220
 C      8   4   2     1.385296119969   121.22602553   359.80772735
 C      9   8   4     1.385274113668   120.94371842   359.95940427
 C     10   9   8     1.416448661265   130.93802407   180.11762634
 C     11  10   9     1.375760451532   106.85983150   179.92876810
 C     12  11  10     1.402451546400   106.85166754     0.00000000
 N     13  12  11     1.326217124003   110.18131615     0.00000000
 H      5   4   2     1.073289289987   120.82385624     0.13474243
 H      6   5   4     1.071935212594   125.62583297   180.01280747
 H      7   6   5     1.072335717021   127.88448848   180.01249287
 H      9   8   4     1.079681666048   119.52822943   180.00689439
 H     11  10   9     1.072328778873   125.25342759   359.93001313
 H     12  11  10     1.071975983873   127.52685411   180.00199395
 H     13  12  11     1.073244454912   128.98922445   180.00373003

---------------------------
INTERNAL COORDINATES (A.U.)
---------------------------
 F      0   0   0     0.000000000000     0.00000000     0.00000000
 B      1   0   0     2.601274200669     0.00000000     0.00000000
 F      2   1   0     2.600723527399   110.29406026     0.00000000
 N      2   1   3     2.929458950584   109.84982791   238.72415697
 C      4   2   1     2.506283330231   126.93907207    60.99412890
 C      5   4   2     2.650285133422   110.18918188   180.13309584
 C      6   5   4     2.599771826261   106.84597807     0.00000000
 C      4   2   1     2.607361019889   124.79903113   241.15269220
 C      8   4   2     2.617830281124   121.22602553   359.80772735
 C      9   8   4     2.617788695244   120.94371842   359.95940427
 C     10   9   8     2.676700052551   130.93802407   180.11762634
 C     11  10   9     2.599810479276   106.85983150   179.92876810
 C     12  11  10     2.650249338791   106.85166754     0.00000000
 N     13  12  11     2.506187158483   110.18131615     0.00000000
 H      5   4   2     2.028222820546   120.82385624     0.13474243
 H      6   5   4     2.025663985110   125.62583297   180.01280747
 H      7   6   5     2.026420828793   127.88448848   180.01249287
 H      9   8   4     2.040302660646   119.52822943   180.00689439
 H     11  10   9     2.026407717593   125.25342759   359.93001313
 H     12  11  10     2.025741031660   127.52685411   180.00199395
 H     13  12  11     2.028138094534   128.98922445   180.00373003

---------------------
BASIS SET INFORMATION
---------------------
There are 5 groups of distinct atoms

 Group   1 Type F   : 19s6p3d2f contracted to 5s4p3d2f pattern {88111/3111/111/11}
 Group   2 Type B   : 19s6p3d2f contracted to 5s4p3d2f pattern {88111/3111/111/11}
 Group   3 Type N   : 19s6p3d2f contracted to 5s4p3d2f pattern {88111/3111/111/11}
 Group   4 Type C   : 19s6p3d2f contracted to 5s4p3d2f pattern {88111/3111/111/11}
 Group   5 Type H   : 5s2p1d contracted to 3s2p1d pattern {311/11/1}

Atom   0F    basis set group =>   1
Atom   1B    basis set group =>   2
Atom   2F    basis set group =>   1
Atom   3N    basis set group =>   3
Atom   4C    basis set group =>   4
Atom   5C    basis set group =>   4
Atom   6C    basis set group =>   4
Atom   7C    basis set group =>   4
Atom   8C    basis set group =>   4
Atom   9C    basis set group =>   4
Atom  10C    basis set group =>   4
Atom  11C    basis set group =>   4
Atom  12C    basis set group =>   4
Atom  13N    basis set group =>   3
Atom  14H    basis set group =>   5
Atom  15H    basis set group =>   5
Atom  16H    basis set group =>   5
Atom  17H    basis set group =>   5
Atom  18H    basis set group =>   5
Atom  19H    basis set group =>   5
Atom  20H    basis set group =>   5
---------------------------------
AUXILIARY/J BASIS SET INFORMATION
---------------------------------
There are 5 groups of distinct atoms

 Group   1 Type F   : 10s7p5d2f1g contracted to 10s7p5d2f1g pattern {1111111111/1111111/11111/11/1}
 Group   2 Type B   : 10s7p5d2f1g contracted to 10s7p5d2f1g pattern {1111111111/1111111/11111/11/1}
 Group   3 Type N   : 10s7p5d2f1g contracted to 10s7p5d2f1g pattern {1111111111/1111111/11111/11/1}
 Group   4 Type C   : 10s7p5d2f1g contracted to 10s7p5d2f1g pattern {1111111111/1111111/11111/11/1}
 Group   5 Type H   : 4s3p2d1f contracted to 4s3p2d1f pattern {1111/111/11/1}

Atom   0F    basis set group =>   1
Atom   1B    basis set group =>   2
Atom   2F    basis set group =>   1
Atom   3N    basis set group =>   3
Atom   4C    basis set group =>   4
Atom   5C    basis set group =>   4
Atom   6C    basis set group =>   4
Atom   7C    basis set group =>   4
Atom   8C    basis set group =>   4
Atom   9C    basis set group =>   4
Atom  10C    basis set group =>   4
Atom  11C    basis set group =>   4
Atom  12C    basis set group =>   4
Atom  13N    basis set group =>   3
Atom  14H    basis set group =>   5
Atom  15H    basis set group =>   5
Atom  16H    basis set group =>   5
Atom  17H    basis set group =>   5
Atom  18H    basis set group =>   5
Atom  19H    basis set group =>   5
Atom  20H    basis set group =>   5
---------------------------------
AUXILIARY/C BASIS SET INFORMATION
---------------------------------
There are 5 groups of distinct atoms

 Group   1 Type F   : 9s7p6d4f2g contracted to 9s7p6d4f2g pattern {111111111/1111111/111111/1111/11}
 Group   2 Type B   : 9s7p6d4f2g contracted to 9s7p6d4f2g pattern {111111111/1111111/111111/1111/11}
 Group   3 Type N   : 9s7p6d4f2g contracted to 9s7p6d4f2g pattern {111111111/1111111/111111/1111/11}
 Group   4 Type C   : 9s7p6d4f2g contracted to 9s7p6d4f2g pattern {111111111/1111111/111111/1111/11}
 Group   5 Type H   : 4s3p2d1f contracted to 4s3p2d1f pattern {1111/111/11/1}

Atom   0F    basis set group =>   1
Atom   1B    basis set group =>   2
Atom   2F    basis set group =>   1
Atom   3N    basis set group =>   3
Atom   4C    basis set group =>   4
Atom   5C    basis set group =>   4
Atom   6C    basis set group =>   4
Atom   7C    basis set group =>   4
Atom   8C    basis set group =>   4
Atom   9C    basis set group =>   4
Atom  10C    basis set group =>   4
Atom  11C    basis set group =>   4
Atom  12C    basis set group =>   4
Atom  13N    basis set group =>   3
Atom  14H    basis set group =>   5
Atom  15H    basis set group =>   5
Atom  16H    basis set group =>   5
Atom  17H    basis set group =>   5
Atom  18H    basis set group =>   5
Atom  19H    basis set group =>   5
Atom  20H    basis set group =>   5


           ************************************************************
           *        Program running with 4 parallel MPI-processes     *
           *              working on a common directory               *
           ************************************************************
------------------------------------------------------------------------------
                           ORCA GTO INTEGRAL CALCULATION
                           -- RI-GTO INTEGRALS CHOSEN --
------------------------------------------------------------------------------
------------------------------------------------------------------------------
                   ___                                                        
                  /   \      - P O W E R E D   B Y -                         
                 /     \                                                     
                 |  |  |   _    _      __       _____    __    __             
                 |  |  |  | |  | |    /  \     |  _  \  |  |  /  |          
                  \  \/   | |  | |   /    \    | | | |  |  | /  /          
                 / \  \   | |__| |  /  /\  \   | |_| |  |  |/  /          
                |  |  |   |  __  | /  /__\  \  |    /   |      \           
                |  |  |   | |  | | |   __   |  |    \   |  |\   \          
                \     /   | |  | | |  |  |  |  | |\  \  |  | \   \       
                 \___/    |_|  |_| |__|  |__|  |_| \__\ |__|  \__/        
                                                                              
                      - O R C A' S   B I G   F R I E N D -                    
                                      &                                       
                       - I N T E G R A L  F E E D E R -                       
                                                                              
 v1 FN, 2020, v2 2021                                                         
------------------------------------------------------------------------------


Reading SHARK input file wb97x-d3-train-1.SHARKINP.tmp ... ok
----------------------
SHARK INTEGRAL PACKAGE
----------------------

Number of atoms                             ...     21
Number of basis functions                   ...    826
Number of shells                            ...    322
Maximum angular momentum                    ...      3
Integral batch strategy                     ... SHARK/LIBINT Hybrid
RI-J (if used) integral strategy            ... SPLIT-RIJ (Revised 2003 algorithm where possible)
Printlevel                                  ...      1
Contraction scheme used                     ... PARTIAL GENERAL contraction
Coulomb Range Separation                    ... NOT USED
Exchange Range Separation                   ... Long Range
   Mu parameter                             ...  0.250000
   Scaling (regular/separated)              ...  0.195728  0.804272
Finite Nucleus Model                        ... NOT USED
Auxiliary Coulomb fitting basis             ... AVAILABLE
   # of basis functions in Aux-J            ...   1316
   # of shells in Aux-J                     ...    420
   Maximum angular momentum in Aux-J        ...      4
Auxiliary J/K fitting basis                 ... NOT available
Auxiliary Correlation fitting basis         ... AVAILABLE
   # of basis functions in Aux-C            ...   1694
   # of shells in Aux-C                     ...    462
   Maximum angular momentum in Aux-C        ...      4
Auxiliary 'external' fitting basis          ... NOT available
Integral threshold                          ...     2.500000e-11
Primitive cut-off                           ...     2.500000e-12
Primitive pair pre-selection threshold      ...     2.500000e-12

Calculating pre-screening integrals         ... done (  0.2 sec) Dimension = 322
Calculating pre-screening integrals (ORCA)  ... done (  0.3 sec) Dimension = 238
Organizing shell pair data                  ... done (  0.5 sec)
Shell pair information
Total number of shell pairs                 ...     52003
Shell pairs after pre-screening             ...     39352
Total number of primitive shell pairs       ...     66493
Primitive shell pairs kept                  ...     46476
          la=0 lb=0:   8957 shell pairs
          la=1 lb=0:   9791 shell pairs
          la=1 lb=1:   2253 shell pairs
          la=2 lb=0:   6709 shell pairs
          la=2 lb=1:   3092 shell pairs
          la=2 lb=2:   1100 shell pairs
          la=3 lb=0:   3972 shell pairs
          la=3 lb=1:   1814 shell pairs
          la=3 lb=2:   1273 shell pairs
          la=3 lb=3:    391 shell pairs

Calculating one electron integrals          ... done (  0.1 sec)
Calculating RI/J V-Matrix + Cholesky decomp.... done (  0.2 sec)
Calculating RI/C V-Matrix + Cholesky decomp.... done (  0.2 sec)
Calculating Nuclear repulsion               ... done (  0.0 sec) ENN=    866.723037408548 Eh

SHARK setup successfully completed in   3.2 seconds

Maximum memory used throughout the entire GTOINT-calculation: 59.3 MB


           ************************************************************
           *        Program running with 4 parallel MPI-processes     *
           *              working on a common directory               *
           ************************************************************
-------------------------------------------------------------------------------
                                 ORCA SCF
-------------------------------------------------------------------------------

------------
SCF SETTINGS
------------
Hamiltonian:
 Density Functional     Method          .... DFT(GTOs)
 Exchange Functional    Exchange        .... WB97X-D3
 Correlation Functional Correlation     .... WB97X-D3
 Gradients option       PostSCFGGA      .... off
 Hybrid DFT is turned on
   Fraction HF Exchange ScalHFX         ....  0.195728
   Scaling of DF-GGA-X  ScalDFX         ....  0.000000
   Scaling of DF-GGA-C  ScalDFC         ....  1.000000
   Scaling of DF-LDA-C  ScalLDAC        ....  1.000000
   Perturbative correction              ....  0.000000
   Density functional embedding theory  .... OFF
 Long-range corrected/Screened/Range-Separated Hybrid DFT is turned on
   Amount of maximum screened exact exchange              ....  0.804272
   Range separation parameter mu (erf(mu*r12)/r12)        ....  0.250000
 RI-approximation to the Coulomb term is turned on
   Number of AuxJ basis functions       .... 1316
   RIJ-COSX (HFX calculated with COS-X)).... on


General Settings:
 Integral files         IntName         .... wb97x-d3-train-1
 Hartree-Fock type      HFTyp           .... RHF
 Total Charge           Charge          ....    0
 Multiplicity           Mult            ....    1
 Number of Electrons    NEL             ....   98
 Basis Dimension        Dim             ....  742
 Nuclear Repulsion      ENuc            ....    866.7230374085 Eh

Convergence Acceleration:
 DIIS                   CNVDIIS         .... on
   Start iteration      DIISMaxIt       ....    12
   Startup error        DIISStart       ....  0.200000
   # of expansion vecs  DIISMaxEq       ....     5
   Bias factor          DIISBfac        ....   1.050
   Max. coefficient     DIISMaxC        ....  10.000
 Trust-Rad. Augm. Hess. CNVTRAH         .... auto
   Auto Start mean grad. ratio tolernc. ....  1.125000
   Auto Start start iteration           ....    20
   Auto Start num. interpolation iter.  ....    10
   Max. Number of Micro iterations      ....    16
   Max. Number of Macro iterations      .... Maxiter - #DIIS iter
   Number of Davidson start vectors     ....     2
   Converg. threshold I  (grad. norm)   ....   1.000e-05
   Converg. threshold II (energy diff.) ....   1.000e-08
   Grad. Scal. Fac. for Micro threshold ....   0.100
   Minimum threshold for Micro iter.    ....   0.010
   NR start threshold (gradient norm)   ....   0.001
   Initial trust radius                 ....   0.400
   Minimum AH scaling param. (alpha)    ....   1.000
   Maximum AH scaling param. (alpha)    .... 1000.000
   Orbital update algorithm             .... Taylor
   White noise on init. David. guess    .... on
   Maximum white noise                  ....   0.010
   Quad. conv. algorithm                .... NR
 SOSCF                  CNVSOSCF        .... on
   Start iteration      SOSCFMaxIt      ....   150
   Startup grad/error   SOSCFStart      ....  0.003300
 Level Shifting         CNVShift        .... on
   Level shift para.    LevelShift      ....    0.2500
   Turn off err/grad.   ShiftErr        ....    0.0010
 Zerner damping         CNVZerner       .... off
 Static damping         CNVDamp         .... on
   Fraction old density DampFac         ....    0.7000
   Max. Damping (<1)    DampMax         ....    0.9800
   Min. Damping (>=0)   DampMin         ....    0.0000
   Turn off err/grad.   DampErr         ....    0.1000
 Fernandez-Rico         CNVRico         .... off

SCF Procedure:
 Maximum # iterations   MaxIter         ....   125
 SCF integral mode      SCFMode         .... Direct
   Integral package                     .... SHARK and LIBINT hybrid scheme
 Reset frequency        DirectResetFreq ....    20
 Integral Threshold     Thresh          ....  2.500e-11 Eh
 Primitive CutOff       TCut            ....  2.500e-12 Eh

Convergence Tolerance:
 Convergence Check Mode ConvCheckMode   .... Total+1el-Energy
 Convergence forced     ConvForced      .... 0
 Energy Change          TolE            ....  1.000e-08 Eh
 1-El. energy change                    ....  1.000e-05 Eh
 Orbital Gradient       TolG            ....  1.000e-05
 Orbital Rotation angle TolX            ....  1.000e-05
 DIIS Error             TolErr          ....  5.000e-07


Diagonalization of the overlap matrix:
Smallest eigenvalue                        ... 1.822e-06
Time for diagonalization                   ...    0.146 sec
Threshold for overlap eigenvalues          ... 1.000e-08
Number of eigenvalues below threshold      ... 0
Time for construction of square roots      ...    0.081 sec
Total time needed                          ...    0.231 sec

Time for model grid setup =    0.329 sec

------------------------------
INITIAL GUESS: MODEL POTENTIAL
------------------------------
Loading Hartree-Fock densities                     ... done
Calculating cut-offs                               ... done
Initializing the effective Hamiltonian             ... done
Setting up the integral package (SHARK)            ... done
Starting the Coulomb interaction                   ... done (   1.1 sec)
Reading the grid                                   ... done
Mapping shells                                     ... done
Starting the XC term evaluation                    ... done (   1.0 sec)
  promolecular density results
     # of electrons  =     97.997283186
     EX              =    -85.115693484
     EC              =     -3.322347427
     EX+EC           =    -88.438040911
Transforming the Hamiltonian                       ... done (   0.1 sec)
Diagonalizing the Hamiltonian                      ... done (   0.1 sec)
Back transforming the eigenvectors                 ... done (   0.0 sec)
Now organizing SCF variables                       ... done
                      ------------------
                      INITIAL GUESS DONE (   2.7 sec)
                      ------------------
-------------------
DFT GRID GENERATION
-------------------

General Integration Accuracy     IntAcc      ... 4.388
Radial Grid Type                 RadialGrid  ... OptM3 with GC (2021)
Angular Grid (max. ang.)         AngularGrid ... 4 (Lebedev-302)
Angular grid pruning method      GridPruning ... 4 (adaptive)
Weight generation scheme         WeightScheme... Becke
Basis function cutoff            BFCut       ... 1.0000e-11
Integration weight cutoff        WCut        ... 1.0000e-14
Angular grids for H and He will be reduced by one unit
Partially contracted basis set               ... off
Rotationally invariant grid construction     ... off

Total number of grid points                  ...   110048
Total number of batches                      ...     1728
Average number of points per batch           ...       63
Average number of grid points per atom       ...     5240
Time for grid setup =    1.241 sec

--------------------
COSX GRID GENERATION
--------------------

GRIDX 1
-------
General Integration Accuracy     IntAcc      ... 3.816
Radial Grid Type                 RadialGrid  ... OptM3 with GC (2021)
Angular Grid (max. ang.)         AngularGrid ... 1 (Lebedev-50)
Angular grid pruning method      GridPruning ... 4 (adaptive)
Weight generation scheme         WeightScheme... Becke
Basis function cutoff            BFCut       ... 1.0000e-11
Integration weight cutoff        WCut        ... 1.0000e-14
Angular grids for H and He will be reduced by one unit
Partially contracted basis set               ... on
Rotationally invariant grid construction     ... off

Total number of grid points                  ...    13989
Total number of batches                      ...      231
Average number of points per batch           ...       60
Average number of grid points per atom       ...      666
UseSFitting                                  ... on

GRIDX 2
-------
General Integration Accuracy     IntAcc      ... 4.020
Radial Grid Type                 RadialGrid  ... OptM3 with GC (2021)
Angular Grid (max. ang.)         AngularGrid ... 2 (Lebedev-110)
Angular grid pruning method      GridPruning ... 4 (adaptive)
Weight generation scheme         WeightScheme... Becke
Basis function cutoff            BFCut       ... 1.0000e-11
Integration weight cutoff        WCut        ... 1.0000e-14
Angular grids for H and He will be reduced by one unit
Partially contracted basis set               ... on
Rotationally invariant grid construction     ... off

Total number of grid points                  ...    34307
Total number of batches                      ...      545
Average number of points per batch           ...       62
Average number of grid points per atom       ...     1634
UseSFitting                                  ... on

GRIDX 3
-------
General Integration Accuracy     IntAcc      ... 4.338
Radial Grid Type                 RadialGrid  ... OptM3 with GC (2021)
Angular Grid (max. ang.)         AngularGrid ... 3 (Lebedev-194)
Angular grid pruning method      GridPruning ... 4 (adaptive)
Weight generation scheme         WeightScheme... Becke
Basis function cutoff            BFCut       ... 1.0000e-11
Integration weight cutoff        WCut        ... 1.0000e-14
Angular grids for H and He will be reduced by one unit
Partially contracted basis set               ... on
Rotationally invariant grid construction     ... off

Total number of grid points                  ...    74089
Total number of batches                      ...     1168
Average number of points per batch           ...       63
Average number of grid points per atom       ...     3528
UseSFitting                                  ... on

Time for X-Grid setup             =    2.452 sec


--------------------
CPCM SOLVATION MODEL
--------------------
CPCM parameters:
  Epsilon                                         ...       2.0165
  Refrac                                          ...       1.4266
  Rsolv                                           ...       1.3000
  Surface type                                    ... GAUSSIAN VDW
  Epsilon function type                           ...         CPCM
Solvent:                                     ... CYCLOHEXANE
SMD-CDS solvent descriptors:
  Soln                                       ...    1.4266
  Soln25                                     ...    1.4235
  Sola                                       ...    0.0000
  Solb                                       ...    0.0000
  Solg                                       ...   35.4800
  Solc                                       ...    0.0000
  Solh                                       ...    0.0000
Radii:
 Radius for F  used is    3.2692 Bohr (=   1.7300 Ang.)
 Radius for B  used is    3.6283 Bohr (=   1.9200 Ang.)
 Radius for N  used is    3.5716 Bohr (=   1.8900 Ang.)
 Radius for C  used is    3.4960 Bohr (=   1.8500 Ang.)
 Radius for H  used is    2.2677 Bohr (=   1.2000 Ang.)
Calculating surface                               ...        done! (  0.0s)
GEPOL surface points                              ...         1218
GEPOL Volume                                      ...    1223.4663
GEPOL Surface-area                                ...     700.3562
Calculating surface distance matrix               ...        done! (  0.0s)
Performing Cholesky decomposition & store         ...        done! (  0.1s)
Overall time for CPCM initialization              ...                 0.1s
 re-compute Schwartz prescreening matrix in partically contracted basis (1) ...done (   0.158 sec)
--------------
SCF ITERATIONS
--------------
ITER       Energy         Delta-E        Max-DP      RMS-DP      [F,P]     Damp
               ***  Starting incremental Fock matrix formation  ***
  0   -681.1957125366   0.000000000000 0.07536232  0.00081915  0.1972541 0.7000
  1   -681.2883445256  -0.092631988981 0.05787082  0.00060161  0.0989084 0.7000
                               ***Turning on DIIS***
  2   -681.3372697014  -0.048925175831 0.12410609  0.00138487  0.0441891 0.0000
  3   -681.4215376148  -0.084267913335 0.06409215  0.00051715  0.0437059 0.0000
  4   -681.4314499270  -0.009912312217 0.02518397  0.00017041  0.0063334 0.0000
  5   -681.4317953861  -0.000345459124 0.00743155  0.00006050  0.0038733 0.0000
                      *** Initiating the SOSCF procedure ***
                           *** Shutting down DIIS ***
                      *** Re-Reading the Fockian *** 
                      *** Removing any level shift *** 
ITER      Energy       Delta-E        Grad      Rot      Max-DP    RMS-DP
  6   -681.43187922  -0.0000838380  0.001421  0.001421  0.003106  0.000023
               *** Restarting incremental Fock matrix formation ***
  7   -681.43190627  -0.0000270495  0.000618  0.001740  0.017571  0.000136
  8   -681.43191622  -0.0000099475  0.000313  0.001866  0.008733  0.000071
  9   -681.43191845  -0.0000022277  0.000113  0.000417  0.007672  0.000059
 10   -681.43191917  -0.0000007226  0.000020  0.000072  0.002743  0.000015
 11   -681.43191921  -0.0000000356  0.000019  0.000044  0.001934  0.000008
                  ***Gradient check signals convergence***
              ***Rediagonalizing the Fockian in SOSCF/NRSCF***

               *****************************************************
               *                     SUCCESS                       *
               *           SCF CONVERGED AFTER  12 CYCLES          *
               *****************************************************

Old exchange energy                            =    -27.496683731 Eh
New exchange energy                            =    -27.496696521 Eh
Exchange energy change after final integration =     -0.000012790 Eh
Total energy after final integration           =   -681.431932027 Eh
Final COS-X integration done in                =    91.919 sec

SMD CDS free energy correction energy :                -4.44040     Kcal/mol
Total Energy after SMD CDS correction =              -681.439008247 Eh

----------------
TOTAL SCF ENERGY
----------------

Total Energy       :         -681.43900825 Eh          -18542.89812 eV

Components:
Nuclear Repulsion  :          866.72303741 Eh           23584.73287 eV
Electronic Energy  :        -1548.16204566 Eh          -42127.63099 eV
One Electron Energy:        -2651.61655008 Eh          -72154.15457 eV
Two Electron Energy:         1103.45450442 Eh           30026.52358 eV
Max COSX asymmetry :            0.00000856 Eh               0.00023 eV
CPCM Dielectric    :           -0.01040016 Eh              -0.28300 eV
SMD CDS (Gcds)     :           -0.00707622 Eh              -0.19255 eV

Virial components:
Potential Energy   :        -1359.46296176 Eh          -36992.86787 eV
Kinetic Energy     :          678.02395351 Eh           18449.96975 eV
Virial Ratio       :            2.00503678


DFT components:
N(Alpha)           :       49.000009528146 electrons
N(Beta)            :       49.000009528146 electrons
N(Total)           :       98.000019056292 electrons
E(XC)              :      -62.891543047215 Eh       
DFET-embed. en.    :        0.000000000000 Eh       
CPCM Solvation Model Properties:
Surface-charge          :           -0.04122379
Charge-correction       :            0.00003134 Eh               0.00085 eV
Free-energy (cav+disp)  :           -0.00707622 Eh              -0.19255 eV

---------------
SCF CONVERGENCE
---------------

  Last Energy change         ...   -3.0122e-08  Tolerance :   1.0000e-08
  Last MAX-Density change    ...    4.2188e-15  Tolerance :   1.0000e-07
  Last RMS-Density change    ...    1.8851e-17  Tolerance :   5.0000e-09
  Last Orbital Gradient      ...    2.4252e-06  Tolerance :   1.0000e-05
  Last Orbital Rotation      ...    8.2032e-06  Tolerance :   1.0000e-05

             **** THE GBW FILE WAS UPDATED (wb97x-d3-train-1.gbw) ****
             **** DENSITY wb97x-d3-train-1.scfp WAS UPDATED ****
             **** ENERGY FILE WAS UPDATED (wb97x-d3-train-1.en.tmp) ****
             **** THE GBW FILE WAS UPDATED (wb97x-d3-train-1.gbw) ****
             **** DENSITY wb97x-d3-train-1.scfp WAS UPDATED ****
----------------
ORBITAL ENERGIES
----------------

  NO   OCC          E(Eh)            E(eV) 
   0   2.0000     -24.737697      -673.1469 
   1   2.0000     -24.737545      -673.1428 
   2   2.0000     -14.464747      -393.6058 
   3   2.0000     -14.464727      -393.6052 
   4   2.0000     -10.341768      -281.4138 
   5   2.0000     -10.330642      -281.1110 
   6   2.0000     -10.330624      -281.1106 
   7   2.0000     -10.324000      -280.9303 
   8   2.0000     -10.323985      -280.9299 
   9   2.0000     -10.300286      -280.2850 
  10   2.0000     -10.300254      -280.2842 
  11   2.0000     -10.284202      -279.8474 
  12   2.0000     -10.284180      -279.8468 
  13   2.0000      -6.921433      -188.3418 
  14   2.0000      -1.292875       -35.1809 
  15   2.0000      -1.258519       -34.2460 
  16   2.0000      -1.126823       -30.6624 
  17   2.0000      -1.109424       -30.1890 
  18   2.0000      -0.944405       -25.6986 
  19   2.0000      -0.918902       -25.0046 
  20   2.0000      -0.905719       -24.6459 
  21   2.0000      -0.851815       -23.1791 
  22   2.0000      -0.788686       -21.4612 
  23   2.0000      -0.726504       -19.7692 
  24   2.0000      -0.710392       -19.3307 
  25   2.0000      -0.696552       -18.9541 
  26   2.0000      -0.692444       -18.8424 
  27   2.0000      -0.656483       -17.8638 
  28   2.0000      -0.619553       -16.8589 
  29   2.0000      -0.615162       -16.7394 
  30   2.0000      -0.595335       -16.1999 
  31   2.0000      -0.568985       -15.4829 
  32   2.0000      -0.558332       -15.1930 
  33   2.0000      -0.542875       -14.7724 
  34   2.0000      -0.541691       -14.7402 
  35   2.0000      -0.537780       -14.6337 
  36   2.0000      -0.535851       -14.5812 
  37   2.0000      -0.507900       -13.8206 
  38   2.0000      -0.504165       -13.7190 
  39   2.0000      -0.498782       -13.5725 
  40   2.0000      -0.485991       -13.2245 
  41   2.0000      -0.482313       -13.1244 
  42   2.0000      -0.470239       -12.7959 
  43   2.0000      -0.465820       -12.6756 
  44   2.0000      -0.443984       -12.0814 
  45   2.0000      -0.403692       -10.9850 
  46   2.0000      -0.365358        -9.9419 
  47   2.0000      -0.357347        -9.7239 
  48   2.0000      -0.296713        -8.0740 
  49   0.0000      -0.048412        -1.3174 
  50   0.0000       0.040861         1.1119 
  51   0.0000       0.045355         1.2342 
  52   0.0000       0.050800         1.3823 
  53   0.0000       0.054322         1.4782 
  54   0.0000       0.061603         1.6763 
  55   0.0000       0.063316         1.7229 
  56   0.0000       0.070203         1.9103 
  57   0.0000       0.080111         2.1799 
  58   0.0000       0.088452         2.4069 
  59   0.0000       0.089788         2.4433 
  60   0.0000       0.092957         2.5295 
  61   0.0000       0.093950         2.5565 
  62   0.0000       0.099781         2.7152 
  63   0.0000       0.104535         2.8446 
  64   0.0000       0.107098         2.9143 
  65   0.0000       0.114081         3.1043 
  66   0.0000       0.117610         3.2003 
  67   0.0000       0.127152         3.4600 
  68   0.0000       0.132883         3.6159 
  69   0.0000       0.134512         3.6602 
  70   0.0000       0.135014         3.6739 
  71   0.0000       0.140613         3.8263 
  72   0.0000       0.143016         3.8917 
  73   0.0000       0.146451         3.9851 
  74   0.0000       0.147937         4.0256 
  75   0.0000       0.156354         4.2546 
  76   0.0000       0.157080         4.2744 
  77   0.0000       0.163901         4.4600 
  78   0.0000       0.166410         4.5283 
  79   0.0000       0.167972         4.5707 
  80   0.0000       0.175503         4.7757 
  81   0.0000       0.176417         4.8006 
  82   0.0000       0.183490         4.9930 
  83   0.0000       0.189056         5.1445 
  84   0.0000       0.190244         5.1768 
  85   0.0000       0.191010         5.1976 
  86   0.0000       0.193812         5.2739 
  87   0.0000       0.200008         5.4425 
  88   0.0000       0.204255         5.5581 
  89   0.0000       0.210260         5.7215 
  90   0.0000       0.213709         5.8153 
  91   0.0000       0.214629         5.8404 
  92   0.0000       0.224737         6.1154 
  93   0.0000       0.228268         6.2115 
  94   0.0000       0.234440         6.3794 
  95   0.0000       0.244921         6.6646 
  96   0.0000       0.245074         6.6688 
  97   0.0000       0.247466         6.7339 
  98   0.0000       0.254542         6.9264 
  99   0.0000       0.260060         7.0766 
 100   0.0000       0.262040         7.1305 
 101   0.0000       0.263791         7.1781 
 102   0.0000       0.271116         7.3774 
 103   0.0000       0.275724         7.5028 
 104   0.0000       0.289672         7.8824 
 105   0.0000       0.293103         7.9757 
 106   0.0000       0.302617         8.2346 
 107   0.0000       0.304136         8.2760 
 108   0.0000       0.305545         8.3143 
 109   0.0000       0.308461         8.3936 
 110   0.0000       0.316958         8.6249 
 111   0.0000       0.321568         8.7503 
 112   0.0000       0.325064         8.8454 
 113   0.0000       0.328242         8.9319 
 114   0.0000       0.336535         9.1576 
 115   0.0000       0.340206         9.2575 
 116   0.0000       0.340616         9.2686 
 117   0.0000       0.343795         9.3551 
 118   0.0000       0.345754         9.4084 
 119   0.0000       0.347179         9.4472 
 120   0.0000       0.352963         9.6046 
 121   0.0000       0.356989         9.7142 
 122   0.0000       0.360718         9.8156 
 123   0.0000       0.364789         9.9264 
 124   0.0000       0.370959        10.0943 
 125   0.0000       0.380780        10.3615 
 126   0.0000       0.382290        10.4026 
 127   0.0000       0.388301        10.5662 
 128   0.0000       0.391838        10.6625 
 129   0.0000       0.392586        10.6828 
 130   0.0000       0.397241        10.8095 
 131   0.0000       0.408089        11.1047 
 132   0.0000       0.418124        11.3777 
 133   0.0000       0.418919        11.3994 
 134   0.0000       0.424420        11.5491 
 135   0.0000       0.426196        11.5974 
 136   0.0000       0.431899        11.7526 
 137   0.0000       0.438254        11.9255 
 138   0.0000       0.441289        12.0081 
 139   0.0000       0.447898        12.1879 
 140   0.0000       0.452628        12.3166 
 141   0.0000       0.459461        12.5026 
 142   0.0000       0.462880        12.5956 
 143   0.0000       0.464342        12.6354 
 144   0.0000       0.474323        12.9070 
 145   0.0000       0.477928        13.0051 
 146   0.0000       0.478559        13.0223 
 147   0.0000       0.480905        13.0861 
 148   0.0000       0.483316        13.1517 
 149   0.0000       0.492412        13.3992 
 150   0.0000       0.492671        13.4063 
 151   0.0000       0.495447        13.4818 
 152   0.0000       0.496595        13.5130 
 153   0.0000       0.502352        13.6697 
 154   0.0000       0.508911        13.8482 
 155   0.0000       0.511465        13.9177 
 156   0.0000       0.515723        14.0335 
 157   0.0000       0.524999        14.2859 
 158   0.0000       0.530458        14.4345 
 159   0.0000       0.536268        14.5926 
 160   0.0000       0.536730        14.6052 
 161   0.0000       0.540282        14.7018 
 162   0.0000       0.547353        14.8942 
 163   0.0000       0.550117        14.9694 
 164   0.0000       0.559080        15.2133 
 165   0.0000       0.563755        15.3405 
 166   0.0000       0.566649        15.4193 
 167   0.0000       0.568785        15.4774 
 168   0.0000       0.571529        15.5521 
 169   0.0000       0.578229        15.7344 
 170   0.0000       0.580475        15.7955 
 171   0.0000       0.585551        15.9337 
 172   0.0000       0.596996        16.2451 
 173   0.0000       0.602785        16.4026 
 174   0.0000       0.606786        16.5115 
 175   0.0000       0.609241        16.5783 
 176   0.0000       0.617219        16.7954 
 177   0.0000       0.621039        16.8993 
 178   0.0000       0.626933        17.0597 
 179   0.0000       0.631912        17.1952 
 180   0.0000       0.638523        17.3751 
 181   0.0000       0.642513        17.4837 
 182   0.0000       0.647364        17.6157 
 183   0.0000       0.649523        17.6744 
 184   0.0000       0.657806        17.8998 
 185   0.0000       0.679270        18.4839 
 186   0.0000       0.684343        18.6219 
 187   0.0000       0.692338        18.8395 
 188   0.0000       0.701041        19.0763 
 189   0.0000       0.708284        19.2734 
 190   0.0000       0.716109        19.4863 
 191   0.0000       0.717275        19.5180 
 192   0.0000       0.718863        19.5612 
 193   0.0000       0.731891        19.9158 
 194   0.0000       0.735623        20.0173 
 195   0.0000       0.738200        20.0874 
 196   0.0000       0.746549        20.3146 
 197   0.0000       0.747738        20.3470 
 198   0.0000       0.763067        20.7641 
 199   0.0000       0.767762        20.8919 
 200   0.0000       0.772485        21.0204 
 201   0.0000       0.775752        21.1093 
 202   0.0000       0.785513        21.3749 
 203   0.0000       0.786680        21.4066 
 204   0.0000       0.791755        21.5448 
 205   0.0000       0.791816        21.5464 
 206   0.0000       0.798057        21.7162 
 207   0.0000       0.803049        21.8521 
 208   0.0000       0.819186        22.2912 
 209   0.0000       0.820036        22.3143 
 210   0.0000       0.822445        22.3799 
 211   0.0000       0.825438        22.4613 
 212   0.0000       0.839030        22.8312 
 213   0.0000       0.847821        23.0704 
 214   0.0000       0.856006        23.2931 
 215   0.0000       0.864465        23.5233 
 216   0.0000       0.865155        23.5421 
 217   0.0000       0.866124        23.5684 
 218   0.0000       0.887507        24.1503 
 219   0.0000       0.888175        24.1685 
 220   0.0000       0.893904        24.3244 
 221   0.0000       0.897818        24.4309 
 222   0.0000       0.911182        24.7945 
 223   0.0000       0.917480        24.9659 
 224   0.0000       0.929744        25.2996 
 225   0.0000       0.932894        25.3853 
 226   0.0000       0.939885        25.5756 
 227   0.0000       0.941873        25.6297 
 228   0.0000       0.949743        25.8438 
 229   0.0000       0.952219        25.9112 
 230   0.0000       0.967694        26.3323 
 231   0.0000       0.971054        26.4237 
 232   0.0000       0.971829        26.4448 
 233   0.0000       0.984326        26.7849 
 234   0.0000       0.996094        27.1051 
 235   0.0000       0.996831        27.1252 
 236   0.0000       0.998824        27.1794 
 237   0.0000       1.005006        27.3476 
 238   0.0000       1.016186        27.6518 
 239   0.0000       1.017962        27.7002 
 240   0.0000       1.024092        27.8670 
 241   0.0000       1.030291        28.0357 
 242   0.0000       1.041089        28.3295 
 243   0.0000       1.043786        28.4029 
 244   0.0000       1.046342        28.4724 
 245   0.0000       1.048793        28.5391 
 246   0.0000       1.057888        28.7866 
 247   0.0000       1.065849        29.0032 
 248   0.0000       1.077869        29.3303 
 249   0.0000       1.080000        29.3883 
 250   0.0000       1.085158        29.5286 
 251   0.0000       1.090388        29.6710 
 252   0.0000       1.100698        29.9515 
 253   0.0000       1.101133        29.9634 
 254   0.0000       1.106662        30.1138 
 255   0.0000       1.107436        30.1349 
 256   0.0000       1.136128        30.9156 
 257   0.0000       1.136731        30.9320 
 258   0.0000       1.142604        31.0918 
 259   0.0000       1.150832        31.3157 
 260   0.0000       1.160105        31.5681 
 261   0.0000       1.169210        31.8158 
 262   0.0000       1.171876        31.8884 
 263   0.0000       1.178263        32.0622 
 264   0.0000       1.181625        32.1536 
 265   0.0000       1.191477        32.4217 
 266   0.0000       1.193711        32.4825 
 267   0.0000       1.199793        32.6480 
 268   0.0000       1.221985        33.2519 
 269   0.0000       1.232876        33.5483 
 270   0.0000       1.234066        33.5807 
 271   0.0000       1.242845        33.8195 
 272   0.0000       1.260274        34.2938 
 273   0.0000       1.260283        34.2940 
 274   0.0000       1.262255        34.3477 
 275   0.0000       1.267919        34.5018 
 276   0.0000       1.275152        34.6986 
 277   0.0000       1.294641        35.2290 
 278   0.0000       1.301020        35.4026 
 279   0.0000       1.307693        35.5841 
 280   0.0000       1.310552        35.6619 
 281   0.0000       1.315723        35.8026 
 282   0.0000       1.328654        36.1545 
 283   0.0000       1.334249        36.3068 
 284   0.0000       1.343883        36.5689 
 285   0.0000       1.361303        37.0429 
 286   0.0000       1.365179        37.1484 
 287   0.0000       1.371903        37.3314 
 288   0.0000       1.377898        37.4945 
 289   0.0000       1.378025        37.4980 
 290   0.0000       1.379730        37.5444 
 291   0.0000       1.392672        37.8965 
 292   0.0000       1.404764        38.2256 
 293   0.0000       1.408047        38.3149 
 294   0.0000       1.411384        38.4057 
 295   0.0000       1.419498        38.6265 
 296   0.0000       1.427611        38.8473 
 297   0.0000       1.429051        38.8864 
 298   0.0000       1.430757        38.9329 
 299   0.0000       1.433508        39.0077 
 300   0.0000       1.439426        39.1688 
 301   0.0000       1.460774        39.7497 
 302   0.0000       1.464697        39.8564 
 303   0.0000       1.467590        39.9351 
 304   0.0000       1.474702        40.1287 
 305   0.0000       1.482426        40.3389 
 306   0.0000       1.484243        40.3883 
 307   0.0000       1.498139        40.7664 
 308   0.0000       1.504368        40.9359 
[...]
Integration weight cutoff        WCut        ... 1.0000e-14
Angular grids for H and He will be reduced by one unit
Partially contracted basis set               ... off
Rotationally invariant grid construction     ... off

Total number of grid points                  ...    16728
Total number of batches                      ...      270
Average number of points per batch           ...       61
Average number of grid points per atom       ...      797

---------------------
COSX-INTEGRATION GRID
---------------------

General Integration Accuracy     IntAcc      ... 3.067
Radial Grid Type                 RadialGrid  ... OptM3 with GC (2021)
Angular Grid (max. ang.)         AngularGrid ... 1 (Lebedev-50)
Angular grid pruning method      GridPruning ... 4 (adaptive)
Weight generation scheme         WeightScheme... Becke
Basis function cutoff            BFCut       ... 1.0000e-11
Integration weight cutoff        WCut        ... 1.0000e-14
Angular grids for H and He will be reduced by one unit
Partially contracted basis set               ... on
Rotationally invariant grid construction     ... off

Total number of grid points                  ...     7501
Total number of batches                      ...      128
Average number of points per batch           ...       58
Average number of grid points per atom       ...      357

---------------
TD-DFT XC SETUP
---------------

DFT calculation                         ... on
Name of the grid file                   ... wb97x-d3-train-1_job2.grid_cis.tmp
Exchange functional (TD-DFT)            ... WB97X-D3
Correlation functional (TD-DFT)         ... WB97X-D3
Hybrid DFT                              ... on
   Exchange mixing (TD-DFT)             ...  0.196
   GGA exch. scaling (TD-DFT)           ...  0.000
   GGA corr. scaling (TD-DFT)           ...  1.000
Range-Separated Exchange                ... on
   Range Range separation parameter mu  .... 0.250
   Max. amount of RS exchange (TD-DFT)  ...  0.804

Building densities             ... done
Calculating rho(r) on the grid ... done
Building xc-kernel on the grid ... done
                    *** TD-DFT CALCULATION INITIALIZED ***

---------------------------------
    LR-CPCM (non-equilibrium)
---------------------------------

Setting up LR-CPCM             ... done

------------------------
DAVIDSON-DIAGONALIZATION
------------------------

Dimension of the eigenvalue problem            ...  24255
Number of roots to be determined               ...     10
Maximum size of the expansion space            ...     70
Maximum number of iterations                   ...    100
Convergence tolerance for the residual         ...    1.000e-06
Convergence tolerance for the energies         ...    1.000e-06
Orthogonality tolerance                        ...    1.000e-14
Level Shift                                    ...    0.000e+00
Constructing the preconditioner                ... o.k.
Building the initial guess                     ... o.k.
Number of trial vectors determined             ...     70


                       ****Iteration    0****

   Memory handling for direct AO based CIS:
   Memory per vector needed      ...    31 MB
   Memory needed                 ...   945 MB
   Memory available              ...  4000 MB
   Number of vectors per batch   ...   126
   Number of batches             ...     1
   Time for densities:            0.269
   Time for RI-J (Direct):        7.548
   Time for K (COSX):            44.436
   Time for XC-Integration:      22.709
   Time for LR-CPCM terms:        9.979
   Time for Sigma-Completion:     0.179
   Size of expansion space: 30
   Lowest Energy          :     0.137195474280
   Maximum Energy change  :     0.267530226756 (vector 9)
   Maximum residual norm  :     0.020456688580

                       ****Iteration    1****
   Time for densities:            0.090
   Time for RI-J (Direct):        4.450
   Time for K (COSX):            18.521
   Time for XC-Integration:       7.971
   Time for LR-CPCM terms:        4.491
   Time for Sigma-Completion:     0.062
   Size of expansion space: 40
   Lowest Energy          :     0.114796478160
   Maximum Energy change  :     0.022398996120 (vector 0)
   Maximum residual norm  :     0.002138348509

                       ****Iteration    2****
   Time for densities:            0.089
   Time for RI-J (Direct):        4.454
   Time for K (COSX):            18.749
   Time for XC-Integration:       7.991
   Time for LR-CPCM terms:        4.481
   Time for Sigma-Completion:     0.062
   Size of expansion space: 50
   Lowest Energy          :     0.113323174208
   Maximum Energy change  :     0.002972126656 (vector 4)
   Maximum residual norm  :     0.000178462185

                       ****Iteration    3****
   Time for densities:            0.090
   Time for RI-J (Direct):        4.484
   Time for K (COSX):            18.872
   Time for XC-Integration:       8.192
   Time for LR-CPCM terms:        4.511
   Time for Sigma-Completion:     0.061
   Size of expansion space: 60
   Lowest Energy          :     0.113256665746
   Maximum Energy change  :     0.006192537293 (vector 9)
   Maximum residual norm  :     0.002376919950

                       ****Iteration    4****
   Time for densities:            0.090
   Time for RI-J (Direct):        4.499
   Time for K (COSX):            18.778
   Time for XC-Integration:       8.410
   Time for LR-CPCM terms:        4.491
   Time for Sigma-Completion:     0.061
   Size of expansion space: 70
   Lowest Energy          :     0.113253527465
   Maximum Energy change  :     0.003993500520 (vector 9)
   Maximum residual norm  :     0.000276052275
   Rebuilding the expansion space

                       ****Iteration    5****
   Time for densities:            0.178
   Time for RI-J (Direct):        5.876
   Time for K (COSX):            31.139
   Time for XC-Integration:      15.881
   Time for LR-CPCM terms:        7.313
   Time for Sigma-Completion:     0.122
   Size of expansion space: 20
   Lowest Energy          :     0.113253168384
   Maximum Energy change  :     0.000371298294 (vector 8)
   Maximum residual norm  :     0.000044108596

                       ****Iteration    6****
   Time for densities:            0.089
   Time for RI-J (Direct):        4.490
   Time for K (COSX):            18.822
   Time for XC-Integration:       8.408
   Time for LR-CPCM terms:        4.523
   Time for Sigma-Completion:     0.061
   Size of expansion space: 30
   Lowest Energy          :     0.113253154426
   Maximum Energy change  :     0.000067282935 (vector 8)
   Maximum residual norm  :     0.000006175839

                       ****Iteration    7****
   Time for densities:            0.090
   Time for RI-J (Direct):        4.491
   Time for K (COSX):            18.650
   Time for XC-Integration:       8.304
   Time for LR-CPCM terms:        4.525
   Time for Sigma-Completion:     0.061
   Size of expansion space: 40
   Lowest Energy          :     0.113253153381
   Maximum Energy change  :     0.000012524307 (vector 8)
   Maximum residual norm  :     0.000002320477

                       ****Iteration    8****
   Time for densities:            0.087
   Time for RI-J (Direct):        4.507
   Time for K (COSX):            18.786
   Time for XC-Integration:       8.312
   Time for LR-CPCM terms:        4.527
   Time for Sigma-Completion:     0.061
   Size of expansion space: 50
   Lowest Energy          :     0.113253153326
   Maximum Energy change  :     0.000004528480 (vector 8)
   Maximum residual norm  :     0.000000807427

      *** CONVERGENCE OF RESIDUAL NORM REACHED ***

Storing the converged CI vectors               ... wb97x-d3-train-1_job2.cis1

                 *** DAVIDSON DONE ***

Total time for solving the CIS problem:   400.113sec

------------------------------------
TD-DFT/TDA EXCITED STATES (SINGLETS)
------------------------------------

the weight of the individual excitations are printed if larger than 1.0e-02

STATE  1:  E=   0.113253 au      3.082 eV    24856.2 cm**-1 <S**2> =   0.000000
    47a ->  49a  :     0.013448 (c=  0.11596738)
    48a ->  49a  :     0.942919 (c= -0.97104001)

STATE  2:  E=   0.157877 au      4.296 eV    34650.0 cm**-1 <S**2> =   0.000000
    47a ->  49a  :     0.957475 (c= -0.97850642)
    48a ->  49a  :     0.013959 (c= -0.11814714)

STATE  3:  E=   0.167558 au      4.559 eV    36774.7 cm**-1 <S**2> =   0.000000
    46a ->  49a  :     0.960486 (c=  0.98004364)

STATE  4:  E=   0.220939 au      6.012 eV    48490.4 cm**-1 <S**2> =   0.000000
    45a ->  49a  :     0.914174 (c=  0.95612437)

STATE  5:  E=   0.221132 au      6.017 eV    48532.9 cm**-1 <S**2> =   0.000000
    48a ->  50a  :     0.743525 (c= -0.86227905)
    48a ->  56a  :     0.126528 (c= -0.35570843)
    48a ->  72a  :     0.057775 (c=  0.24036510)
    48a ->  73a  :     0.012062 (c= -0.10982795)

STATE  6:  E=   0.226197 au      6.155 eV    49644.6 cm**-1 <S**2> =   0.000000
    34a ->  49a  :     0.011581 (c=  0.10761408)
    40a ->  49a  :     0.039052 (c=  0.19761614)
    44a ->  49a  :     0.912516 (c= -0.95525678)

STATE  7:  E=   0.241770 au      6.579 eV    53062.4 cm**-1 <S**2> =   0.000000
    45a ->  50a  :     0.022641 (c=  0.15046948)
    48a ->  51a  :     0.777914 (c=  0.88199437)
    48a ->  54a  :     0.046243 (c=  0.21504147)
    48a ->  62a  :     0.011250 (c= -0.10606732)
    48a ->  65a  :     0.055446 (c=  0.23547009)
    48a ->  71a  :     0.016582 (c= -0.12877184)

STATE  8:  E=   0.245136 au      6.670 eV    53801.2 cm**-1 <S**2> =   0.000000
    48a ->  52a  :     0.028862 (c=  0.16988867)
    48a ->  53a  :     0.762344 (c=  0.87312315)
    48a ->  61a  :     0.090014 (c=  0.30002292)
    48a ->  67a  :     0.023847 (c=  0.15442584)
    48a ->  70a  :     0.037809 (c= -0.19444661)

STATE  9:  E=   0.245577 au      6.682 eV    53897.9 cm**-1 <S**2> =   0.000000
    46a ->  63a  :     0.016059 (c=  0.12672490)
    47a ->  66a  :     0.010364 (c= -0.10180497)
    48a ->  59a  :     0.732264 (c=  0.85572443)
    48a ->  60a  :     0.118940 (c=  0.34487664)
    48a ->  66a  :     0.014133 (c=  0.11888075)
    48a ->  69a  :     0.048588 (c=  0.22042682)

STATE 10:  E=   0.246595 au      6.710 eV    54121.3 cm**-1 <S**2> =   0.000000
    47a ->  50a  :     0.012832 (c=  0.11327688)
    48a ->  50a  :     0.037616 (c=  0.19394877)
    48a ->  52a  :     0.481976 (c= -0.69424493)
    48a ->  53a  :     0.036242 (c=  0.19037322)
    48a ->  55a  :     0.211934 (c= -0.46036337)
    48a ->  56a  :     0.106133 (c= -0.32578121)
    48a ->  64a  :     0.017311 (c=  0.13157107)
    48a ->  78a  :     0.025220 (c= -0.15880750)
    48a ->  80a  :     0.015509 (c=  0.12453558)


-----------------------------
TD-DFT/TDA-EXCITATION SPECTRA
-----------------------------

Center of mass = ( -0.0074, -0.6424, -0.2643)
Calculating the Dipole integrals                  ... done
Transforming integrals                            ... done
Calculating the Linear Momentum integrals         ... done
Transforming integrals                            ... done
Calculating angular momentum integrals            ... done
Transforming integrals                            ... done

-----------------------------------------------------------------------------
         ABSORPTION SPECTRUM VIA TRANSITION ELECTRIC DIPOLE MOMENTS
-----------------------------------------------------------------------------
State   Energy    Wavelength  fosc         T2        TX        TY        TZ  
        (cm-1)      (nm)                 (au**2)    (au)      (au)      (au) 
-----------------------------------------------------------------------------
   1   24856.2    402.3   0.876970395  11.61518  -3.34773  -0.20991   0.60315
   2   34650.0    288.6   0.152528684   1.44919  -1.18223  -0.07832   0.21306
   3   36774.7    271.9   0.091354264   0.81782  -0.00645  -0.82514  -0.37003
   4   48490.4    206.2   0.197603917   1.34158   0.02514   1.04777   0.49307
   5   48532.9    206.0   0.001600368   0.01086   0.00521  -0.09414  -0.04434
   6   49644.6    201.4   0.000001542   0.00001  -0.00241  -0.00202  -0.00059
   7   53062.4    188.5   0.016798386   0.10422  -0.06115   0.14546  -0.28164
   8   53801.2    185.9   0.000267099   0.00163  -0.03325   0.01919   0.01266
   9   53897.9    185.5   0.168641182   1.03007   0.02090   0.91645   0.43562
  10   54121.3    184.8   0.000136330   0.00083  -0.00696  -0.02559  -0.01123

-----------------------------------------------------------------------------
         ABSORPTION SPECTRUM VIA TRANSITION VELOCITY DIPOLE MOMENTS
-----------------------------------------------------------------------------
State   Energy    Wavelength   fosc        P2         PX        PY        PZ  
        (cm-1)      (nm)                 (au**2)     (au)      (au)      (au) 
-----------------------------------------------------------------------------
   1   24856.2    402.3   0.122121242   0.02075   0.14153   0.00853  -0.02534
   2   34650.0    288.6   0.021943582   0.00520   0.07083   0.00406  -0.01277
   3   36774.7    271.9   0.001209981   0.00030  -0.00173  -0.01542  -0.00797
   4   48490.4    206.2   0.008617304   0.00286  -0.00128  -0.04828  -0.02287
   5   48532.9    206.0   0.000070902   0.00002  -0.00176   0.00412   0.00185
   6   49644.6    201.4   0.000000282   0.00000  -0.00008   0.00013   0.00027
   7   53062.4    188.5   0.016093656   0.00584   0.01441  -0.03245   0.06765
   8   53801.2    185.9   0.001387007   0.00051   0.02221  -0.00038  -0.00409
   9   53897.9    185.5   0.009317400   0.00343  -0.00205  -0.05259  -0.02572
  10   54121.3    184.8   0.000064350   0.00002   0.00438   0.00214   0.00020

-------------------------------------------------------------------
                             CD SPECTRUM
-------------------------------------------------------------------
State  Energy     Wavelength     R         MX        MY        MZ   
       (cm-1)       (nm)     (1e40*cgs)   (au)      (au)      (au)  
-------------------------------------------------------------------
   1   24856.2    402.3     -0.89716   0.14426  -0.31204   0.68897
   2   34650.0    288.6     -0.35082  -0.04093   0.08992  -0.19755
   3   36774.7    271.9      0.14037  -0.00403  -0.00094   0.00136
   4   48490.4    206.2      5.46880   0.00432   0.00928   0.00359
   5   48532.9    206.0     -5.84334   0.00134   0.11114   0.04372
   6   49644.6    201.4      0.30054  -0.00593  -0.27115  -0.12684
   7   53062.4    188.5      0.06875   0.18483   0.01142  -0.03475
   8   53801.2    185.9     -1.18051   0.04360  -0.17081   0.17559
   9   53897.9    185.5      8.69289   0.00530   0.01836   0.00345
  10   54121.3    184.8     -5.69341   0.01581   0.37027   0.22191

-------------------------------------------------------------------
         CD SPECTRUM VIA TRANSITION VELOCITY DIPOLE MOMENTS        
-------------------------------------------------------------------
State  Energy     Wavelength     R         MX        MY        MZ   
       (cm-1)       (nm)     (1e40*cgs)   (au)      (au)      (au)  
-------------------------------------------------------------------
   1   24856.2    402.3      1.23261   0.14426  -0.31204   0.68897
   2   34650.0    288.6     -0.03188  -0.04093   0.08992  -0.19755
   3   36774.7    271.9      0.02993  -0.00403  -0.00094   0.00136
   4   48490.4    206.2     -1.14286   0.00432   0.00928   0.00359
   5   48532.9    206.0      1.14439   0.00134   0.11114   0.04372
   6   49644.6    201.4     -0.14220  -0.00593  -0.27115  -0.12684
   7   53062.4    188.5     -0.11398   0.18483   0.01142  -0.03475
   8   53801.2    185.9      0.60793   0.04360  -0.17081   0.17559
   9   53897.9    185.5     -2.04496   0.00530   0.01836   0.00345
  10   54121.3    184.8      1.72829   0.01581   0.37027   0.22191

Total run time:      402.903 sec

           *** ORCA-CIS/TD-DFT FINISHED WITHOUT ERROR ***

Maximum memory used throughout the entire CIS-calculation: 862.9 MB

-----------------------
CIS/TD-DFT TOTAL ENERGY
-----------------------

    E(SCF)  =   -681.439909256 Eh
    DE(CIS) =      0.113253153 Eh (Root  1)
    ----------------------------- ---------
    E(tot)  =   -681.326656103 Eh



-------------------------------------------------------------------------------
                          DFT DISPERSION CORRECTION                            
                                                                               
                              DFTD3 V3.1  Rev 1                                
                              USING zero damping                               
-------------------------------------------------------------------------------
The omegaB97X-D3 functional is recognized. Fit by Chai et al.
Active option DFTDOPT                   ...         3   

molecular C6(AA) [au] = 5539.028042 


            DFT-D V3
 parameters
 s6 scaling factor         :     1.0000 
 rs6 scaling factor        :     1.2810 
 s8 scaling factor         :     1.0000 
 rs8 scaling factor        :     1.0940 
 Damping factor alpha6     :    14.0000 
 Damping factor alpha8     :    16.0000 
 ad hoc parameters k1-k3   :    16.0000     1.3333    -4.0000 

 Edisp/kcal,au: -4.958352166198  -0.007901636298 
 E6   /kcal   :  -2.075205884 
 E8   /kcal   :  -2.883146283 
 % E8         :  58.147267198 

-------------------------   ----------------
Dispersion correction           -0.007901636
-------------------------   ----------------


-------------------------   --------------------
FINAL SINGLE POINT ENERGY      -681.334557739332
-------------------------   --------------------


                            ***************************************
                            *     ORCA property calculations      *
                            ***************************************

                                    ---------------------
                                    Active property flags
                                    ---------------------
   (+) Dipole Moment


------------------------------------------------------------------------------
                       ORCA ELECTRIC PROPERTIES CALCULATION
------------------------------------------------------------------------------

Dipole Moment Calculation                       ... on
Quadrupole Moment Calculation                   ... off
Polarizability Calculation                      ... off
GBWName                                         ... wb97x-d3-train-1_job2.gbw
Electron density                                ... wb97x-d3-train-1_job2.scfp
The origin for moment calculation is the CENTER OF MASS  = (-0.007413, -0.642396 -0.264283)

-------------
DIPOLE MOMENT
-------------
                                X             Y             Z
Electronic contribution:     -0.09254      -7.45209      -3.08062
Nuclear contribution   :      0.10907       9.35720       3.85682
                        -----------------------------------------
Total Dipole Moment    :      0.01653       1.90511       0.77620
                        -----------------------------------------
Magnitude (a.u.)       :      2.05724
Magnitude (Debye)      :      5.22908



--------------------
Rotational spectrum 
--------------------
 
Rotational constants in cm-1:     0.042956     0.021673     0.015741 
Rotational constants in MHz :  1287.794079   649.746844   471.891020 

 Dipole components along the rotational axes: 
x,y,z [a.u.] :    -0.004439     2.056604    -0.050847 
x,y,z [Debye]:    -0.011284     5.227471    -0.129243 

 

Timings for individual modules:

Sum of individual times         ...      606.797 sec (=  10.113 min)
GTO integral calculation        ...        2.596 sec (=   0.043 min)   0.4 %
SCF iterations                  ...      200.414 sec (=   3.340 min)  33.0 %
CIS module                      ...      403.788 sec (=   6.730 min)  66.5 %



                             ****ORCA TERMINATED NORMALLY****
TOTAL RUN TIME: 0 days 1 hours 17 minutes 32 seconds 428 msec
