
                                 *****************
                                 * O   R   C   A *
                                 *****************

                                            #,                                       
                                            ###                                      
                                            ####                                     
                                            #####                                    
                                            ######                                   
                                           ########,                                 
                                     ,,################,,,,,                         
                               ,,#################################,,                 
                          ,,##########################################,,             
                       ,#########################################, ''#####,          
                    ,#############################################,,   '####,        
                  ,##################################################,,,,####,       
                ,###########''''           ''''###############################       
              ,#####''   ,,,,##########,,,,          '''####'''          '####       
            ,##' ,,,,###########################,,,                        '##       
           ' ,,###''''                  '''############,,,                           
         ,,##''                                '''############,,,,        ,,,,,,###''
      ,#''                                            '''#######################'''  
     '                                                          ''''####''''         
             ,#######,   #######,   ,#######,      ##                                
            ,#'     '#,  ##    ##  ,#'     '#,    #''#        ######   ,####,        
            ##       ##  ##   ,#'  ##            #'  '#       #        #'  '#        
            ##       ##  #######   ##           ,######,      #####,   #    #        
            '#,     ,#'  ##    ##  '#,     ,#' ,#      #,         ##   #,  ,#        
             '#######'   ##     ##  '#######'  #'      '#     #####' # '####'        



                  #######################################################
                  #                        -***-                        #
                  #          Department of theory and spectroscopy      #
                  #    Directorship and core code : Frank Neese         #
                  #        Max Planck Institute fuer Kohlenforschung    #
                  #                Kaiser Wilhelm Platz 1               #
                  #                 D-45470 Muelheim/Ruhr               #
                  #                      Germany                        #
                  #                                                     #
                  #                  All rights reserved                #
                  #                        -***-                        #
                  #######################################################


                         Program Version 5.0.2 -  RELEASE  -


 With contributions from (in alphabetic order):
   Daniel Aravena         : Magnetic Suceptibility
   Michael Atanasov       : Ab Initio Ligand Field Theory (pilot matlab implementation)
   Alexander A. Auer      : GIAO ZORA, VPT2 properties, NMR spectrum
   Ute Becker             : Parallelization
   Giovanni Bistoni       : ED, misc. LED, open-shell LED, HFLD
   Martin Brehm           : Molecular dynamics
   Dmytro Bykov           : SCF Hessian
   Vijay G. Chilkuri      : MRCI spin determinant printing, contributions to CSF-ICE
   Dipayan Datta          : RHF DLPNO-CCSD density
   Achintya Kumar Dutta   : EOM-CC, STEOM-CC
   Dmitry Ganyushin       : Spin-Orbit,Spin-Spin,Magnetic field MRCI
   Miquel Garcia          : C-PCM and meta-GGA Hessian, CC/C-PCM, Gaussian charge scheme
   Yang Guo               : DLPNO-NEVPT2, F12-NEVPT2, CIM, IAO-localization
   Andreas Hansen         : Spin unrestricted coupled pair/coupled cluster methods
   Benjamin Helmich-Paris : MC-RPA, TRAH-SCF, COSX integrals
   Lee Huntington         : MR-EOM, pCC
   Robert Izsak           : Overlap fitted RIJCOSX, COSX-SCS-MP3, EOM
   Marcus Kettner         : VPT2
   Christian Kollmar      : KDIIS, OOCD, Brueckner-CCSD(T), CCSD density, CASPT2, CASPT2-K
   Simone Kossmann        : Meta GGA functionals, TD-DFT gradient, OOMP2, MP2 Hessian
   Martin Krupicka        : Initial AUTO-CI
   Lucas Lang             : DCDCAS
   Marvin Lechner         : AUTO-CI (C++ implementation), FIC-MRCC
   Dagmar Lenk            : GEPOL surface, SMD
   Dimitrios Liakos       : Extrapolation schemes; Compound Job, initial MDCI parallelization
   Dimitrios Manganas     : Further ROCIS development; embedding schemes
   Dimitrios Pantazis     : SARC Basis sets
   Anastasios Papadopoulos: AUTO-CI, single reference methods and gradients
   Taras Petrenko         : DFT Hessian,TD-DFT gradient, ASA, ECA, R-Raman, ABS, FL, XAS/XES, NRVS
   Peter Pinski           : DLPNO-MP2, DLPNO-MP2 Gradient
   Christoph Reimann      : Effective Core Potentials
   Marius Retegan         : Local ZFS, SOC
   Christoph Riplinger    : Optimizer, TS searches, QM/MM, DLPNO-CCSD(T), (RO)-DLPNO pert. Triples
   Tobias Risthaus        : Range-separated hybrids, TD-DFT gradient, RPA, STAB
   Michael Roemelt        : Original ROCIS implementation
   Masaaki Saitow         : Open-shell DLPNO-CCSD energy and density
   Barbara Sandhoefer     : DKH picture change effects
   Avijit Sen             : IP-ROCIS
   Kantharuban Sivalingam : CASSCF convergence, NEVPT2, FIC-MRCI
   Bernardo de Souza      : ESD, SOC TD-DFT
   Georgi Stoychev        : AutoAux, RI-MP2 NMR, DLPNO-MP2 response
   Willem Van den Heuvel  : Paramagnetic NMR
   Boris Wezisla          : Elementary symmetry handling
   Frank Wennmohs         : Technical directorship


 We gratefully acknowledge several colleagues who have allowed us to
 interface, adapt or use parts of their codes:
   Stefan Grimme, W. Hujo, H. Kruse, P. Pracht,  : VdW corrections, initial TS optimization,
                  C. Bannwarth, S. Ehlert          DFT functionals, gCP, sTDA/sTD-DF
   Ed Valeev, F. Pavosevic, A. Kumar             : LibInt (2-el integral package), F12 methods
   Garnet Chan, S. Sharma, J. Yang, R. Olivares  : DMRG
   Ulf Ekstrom                                   : XCFun DFT Library
   Mihaly Kallay                                 : mrcc  (arbitrary order and MRCC methods)
   Jiri Pittner, Ondrej Demel                    : Mk-CCSD
   Frank Weinhold                                : gennbo (NPA and NBO analysis)
   Christopher J. Cramer and Donald G. Truhlar   : smd solvation model
   Lars Goerigk                                  : TD-DFT with DH, B97 family of functionals
   V. Asgeirsson, H. Jonsson                     : NEB implementation
   FAccTs GmbH                                   : IRC, NEB, NEB-TS, DLPNO-Multilevel, CI-OPT
                                                   MM, QMMM, 2- and 3-layer-ONIOM, Crystal-QMMM,
                                                   LR-CPCM, SF, NACMEs, symmetry and pop. for TD-DFT,
                                                   nearIR, NL-DFT gradient (VV10), updates on ESD,
                                                   ML-optimized integration grids
   S Lehtola, MJT Oliveira, MAL Marques          : LibXC Library
   Liviu Ungur et al                             : ANISO software


 Your calculation uses the libint2 library for the computation of 2-el integrals
 For citations please refer to: http://libint.valeyev.net

 Your ORCA version has been built with support for libXC version: 5.1.0
 For citations please refer to: https://tddft.org/programs/libxc/

 This ORCA versions uses:
   CBLAS   interface :  Fast vector & matrix operations
   LAPACKE interface :  Fast linear algebra routines
   SCALAPACK package :  Parallel linear algebra routines
   Shared memory     :  Shared parallel matrices
   BLAS/LAPACK       :  OpenBLAS 0.3.15  USE64BITINT DYNAMIC_ARCH NO_AFFINITY SkylakeX SINGLE_THREADED
        Core in use  :  SkylakeX
   Copyright (c) 2011-2014, The OpenBLAS Project


Your calculation utilizes the SMD solvation module
Please cite in your paper:
A.V. Marenich, C.J. Cramer, D.G. Truhlar J. Phys. Chem. B, 113, (2009), 6378 

================================================================================

----- Orbital basis set information -----
Your calculation utilizes the basis: aug-cc-pVTZ 
    H, B-Ne : Obtained from the ccRepo (grant-hill.group.shef.ac.uk/ccrepo) Feb. 2017
              R. A. Kendall, T. H. Dunning, Jr., R. J. Harrison, J. Chem. Phys. 96, 6796 (1992)
         He : Obtained from the ccRepo (grant-hill.group.shef.ac.uk/ccrepo) Feb. 2017
              D. E. Woon, T. H. Dunning, Jr., J. Chem. Phys. 100, 2975 (1994)
  Li-Be, Na : Obtained from the ccRepo (grant-hill.group.shef.ac.uk/ccrepo) Feb. 2017
              B. P. Prascher, D. E. Woon, K. A. Peterson, T. H. Dunning, Jr., A. K. Wilson, Theor. Chem. Acc. 128, 69 (2011)
         Mg : Obtained from the Peterson Research Group Website (tyr0.chem.wsu.edu/~kipeters) Feb. 2017
              B. P. Prascher, D. E. Woon, K. A. Peterson, T. H. Dunning, Jr., A. K. Wilson, Theor. Chem. Acc. 128, 69 (2011)
      Al-Ar : Obtained from the ccRepo (grant-hill.group.shef.ac.uk/ccrepo) Feb. 2017
              D. E. Woon, T. H. Dunning, Jr., J. Chem. Phys. 98, 1358 (1993)
      Sc-Zn : Obtained from the ccRepo (grant-hill.group.shef.ac.uk/ccrepo) Feb. 2017
              N. B. Balabanov, K. A. Peterson, J. Chem. Phys. 123, 064107 (2005)
              N. B. Balabanov, K. A. Peterson, J. Chem. Phys. 125, 074110 (2006)
      Ga-Kr : Obtained from the ccRepo (grant-hill.group.shef.ac.uk/ccrepo) Feb. 2017
              A. K. Wilson, D. E. Woon, K. A. Peterson, T. H. Dunning, Jr., J. Chem. Phys. 110, 7667 (1999)
     Ag, Au : Obtained from the Peterson Research Group Website (tyr0.chem.wsu.edu/~kipeters) Feb. 2017
              K. A. Peterson, C. Puzzarini, Theor. Chem. Acc. 114, 283 (2005)

The basis set includes element-specific modifications.

Your calculation utilizes the basis: cc-pVTZ 
       H, B-Ne : Obtained from the ccRepo (grant-hill.group.shef.ac.uk/ccrepo) Feb. 2017
                 T. H. Dunning, Jr., J. Chem. Phys. 90, 1007 (1989)
            He : Obtained from the ccRepo (grant-hill.group.shef.ac.uk/ccrepo) Feb. 2017
                 D. E. Woon, T. H. Dunning, Jr., J. Chem. Phys. 100, 2975 (1994)
  Li-Be, Na-Mg : Obtained from the ccRepo (grant-hill.group.shef.ac.uk/ccrepo) Feb. 2017
                 B. P. Prascher, D. E. Woon, K. A. Peterson, T. H. Dunning, Jr., A. K. Wilson, Theor. Chem. Acc. 128, 69 (2011)
         Al-Ar : Obtained from the ccRepo (grant-hill.group.shef.ac.uk/ccrepo) Feb. 2017
                 D. E. Woon, T. H. Dunning, Jr., J. Chem. Phys. 98, 1358 (1993)
            Ca : Obtained from the Peterson Research Group Website (tyr0.chem.wsu.edu/~kipeters) Feb. 2017
                 J. Koput, K. A. Peterson, J. Phys. Chem. 106, 9595 (2002)
         Sc-Zn : Obtained from the ccRepo (grant-hill.group.shef.ac.uk/ccrepo) Feb. 2017
                 N. B. Balabanov, K. A. Peterson, J. Chem. Phys. 123, 064107 (2005)
                 N. B. Balabanov, K. A. Peterson, J. Chem. Phys. 125, 074110 (2006)
         Ga-Kr : Obtained from the ccRepo (grant-hill.group.shef.ac.uk/ccrepo) Feb. 2017
                 A. K. Wilson, D. E. Woon, K. A. Peterson, T. H. Dunning, Jr., J. Chem. Phys. 110, 7667 (1999)
             Y : Obtained from the ccRepo (grant-hill.group.shef.ac.uk/ccrepo) Feb. 2017
                 K. A. Peterson, D. Figgen, M. Dolg, H. Stoll, J. Chem. Phys. 126, 124101 (2007)
        Ag, Au : Obtained from the Peterson Research Group Website (tyr0.chem.wsu.edu/~kipeters) Feb. 2017
                 K. A. Peterson, C. Puzzarini, Theor. Chem. Acc. 114, 283 (2005)

----- AuxJ basis set information -----
Your calculation utilizes the auxiliary basis: aug-cc-pVTZ/JK 
  H, B-F, Al-Cl, Ga-Br : Obtained from the TURBOMOLE 7.0 basis set library

The basis set includes element-specific modifications.

Your calculation utilizes the auxiliary basis: cc-pVTZ/JK 
  H, B-F, Al-Cl, Ga-Br : Obtained from the TURBOMOLE 7.0 basis set library

----- AuxC basis set information -----
Your calculation utilizes the auxiliary basis: aug-cc-pVTZ/C 
  H-He, B-F, Al-Ar, Ga-Kr : Obtained from the EMSL Basis Set Exchange (bse.pnl.gov) Feb. 2017
                            F. Weigend, A. Kohn, C. Hattig, J. Chem. Phys. 116, 3175 (2002)
                   Be, Mg : Obtained from the TURBOMOLE 7.0 basis set library
                            C. Haettig, Phys. Chem. Chem. Phys. 7, 59 (2005)
                       Ne : Obtained from the EMSL Basis Set Exchange (bse.pnl.gov) Feb. 2017
                            C. Haettig, Phys. Chem. Chem. Phys. 7, 59 (2005)
                            F. Weigend, A. Kohn, C. Hattig, J. Chem. Phys. 116, 3175 (2002)
                    Sc-Zn : Obtained from the EMSL Basis Set Exchange (bse.pnl.gov) Feb. 2017
                            J. G. Hill, J. A. Platts, J. Chem. Phys. 128, 044104 (2008)

The basis set includes element-specific modifications.

Your calculation utilizes the auxiliary basis: cc-pVTZ/C 
  Obtained from the EMSL Basis Set Exchange (bse.pnl.gov) Feb. 2017
  H-He, B-F, Al-Ar, Ga-Kr : F. Weigend, A. Kohn, C. Hattig, J. Chem. Phys. 116, 3175 (2002)
             Li-Be, Na-Mg : C. Haettig, Phys. Chem. Chem. Phys. 7, 59 (2005)
                       Ne : C. Haettig, Phys. Chem. Chem. Phys. 7, 59 (2005)
                            F. Weigend, A. Kohn, C. Hattig, J. Chem. Phys. 116, 3175 (2002)
                    Sc-Zn : J. G. Hill, J. A. Platts, J. Chem. Phys. 128, 044104 (2008)

================================================================================
                                        WARNINGS
                       Please study these warnings very carefully!
================================================================================


WARNING: Geometry Optimization
  ===> : Switching off AutoStart
         For restart on a previous wavefunction, please use MOREAD

INFO   : the flag for use of the SHARK integral package has been found!



***************************************
The coordinates will be read from file: 
***************************************


Your calculation utilizes the SMD solvation module
Please cite in your paper:
A.V. Marenich, C.J. Cramer, D.G. Truhlar J. Phys. Chem. B, 113, (2009), 6378 

================================================================================

----- Orbital basis set information -----
Your calculation utilizes the basis: aug-cc-pVTZ 
    H, B-Ne : Obtained from the ccRepo (grant-hill.group.shef.ac.uk/ccrepo) Feb. 2017
              R. A. Kendall, T. H. Dunning, Jr., R. J. Harrison, J. Chem. Phys. 96, 6796 (1992)
         He : Obtained from the ccRepo (grant-hill.group.shef.ac.uk/ccrepo) Feb. 2017
              D. E. Woon, T. H. Dunning, Jr., J. Chem. Phys. 100, 2975 (1994)
  Li-Be, Na : Obtained from the ccRepo (grant-hill.group.shef.ac.uk/ccrepo) Feb. 2017
              B. P. Prascher, D. E. Woon, K. A. Peterson, T. H. Dunning, Jr., A. K. Wilson, Theor. Chem. Acc. 128, 69 (2011)
         Mg : Obtained from the Peterson Research Group Website (tyr0.chem.wsu.edu/~kipeters) Feb. 2017
              B. P. Prascher, D. E. Woon, K. A. Peterson, T. H. Dunning, Jr., A. K. Wilson, Theor. Chem. Acc. 128, 69 (2011)
      Al-Ar : Obtained from the ccRepo (grant-hill.group.shef.ac.uk/ccrepo) Feb. 2017
              D. E. Woon, T. H. Dunning, Jr., J. Chem. Phys. 98, 1358 (1993)
      Sc-Zn : Obtained from the ccRepo (grant-hill.group.shef.ac.uk/ccrepo) Feb. 2017
              N. B. Balabanov, K. A. Peterson, J. Chem. Phys. 123, 064107 (2005)
              N. B. Balabanov, K. A. Peterson, J. Chem. Phys. 125, 074110 (2006)
      Ga-Kr : Obtained from the ccRepo (grant-hill.group.shef.ac.uk/ccrepo) Feb. 2017
              A. K. Wilson, D. E. Woon, K. A. Peterson, T. H. Dunning, Jr., J. Chem. Phys. 110, 7667 (1999)
     Ag, Au : Obtained from the Peterson Research Group Website (tyr0.chem.wsu.edu/~kipeters) Feb. 2017
              K. A. Peterson, C. Puzzarini, Theor. Chem. Acc. 114, 283 (2005)

The basis set includes element-specific modifications.

Your calculation utilizes the basis: cc-pVTZ 
       H, B-Ne : Obtained from the ccRepo (grant-hill.group.shef.ac.uk/ccrepo) Feb. 2017
                 T. H. Dunning, Jr., J. Chem. Phys. 90, 1007 (1989)
            He : Obtained from the ccRepo (grant-hill.group.shef.ac.uk/ccrepo) Feb. 2017
                 D. E. Woon, T. H. Dunning, Jr., J. Chem. Phys. 100, 2975 (1994)
  Li-Be, Na-Mg : Obtained from the ccRepo (grant-hill.group.shef.ac.uk/ccrepo) Feb. 2017
                 B. P. Prascher, D. E. Woon, K. A. Peterson, T. H. Dunning, Jr., A. K. Wilson, Theor. Chem. Acc. 128, 69 (2011)
         Al-Ar : Obtained from the ccRepo (grant-hill.group.shef.ac.uk/ccrepo) Feb. 2017
                 D. E. Woon, T. H. Dunning, Jr., J. Chem. Phys. 98, 1358 (1993)
            Ca : Obtained from the Peterson Research Group Website (tyr0.chem.wsu.edu/~kipeters) Feb. 2017
                 J. Koput, K. A. Peterson, J. Phys. Chem. 106, 9595 (2002)
         Sc-Zn : Obtained from the ccRepo (grant-hill.group.shef.ac.uk/ccrepo) Feb. 2017
                 N. B. Balabanov, K. A. Peterson, J. Chem. Phys. 123, 064107 (2005)
                 N. B. Balabanov, K. A. Peterson, J. Chem. Phys. 125, 074110 (2006)
         Ga-Kr : Obtained from the ccRepo (grant-hill.group.shef.ac.uk/ccrepo) Feb. 2017
                 A. K. Wilson, D. E. Woon, K. A. Peterson, T. H. Dunning, Jr., J. Chem. Phys. 110, 7667 (1999)
             Y : Obtained from the ccRepo (grant-hill.group.shef.ac.uk/ccrepo) Feb. 2017
                 K. A. Peterson, D. Figgen, M. Dolg, H. Stoll, J. Chem. Phys. 126, 124101 (2007)
        Ag, Au : Obtained from the Peterson Research Group Website (tyr0.chem.wsu.edu/~kipeters) Feb. 2017
                 K. A. Peterson, C. Puzzarini, Theor. Chem. Acc. 114, 283 (2005)

----- AuxJ basis set information -----
Your calculation utilizes the auxiliary basis: aug-cc-pVTZ/JK 
  H, B-F, Al-Cl, Ga-Br : Obtained from the TURBOMOLE 7.0 basis set library

The basis set includes element-specific modifications.

Your calculation utilizes the auxiliary basis: cc-pVTZ/JK 
  H, B-F, Al-Cl, Ga-Br : Obtained from the TURBOMOLE 7.0 basis set library

----- AuxC basis set information -----
Your calculation utilizes the auxiliary basis: aug-cc-pVTZ/C 
  H-He, B-F, Al-Ar, Ga-Kr : Obtained from the EMSL Basis Set Exchange (bse.pnl.gov) Feb. 2017
                            F. Weigend, A. Kohn, C. Hattig, J. Chem. Phys. 116, 3175 (2002)
                   Be, Mg : Obtained from the TURBOMOLE 7.0 basis set library
                            C. Haettig, Phys. Chem. Chem. Phys. 7, 59 (2005)
                       Ne : Obtained from the EMSL Basis Set Exchange (bse.pnl.gov) Feb. 2017
                            C. Haettig, Phys. Chem. Chem. Phys. 7, 59 (2005)
                            F. Weigend, A. Kohn, C. Hattig, J. Chem. Phys. 116, 3175 (2002)
                    Sc-Zn : Obtained from the EMSL Basis Set Exchange (bse.pnl.gov) Feb. 2017
                            J. G. Hill, J. A. Platts, J. Chem. Phys. 128, 044104 (2008)

The basis set includes element-specific modifications.

Your calculation utilizes the auxiliary basis: cc-pVTZ/C 
  Obtained from the EMSL Basis Set Exchange (bse.pnl.gov) Feb. 2017
  H-He, B-F, Al-Ar, Ga-Kr : F. Weigend, A. Kohn, C. Hattig, J. Chem. Phys. 116, 3175 (2002)
             Li-Be, Na-Mg : C. Haettig, Phys. Chem. Chem. Phys. 7, 59 (2005)
                       Ne : C. Haettig, Phys. Chem. Chem. Phys. 7, 59 (2005)
                            F. Weigend, A. Kohn, C. Hattig, J. Chem. Phys. 116, 3175 (2002)
                    Sc-Zn : J. G. Hill, J. A. Platts, J. Chem. Phys. 128, 044104 (2008)

================================================================================
                                        WARNINGS
                       Please study these warnings very carefully!
================================================================================

INFO   : Checking CIS options ...

INFO   : the flag for use of the SHARK integral package has been found!

================================================================================
                                       INPUT FILE
================================================================================
NAME = x3lyp-train-1.inp
|  1> ! x3lyp aug-cc-PVTZ RIJCOSX Opt
|  2> %maxcore 4000
|  3> %basis
|  4>  AuxJ "aug-cc-PVTZ/JK"
|  5>  AuxC "aug-cc-PVTZ/C"
|  6>  newGTO H "cc-PVTZ" end
|  7>  newAuxJGTO H "cc-PVTZ/JK" end
|  8>  newAuxCGTO H "cc-PVTZ/C" end
|  9> end
| 10> %cpcm
| 11>  SMD true
| 12>  SMDsolvent "cyclohexane"
| 13> end
| 14> %pal nprocs 4 end
| 15> * xyz 0 1
| 16> F         -0.24810       -1.64740       -1.94630
| 17> B         -0.02410       -1.38450       -0.61380
| 18> F          0.17410       -2.55790        0.07750
| 19> N         -1.23320       -0.61900       -0.01780
| 20> C         -2.48730       -1.04400        0.05700
| 21> C         -3.29420       -0.06750        0.65890
| 22> C         -2.47560        0.99680        0.95860
| 23> C         -1.17200        0.64600        0.52970
| 24> C          0.02230        1.34530        0.59030
| 25> C          1.19590        0.79430        0.10240
| 26> C          2.51470        1.30920        0.05800
| 27> C          3.29980        0.34520       -0.53110
| 28> C          2.45810       -0.73450       -0.83550
| 29> N          1.21500       -0.46570       -0.45960
| 30> H         -2.76280       -2.01260       -0.31430
| 31> H         -4.34690       -0.15340        0.84190
| 32> H         -2.74500        1.92360        1.42590
| 33> H          0.03880        2.33360        1.02470
| 34> H          2.81590        2.27180        0.42210
| 35> H          4.35250        0.39110       -0.72820
| 36> H          2.70190       -1.67060       -1.30040
| 37> *
| 38> 
| 39> 
| 40> $new_job
| 41> ! x3lyp aug-cc-PVTZ RIJCOSX SP
| 42> %maxcore 4000
| 43> %basis
| 44>  AuxJ "aug-cc-PVTZ/JK"
| 45>  AuxC "aug-cc-PVTZ/C"
| 46>  newGTO H "cc-PVTZ" end
| 47>  newAuxJGTO H "cc-PVTZ/JK" end
| 48>  newAuxCGTO H "cc-PVTZ/C" end
| 49> end
| 50> %cpcm
| 51>  SMD true
| 52>  SMDsolvent "cyclohexane"
| 53> end
| 54> %pal nprocs 4 end
| 55> %tddft
| 56>  nroots 10
| 57>  maxdim 7
| 58> end
| 59> * xyzfile 0 1
| 60> 
| 61>                          ****END OF INPUT****
================================================================================


                 $$$$$$$$$$$$$$$$$$$$$$$$$$$$$$$$$$$$$$$$$$$$$$ 
                 $ THERE ARE  2 JOBS TO BE PROCESSED THIS RUN $
                 $$$$$$$$$$$$$$$$$$$$$$$$$$$$$$$$$$$$$$$$$$$$$$ 




                 $$$$$$$$$$$$$$$$  JOB NUMBER  1 $$$$$$$$$$$$$$


                       *****************************
                       * Geometry Optimization Run *
                       *****************************

Geometry optimization settings:
Update method            Update   .... BFGS
Choice of coordinates    CoordSys .... Z-matrix Internals
Initial Hessian          InHess   .... Almoef's Model

Convergence Tolerances:
Energy Change            TolE     ....  5.0000e-06 Eh
Max. Gradient            TolMAXG  ....  3.0000e-04 Eh/bohr
RMS Gradient             TolRMSG  ....  1.0000e-04 Eh/bohr
Max. Displacement        TolMAXD  ....  4.0000e-03 bohr
RMS Displacement         TolRMSD  ....  2.0000e-03 bohr
Strict Convergence                ....  False
------------------------------------------------------------------------------
                        ORCA OPTIMIZATION COORDINATE SETUP
------------------------------------------------------------------------------

The optimization will be done in new redundant internal coordinates
Making redundant internal coordinates   ...  (new redundants) done
Evaluating the initial hessian          ...  (Almloef) done
Evaluating the coordinates              ...  done
Calculating the B-matrix                .... done
Calculating the G-matrix                .... done
Diagonalizing the G-matrix              .... done
The first mode is                       ....   65
The number of degrees of freedom        ....   57

    -----------------------------------------------------------------
                    Redundant Internal Coordinates


    -----------------------------------------------------------------
         Definition                    Initial Value    Approx d2E/dq
    -----------------------------------------------------------------
      1. B(B   1,F   0)                  1.3765         0.632800   
      2. B(F   2,B   1)                  1.3762         0.633478   
      3. B(N   3,B   1)                  1.5502         0.359832   
      4. B(C   4,N   3)                  1.3263         0.707222   
      5. B(C   5,C   4)                  1.4025         0.596819   
      6. B(C   6,C   5)                  1.3757         0.658399   
      7. B(C   7,N   3)                  1.3798         0.581057   
      8. B(C   7,C   6)                  1.4165         0.566900   
      9. B(C   8,C   7)                  1.3853         0.635687   
     10. B(C   9,C   8)                  1.3853         0.635738   
     11. B(C  10,C   9)                  1.4164         0.566946   
     12. B(C  11,C  10)                  1.3758         0.658350   
     13. B(C  12,C  11)                  1.4025         0.596861   
     14. B(N  13,C   9)                  1.3798         0.580994   
     15. B(N  13,B   1)                  1.5503         0.359742   
     16. B(N  13,C  12)                  1.3262         0.707354   
     17. B(H  14,C   4)                  1.0733         0.382899   
     18. B(H  15,C   5)                  1.0719         0.384808   
     19. B(H  16,C   6)                  1.0723         0.384242   
     20. B(H  17,C   8)                  1.0797         0.374012   
     21. B(H  18,C  10)                  1.0723         0.384252   
     22. B(H  19,C  11)                  1.0720         0.384751   
     23. B(H  20,C  12)                  1.0732         0.382962   
     24. A(F   2,B   1,N   3)          109.8909         0.395568   
     25. A(F   0,B   1,N   3)          109.8498         0.395494   
     26. A(F   0,B   1,F   2)          110.2941         0.435456   
     27. A(F   2,B   1,N  13)          109.8919         0.395551   
     28. A(N   3,B   1,N  13)          107.0078         0.360191   
     29. A(F   0,B   1,N  13)          109.8489         0.395476   
     30. A(B   1,N   3,C   7)          124.7990         0.387976   
     31. A(B   1,N   3,C   4)          126.9391         0.401573   
     32. A(C   4,N   3,C   7)          108.2617         0.433578   
     33. A(N   3,C   4,H  14)          120.8239         0.362425   
     34. A(N   3,C   4,C   5)          110.1892         0.438548   
     35. A(C   5,C   4,H  14)          128.9870         0.354303   
     36. A(C   6,C   5,H  15)          127.5282         0.360572   
     37. A(C   4,C   5,H  15)          125.6258         0.354602   
     38. A(C   4,C   5,C   6)          106.8460         0.435787   
     39. A(C   5,C   6,H  16)          127.8845         0.360481   
     40. A(C   5,C   6,C   7)          106.8613         0.431774   
     41. A(C   7,C   6,H  16)          125.2542         0.351441   
     42. A(C   6,C   7,C   8)          130.9321         0.429061   
     43. A(N   3,C   7,C   8)          121.2260         0.428151   
     44. A(N   3,C   7,C   6)          107.8418         0.419473   
     45. A(C   7,C   8,C   9)          120.9437         0.437998   
     46. A(C   9,C   8,H  17)          119.5280         0.356697   
     47. A(C   7,C   8,H  17)          119.5282         0.356693   
     48. A(C   8,C   9,C  10)          130.9380         0.429074   
     49. A(C  10,C   9,N  13)          107.8364         0.419471   
     50. A(C   8,C   9,N  13)          121.2255         0.428149   
     51. A(C   9,C  10,C  11)          106.8598         0.431774   
     52. A(C  11,C  10,H  18)          127.8867         0.360478   
     53. A(C   9,C  10,H  18)          125.2534         0.351447   
     54. A(C  12,C  11,H  19)          125.6215         0.354597   
     55. A(C  10,C  11,H  19)          127.5269         0.360558   
     56. A(C  10,C  11,C  12)          106.8517         0.435787   
     57. A(C  11,C  12,N  13)          110.1813         0.438568   
     58. A(N  13,C  12,H  20)          120.8295         0.362447   
     59. A(C  11,C  12,H  20)          128.9892         0.354317   
     60. A(C   9,N  13,C  12)          108.2708         0.433584   
     61. A(B   1,N  13,C  12)          126.9323         0.401568   
     62. A(B   1,N  13,C   9)          124.7968         0.387952   
     63. D(C   7,N   3,B   1,N  13)      0.3569         0.009321   
     64. D(C   7,N   3,B   1,F   0)   -118.8473         0.009321   
     65. D(C   4,N   3,B   1,F   0)     60.9941         0.009321   
     66. D(C   7,N   3,B   1,F   2)    119.6352         0.009321   
     67. D(C   4,N   3,B   1,F   2)    -60.5233         0.009321   
     68. D(C   4,N   3,B   1,N  13)   -179.8017         0.009321   
     69. D(H  14,C   4,N   3,C   7)    179.9976         0.041476   
     70. D(C   5,C   4,N   3,B   1)   -179.8669         0.041476   
     71. D(H  14,C   4,N   3,B   1)      0.1347         0.041476   
     72. D(C   5,C   4,N   3,C   7)     -0.0040         0.041476   
     73. D(C   6,C   5,C   4,H  14)   -179.9981         0.024541   
     74. D(H  15,C   5,C   4,H  14)      0.0110         0.024541   
     75. D(C   6,C   5,C   4,N   3)      0.0037         0.024541   
     76. D(H  15,C   5,C   4,N   3)   -179.9872         0.024541   
     77. D(C   7,C   6,C   5,C   4)     -0.0018         0.030238   
     78. D(H  16,C   6,C   5,H  15)      0.0031         0.030238   
     79. D(H  16,C   6,C   5,C   4)   -179.9875         0.030238   
     80. D(C   7,C   6,C   5,H  15)    179.9888         0.030238   
     81. D(C   8,C   7,C   6,H  16)      0.0554         0.022035   
     82. D(C   8,C   7,C   6,C   5)   -179.9308         0.022035   
     83. D(N   3,C   7,C   6,H  16)    179.9857         0.022035   
     84. D(N   3,C   7,C   6,C   5)     -0.0005         0.022035   
     85. D(C   8,C   7,N   3,C   4)    179.9412         0.027086   
     86. D(C   8,C   7,N   3,B   1)     -0.1923         0.027086   
     87. D(C   6,C   7,N   3,C   4)      0.0028         0.027086   
     88. D(C   6,C   7,N   3,B   1)    179.8693         0.027086   
     89. D(H  17,C   8,C   7,C   6)     -0.0707         0.028051   
     90. D(C   9,C   8,C   7,C   6)    179.8818         0.028051   
     91. D(C   9,C   8,C   7,N   3)     -0.0406         0.028051   
     92. D(H  17,C   8,C   7,N   3)   -179.9931         0.028051   
     93. D(C  10,C   9,C   8,C   7)   -179.8824         0.028056   
     94. D(N  13,C   9,C   8,H  17)    179.9930         0.028056   
     95. D(N  13,C   9,C   8,C   7)      0.0404         0.028056   
     96. D(C  10,C   9,C   8,H  17)      0.0701         0.028056   
     97. D(H  18,C  10,C   9,N  13)    179.9993         0.022039   
     98. D(H  18,C  10,C   9,C   8)     -0.0700         0.022039   
     99. D(C  11,C  10,C   9,N  13)     -0.0019         0.022039   
    100. D(C  11,C  10,C   9,C   8)    179.9288         0.022039   
    101. D(H  19,C  11,C  10,H  18)      0.0007         0.030233   
    102. D(H  19,C  11,C  10,C   9)   -179.9980         0.030233   
    103. D(C  12,C  11,C  10,H  18)   -179.9969         0.030233   
    104. D(C  12,C  11,C  10,C   9)      0.0044         0.030233   
    105. D(H  20,C  12,C  11,H  19)      0.0061         0.024545   
    106. D(H  20,C  12,C  11,C  10)   -179.9963         0.024545   
    107. D(N  13,C  12,C  11,H  19)    179.9968         0.024545   
    108. D(N  13,C  12,C  11,C  10)     -0.0056         0.024545   
    109. D(C   9,N  13,C  12,H  20)    179.9960         0.041493   
    110. D(B   1,N  13,C  12,H  20)     -0.1405         0.041493   
    111. D(B   1,N  13,C  12,C  11)    179.8679         0.041493   
    112. D(C  12,N  13,C   9,C  10)     -0.0016         0.027080   
    113. D(C  12,N  13,C   9,C   8)   -179.9403         0.027080   
    114. D(B   1,N  13,C   9,C  10)   -179.8687         0.027080   
    115. D(B   1,N  13,C   9,C   8)      0.1926         0.027080   
    116. D(C  12,N  13,B   1,N   3)    179.8008         0.009317   
    117. D(C  12,N  13,B   1,F   2)     60.5231         0.009317   
    118. D(C  12,N  13,B   1,F   0)    -60.9944         0.009317   
    119. D(C   9,N  13,B   1,N   3)     -0.3570         0.009317   
    120. D(C   9,N  13,C  12,C  11)      0.0044         0.041493   
    121. D(C   9,N  13,B   1,F   2)   -119.6347         0.009317   
    122. D(C   9,N  13,B   1,F   0)    118.8477         0.009317   
    -----------------------------------------------------------------

Number of atoms                         .... 21
Number of degrees of freedom            .... 122

         *************************************************************
         *                GEOMETRY OPTIMIZATION CYCLE   1            *
         *************************************************************
---------------------------------
CARTESIAN COORDINATES (ANGSTROEM)
---------------------------------
  F     -0.248100   -1.647400   -1.946300
  B     -0.024100   -1.384500   -0.613800
  F      0.174100   -2.557900    0.077500
  N     -1.233200   -0.619000   -0.017800
  C     -2.487300   -1.044000    0.057000
  C     -3.294200   -0.067500    0.658900
  C     -2.475600    0.996800    0.958600
  C     -1.172000    0.646000    0.529700
  C      0.022300    1.345300    0.590300
  C      1.195900    0.794300    0.102400
  C      2.514700    1.309200    0.058000
  C      3.299800    0.345200   -0.531100
  C      2.458100   -0.734500   -0.835500
  N      1.215000   -0.465700   -0.459600
  H     -2.762800   -2.012600   -0.314300
  H     -4.346900   -0.153400    0.841900
  H     -2.745000    1.923600    1.425900
  H      0.038800    2.333600    1.024700
  H      2.815900    2.271800    0.422100
  H      4.352500    0.391100   -0.728200
  H      2.701900   -1.670600   -1.300400

----------------------------
CARTESIAN COORDINATES (A.U.)
----------------------------
  NO LB      ZA    FRAG     MASS         X           Y           Z
   0 F     9.0000    0    18.998   -0.468841   -3.113135   -3.677974
   1 B     5.0000    0    10.810   -0.045542   -2.616326   -1.159914
   2 F     9.0000    0    18.998    0.329001   -4.833730    0.146454
   3 N     7.0000    0    14.007   -2.330410   -1.169740   -0.033637
   4 C     6.0000    0    12.011   -4.700316   -1.972874    0.107714
   5 C     6.0000    0    12.011   -6.225136   -0.127557    1.245141
   6 C     6.0000    0    12.011   -4.678206    1.883679    1.811491
   7 C     6.0000    0    12.011   -2.214759    1.220763    1.000988
   8 C     6.0000    0    12.011    0.042141    2.542249    1.115505
   9 C     6.0000    0    12.011    2.259923    1.501009    0.193508
  10 C     6.0000    0    12.011    4.752094    2.474029    0.109604
  11 C     6.0000    0    12.011    6.235718    0.652333   -1.003634
  12 C     6.0000    0    12.011    4.645136   -1.388004   -1.578866
  13 N     7.0000    0    14.007    2.296017   -0.880045   -0.868518
  14 H     1.0000    0     1.008   -5.220935   -3.803263   -0.593941
  15 H     1.0000    0     1.008   -8.214451   -0.289884    1.590960
  16 H     1.0000    0     1.008   -5.187298    3.635077    2.694560
  17 H     1.0000    0     1.008    0.073321    4.409865    1.936402
  18 H     1.0000    0     1.008    5.321280    4.293080    0.797653
  19 H     1.0000    0     1.008    8.225033    0.739072   -1.376099
  20 H     1.0000    0     1.008    5.105851   -3.156976   -2.457400

--------------------------------
INTERNAL COORDINATES (ANGSTROEM)
--------------------------------
 F      0   0   0     0.000000000000     0.00000000     0.00000000
 B      1   0   0     1.376535019533     0.00000000     0.00000000
 F      2   1   0     1.376243615789   110.29406026     0.00000000
 N      2   1   3     1.550202909299   109.84982791   238.72415697
 C      4   2   1     1.326268015900   126.93907207    60.99412890
 C      5   4   2     1.402470488103   110.18918188   180.13309584
 C      6   5   4     1.375739997238   106.84597807     0.00000000
 C      4   2   1     1.379756025535   124.79903113   241.15269220
 C      8   4   2     1.385296119969   121.22602553   359.80772735
 C      9   8   4     1.385274113668   120.94371842   359.95940427
 C     10   9   8     1.416448661265   130.93802407   180.11762634
 C     11  10   9     1.375760451532   106.85983150   179.92876810
 C     12  11  10     1.402451546400   106.85166754     0.00000000
 N     13  12  11     1.326217124003   110.18131615     0.00000000
 H      5   4   2     1.073289289987   120.82385624     0.13474243
 H      6   5   4     1.071935212594   125.62583297   180.01280747
 H      7   6   5     1.072335717021   127.88448848   180.01249287
 H      9   8   4     1.079681666048   119.52822943   180.00689439
 H     11  10   9     1.072328778873   125.25342759   359.93001313
 H     12  11  10     1.071975983873   127.52685411   180.00199395
 H     13  12  11     1.073244454912   128.98922445   180.00373003

---------------------------
INTERNAL COORDINATES (A.U.)
---------------------------
 F      0   0   0     0.000000000000     0.00000000     0.00000000
 B      1   0   0     2.601274200669     0.00000000     0.00000000
 F      2   1   0     2.600723527399   110.29406026     0.00000000
 N      2   1   3     2.929458950584   109.84982791   238.72415697
 C      4   2   1     2.506283330231   126.93907207    60.99412890
 C      5   4   2     2.650285133422   110.18918188   180.13309584
 C      6   5   4     2.599771826261   106.84597807     0.00000000
 C      4   2   1     2.607361019889   124.79903113   241.15269220
 C      8   4   2     2.617830281124   121.22602553   359.80772735
 C      9   8   4     2.617788695244   120.94371842   359.95940427
 C     10   9   8     2.676700052551   130.93802407   180.11762634
 C     11  10   9     2.599810479276   106.85983150   179.92876810
 C     12  11  10     2.650249338791   106.85166754     0.00000000
 N     13  12  11     2.506187158483   110.18131615     0.00000000
 H      5   4   2     2.028222820546   120.82385624     0.13474243
 H      6   5   4     2.025663985110   125.62583297   180.01280747
 H      7   6   5     2.026420828793   127.88448848   180.01249287
 H      9   8   4     2.040302660646   119.52822943   180.00689439
 H     11  10   9     2.026407717593   125.25342759   359.93001313
 H     12  11  10     2.025741031660   127.52685411   180.00199395
 H     13  12  11     2.028138094534   128.98922445   180.00373003

---------------------
BASIS SET INFORMATION
---------------------
There are 5 groups of distinct atoms

 Group   1 Type F   : 19s6p3d2f contracted to 5s4p3d2f pattern {88111/3111/111/11}
 Group   2 Type B   : 19s6p3d2f contracted to 5s4p3d2f pattern {88111/3111/111/11}
 Group   3 Type N   : 19s6p3d2f contracted to 5s4p3d2f pattern {88111/3111/111/11}
 Group   4 Type C   : 19s6p3d2f contracted to 5s4p3d2f pattern {88111/3111/111/11}
 Group   5 Type H   : 5s2p1d contracted to 3s2p1d pattern {311/11/1}

Atom   0F    basis set group =>   1
Atom   1B    basis set group =>   2
Atom   2F    basis set group =>   1
Atom   3N    basis set group =>   3
Atom   4C    basis set group =>   4
Atom   5C    basis set group =>   4
Atom   6C    basis set group =>   4
Atom   7C    basis set group =>   4
Atom   8C    basis set group =>   4
Atom   9C    basis set group =>   4
Atom  10C    basis set group =>   4
Atom  11C    basis set group =>   4
Atom  12C    basis set group =>   4
Atom  13N    basis set group =>   3
Atom  14H    basis set group =>   5
Atom  15H    basis set group =>   5
Atom  16H    basis set group =>   5
Atom  17H    basis set group =>   5
Atom  18H    basis set group =>   5
Atom  19H    basis set group =>   5
Atom  20H    basis set group =>   5
---------------------------------
AUXILIARY/J BASIS SET INFORMATION
---------------------------------
There are 5 groups of distinct atoms

 Group   1 Type F   : 10s7p5d2f1g contracted to 10s7p5d2f1g pattern {1111111111/1111111/11111/11/1}
 Group   2 Type B   : 10s7p5d2f1g contracted to 10s7p5d2f1g pattern {1111111111/1111111/11111/11/1}
 Group   3 Type N   : 10s7p5d2f1g contracted to 10s7p5d2f1g pattern {1111111111/1111111/11111/11/1}
 Group   4 Type C   : 10s7p5d2f1g contracted to 10s7p5d2f1g pattern {1111111111/1111111/11111/11/1}
 Group   5 Type H   : 4s3p2d1f contracted to 4s3p2d1f pattern {1111/111/11/1}

Atom   0F    basis set group =>   1
Atom   1B    basis set group =>   2
Atom   2F    basis set group =>   1
Atom   3N    basis set group =>   3
Atom   4C    basis set group =>   4
Atom   5C    basis set group =>   4
Atom   6C    basis set group =>   4
Atom   7C    basis set group =>   4
Atom   8C    basis set group =>   4
Atom   9C    basis set group =>   4
Atom  10C    basis set group =>   4
Atom  11C    basis set group =>   4
Atom  12C    basis set group =>   4
Atom  13N    basis set group =>   3
Atom  14H    basis set group =>   5
Atom  15H    basis set group =>   5
Atom  16H    basis set group =>   5
Atom  17H    basis set group =>   5
Atom  18H    basis set group =>   5
Atom  19H    basis set group =>   5
Atom  20H    basis set group =>   5
---------------------------------
AUXILIARY/C BASIS SET INFORMATION
---------------------------------
There are 5 groups of distinct atoms

 Group   1 Type F   : 9s7p6d4f2g contracted to 9s7p6d4f2g pattern {111111111/1111111/111111/1111/11}
 Group   2 Type B   : 9s7p6d4f2g contracted to 9s7p6d4f2g pattern {111111111/1111111/111111/1111/11}
 Group   3 Type N   : 9s7p6d4f2g contracted to 9s7p6d4f2g pattern {111111111/1111111/111111/1111/11}
 Group   4 Type C   : 9s7p6d4f2g contracted to 9s7p6d4f2g pattern {111111111/1111111/111111/1111/11}
 Group   5 Type H   : 4s3p2d1f contracted to 4s3p2d1f pattern {1111/111/11/1}

Atom   0F    basis set group =>   1
Atom   1B    basis set group =>   2
Atom   2F    basis set group =>   1
Atom   3N    basis set group =>   3
Atom   4C    basis set group =>   4
Atom   5C    basis set group =>   4
Atom   6C    basis set group =>   4
Atom   7C    basis set group =>   4
Atom   8C    basis set group =>   4
Atom   9C    basis set group =>   4
Atom  10C    basis set group =>   4
Atom  11C    basis set group =>   4
Atom  12C    basis set group =>   4
Atom  13N    basis set group =>   3
Atom  14H    basis set group =>   5
Atom  15H    basis set group =>   5
Atom  16H    basis set group =>   5
Atom  17H    basis set group =>   5
Atom  18H    basis set group =>   5
Atom  19H    basis set group =>   5
Atom  20H    basis set group =>   5


           ************************************************************
           *        Program running with 4 parallel MPI-processes     *
           *              working on a common directory               *
           ************************************************************
------------------------------------------------------------------------------
                           ORCA GTO INTEGRAL CALCULATION
                           -- RI-GTO INTEGRALS CHOSEN --
------------------------------------------------------------------------------
------------------------------------------------------------------------------
                   ___                                                        
                  /   \      - P O W E R E D   B Y -                         
                 /     \                                                     
                 |  |  |   _    _      __       _____    __    __             
                 |  |  |  | |  | |    /  \     |  _  \  |  |  /  |          
                  \  \/   | |  | |   /    \    | | | |  |  | /  /          
                 / \  \   | |__| |  /  /\  \   | |_| |  |  |/  /          
                |  |  |   |  __  | /  /__\  \  |    /   |      \           
                |  |  |   | |  | | |   __   |  |    \   |  |\   \          
                \     /   | |  | | |  |  |  |  | |\  \  |  | \   \       
                 \___/    |_|  |_| |__|  |__|  |_| \__\ |__|  \__/        
                                                                              
                      - O R C A' S   B I G   F R I E N D -                    
                                      &                                       
                       - I N T E G R A L  F E E D E R -                       
                                                                              
 v1 FN, 2020, v2 2021                                                         
------------------------------------------------------------------------------


Reading SHARK input file x3lyp-train-1.SHARKINP.tmp ... ok
----------------------
SHARK INTEGRAL PACKAGE
----------------------

Number of atoms                             ...     21
Number of basis functions                   ...    826
Number of shells                            ...    322
Maximum angular momentum                    ...      3
Integral batch strategy                     ... SHARK/LIBINT Hybrid
RI-J (if used) integral strategy            ... SPLIT-RIJ (Revised 2003 algorithm where possible)
Printlevel                                  ...      1
Contraction scheme used                     ... PARTIAL GENERAL contraction
Coulomb Range Separation                    ... NOT USED
Exchange Range Separation                   ... NOT USED
Finite Nucleus Model                        ... NOT USED
Auxiliary Coulomb fitting basis             ... AVAILABLE
   # of basis functions in Aux-J            ...   1316
   # of shells in Aux-J                     ...    420
   Maximum angular momentum in Aux-J        ...      4
Auxiliary J/K fitting basis                 ... NOT available
Auxiliary Correlation fitting basis         ... AVAILABLE
   # of basis functions in Aux-C            ...   1694
   # of shells in Aux-C                     ...    462
   Maximum angular momentum in Aux-C        ...      4
Auxiliary 'external' fitting basis          ... NOT available
Integral threshold                          ...     2.500000e-11
Primitive cut-off                           ...     2.500000e-12
Primitive pair pre-selection threshold      ...     2.500000e-12

Calculating pre-screening integrals         ... done (  0.1 sec) Dimension = 322
Calculating pre-screening integrals (ORCA)  ... done (  0.3 sec) Dimension = 238
Organizing shell pair data                  ... done (  1.0 sec)
Shell pair information
Total number of shell pairs                 ...     52003
Shell pairs after pre-screening             ...     39352
Total number of primitive shell pairs       ...     66493
Primitive shell pairs kept                  ...     46476
          la=0 lb=0:   8957 shell pairs
          la=1 lb=0:   9791 shell pairs
          la=1 lb=1:   2253 shell pairs
          la=2 lb=0:   6709 shell pairs
          la=2 lb=1:   3092 shell pairs
          la=2 lb=2:   1100 shell pairs
          la=3 lb=0:   3972 shell pairs
          la=3 lb=1:   1814 shell pairs
          la=3 lb=2:   1273 shell pairs
          la=3 lb=3:    391 shell pairs

Calculating one electron integrals          ... done (  0.1 sec)
Calculating RI/J V-Matrix + Cholesky decomp.... done (  0.1 sec)
Calculating RI/C V-Matrix + Cholesky decomp.... done (  0.2 sec)
Calculating Nuclear repulsion               ... done (  0.0 sec) ENN=    866.723037408548 Eh

SHARK setup successfully completed in   3.0 seconds

Maximum memory used throughout the entire GTOINT-calculation: 59.3 MB


           ************************************************************
           *        Program running with 4 parallel MPI-processes     *
           *              working on a common directory               *
           ************************************************************
-------------------------------------------------------------------------------
                                 ORCA SCF
-------------------------------------------------------------------------------

------------
SCF SETTINGS
------------
Hamiltonian:
 Density Functional     Method          .... DFT(GTOs)
 Exchange Functional    Exchange        .... X
 Correlation Functional Correlation     .... LYP
 LDA part of GGA corr.  LDAOpt          .... VWN-5
 Gradients option       PostSCFGGA      .... off
 Hybrid DFT is turned on
   Fraction HF Exchange ScalHFX         ....  0.218000
   Scaling of DF-GGA-X  ScalDFX         ....  0.709000
   Scaling of DF-GGA-C  ScalDFC         ....  0.871000
   Scaling of DF-LDA-C  ScalLDAC        ....  1.000000
   Perturbative correction              ....  0.000000
   Density functional embedding theory  .... OFF
 RI-approximation to the Coulomb term is turned on
   Number of AuxJ basis functions       .... 1316
   RIJ-COSX (HFX calculated with COS-X)).... on


General Settings:
 Integral files         IntName         .... x3lyp-train-1
 Hartree-Fock type      HFTyp           .... RHF
 Total Charge           Charge          ....    0
 Multiplicity           Mult            ....    1
 Number of Electrons    NEL             ....   98
 Basis Dimension        Dim             ....  742
 Nuclear Repulsion      ENuc            ....    866.7230374085 Eh

Convergence Acceleration:
 DIIS                   CNVDIIS         .... on
   Start iteration      DIISMaxIt       ....    12
   Startup error        DIISStart       ....  0.200000
   # of expansion vecs  DIISMaxEq       ....     5
   Bias factor          DIISBfac        ....   1.050
   Max. coefficient     DIISMaxC        ....  10.000
 Trust-Rad. Augm. Hess. CNVTRAH         .... auto
   Auto Start mean grad. ratio tolernc. ....  1.125000
   Auto Start start iteration           ....    20
   Auto Start num. interpolation iter.  ....    10
   Max. Number of Micro iterations      ....    16
   Max. Number of Macro iterations      .... Maxiter - #DIIS iter
   Number of Davidson start vectors     ....     2
   Converg. threshold I  (grad. norm)   ....   1.000e-05
   Converg. threshold II (energy diff.) ....   1.000e-08
   Grad. Scal. Fac. for Micro threshold ....   0.100
   Minimum threshold for Micro iter.    ....   0.010
   NR start threshold (gradient norm)   ....   0.001
   Initial trust radius                 ....   0.400
   Minimum AH scaling param. (alpha)    ....   1.000
   Maximum AH scaling param. (alpha)    .... 1000.000
   Orbital update algorithm             .... Taylor
   White noise on init. David. guess    .... on
   Maximum white noise                  ....   0.010
   Quad. conv. algorithm                .... NR
 SOSCF                  CNVSOSCF        .... on
   Start iteration      SOSCFMaxIt      ....   150
   Startup grad/error   SOSCFStart      ....  0.003300
 Level Shifting         CNVShift        .... on
   Level shift para.    LevelShift      ....    0.2500
   Turn off err/grad.   ShiftErr        ....    0.0010
 Zerner damping         CNVZerner       .... off
 Static damping         CNVDamp         .... on
   Fraction old density DampFac         ....    0.7000
   Max. Damping (<1)    DampMax         ....    0.9800
   Min. Damping (>=0)   DampMin         ....    0.0000
   Turn off err/grad.   DampErr         ....    0.1000
 Fernandez-Rico         CNVRico         .... off

SCF Procedure:
 Maximum # iterations   MaxIter         ....   125
 SCF integral mode      SCFMode         .... Direct
   Integral package                     .... SHARK and LIBINT hybrid scheme
 Reset frequency        DirectResetFreq ....    20
 Integral Threshold     Thresh          ....  2.500e-11 Eh
 Primitive CutOff       TCut            ....  2.500e-12 Eh

Convergence Tolerance:
 Convergence Check Mode ConvCheckMode   .... Total+1el-Energy
 Convergence forced     ConvForced      .... 0
 Energy Change          TolE            ....  1.000e-08 Eh
 1-El. energy change                    ....  1.000e-05 Eh
 Orbital Gradient       TolG            ....  1.000e-05
 Orbital Rotation angle TolX            ....  1.000e-05
 DIIS Error             TolErr          ....  5.000e-07


Diagonalization of the overlap matrix:
Smallest eigenvalue                        ... 1.822e-06
Time for diagonalization                   ...    0.152 sec
Threshold for overlap eigenvalues          ... 1.000e-08
Number of eigenvalues below threshold      ... 0
Time for construction of square roots      ...    0.089 sec
Total time needed                          ...    0.244 sec

Time for model grid setup =    0.359 sec

------------------------------
INITIAL GUESS: MODEL POTENTIAL
------------------------------
Loading Hartree-Fock densities                     ... done
Calculating cut-offs                               ... done
Initializing the effective Hamiltonian             ... done
Setting up the integral package (SHARK)            ... done
Starting the Coulomb interaction                   ... done (   1.1 sec)
Reading the grid                                   ... done
Mapping shells                                     ... done
Starting the XC term evaluation                    ... done (   1.2 sec)
  promolecular density results
     # of electrons  =     97.997283186
     EX              =    -86.101700617
     EC              =     -3.414141146
     EX+EC           =    -89.515841763
Transforming the Hamiltonian                       ... done (   0.1 sec)
Diagonalizing the Hamiltonian                      ... done (   0.2 sec)
Back transforming the eigenvectors                 ... done (   0.0 sec)
Now organizing SCF variables                       ... done
                      ------------------
                      INITIAL GUESS DONE (   3.0 sec)
                      ------------------
-------------------
DFT GRID GENERATION
-------------------

General Integration Accuracy     IntAcc      ... 4.388
Radial Grid Type                 RadialGrid  ... OptM3 with GC (2021)
Angular Grid (max. ang.)         AngularGrid ... 4 (Lebedev-302)
Angular grid pruning method      GridPruning ... 4 (adaptive)
Weight generation scheme         WeightScheme... Becke
Basis function cutoff            BFCut       ... 1.0000e-11
Integration weight cutoff        WCut        ... 1.0000e-14
Angular grids for H and He will be reduced by one unit
Partially contracted basis set               ... off
Rotationally invariant grid construction     ... off

Total number of grid points                  ...   110048
Total number of batches                      ...     1728
Average number of points per batch           ...       63
Average number of grid points per atom       ...     5240
Time for grid setup =    1.242 sec

--------------------
COSX GRID GENERATION
--------------------

GRIDX 1
-------
General Integration Accuracy     IntAcc      ... 3.816
Radial Grid Type                 RadialGrid  ... OptM3 with GC (2021)
Angular Grid (max. ang.)         AngularGrid ... 1 (Lebedev-50)
Angular grid pruning method      GridPruning ... 4 (adaptive)
Weight generation scheme         WeightScheme... Becke
Basis function cutoff            BFCut       ... 1.0000e-11
Integration weight cutoff        WCut        ... 1.0000e-14
Angular grids for H and He will be reduced by one unit
Partially contracted basis set               ... on
Rotationally invariant grid construction     ... off

Total number of grid points                  ...    13989
Total number of batches                      ...      231
Average number of points per batch           ...       60
Average number of grid points per atom       ...      666
UseSFitting                                  ... on

GRIDX 2
-------
General Integration Accuracy     IntAcc      ... 4.020
Radial Grid Type                 RadialGrid  ... OptM3 with GC (2021)
Angular Grid (max. ang.)         AngularGrid ... 2 (Lebedev-110)
Angular grid pruning method      GridPruning ... 4 (adaptive)
Weight generation scheme         WeightScheme... Becke
Basis function cutoff            BFCut       ... 1.0000e-11
Integration weight cutoff        WCut        ... 1.0000e-14
Angular grids for H and He will be reduced by one unit
Partially contracted basis set               ... on
Rotationally invariant grid construction     ... off

Total number of grid points                  ...    34307
Total number of batches                      ...      545
Average number of points per batch           ...       62
Average number of grid points per atom       ...     1634
UseSFitting                                  ... on

GRIDX 3
-------
General Integration Accuracy     IntAcc      ... 4.338
Radial Grid Type                 RadialGrid  ... OptM3 with GC (2021)
Angular Grid (max. ang.)         AngularGrid ... 3 (Lebedev-194)
Angular grid pruning method      GridPruning ... 4 (adaptive)
Weight generation scheme         WeightScheme... Becke
Basis function cutoff            BFCut       ... 1.0000e-11
Integration weight cutoff        WCut        ... 1.0000e-14
Angular grids for H and He will be reduced by one unit
Partially contracted basis set               ... on
Rotationally invariant grid construction     ... off

Total number of grid points                  ...    74089
Total number of batches                      ...     1168
Average number of points per batch           ...       63
Average number of grid points per atom       ...     3528
UseSFitting                                  ... on

Time for X-Grid setup             =    3.257 sec


--------------------
CPCM SOLVATION MODEL
--------------------
CPCM parameters:
  Epsilon                                         ...       2.0165
  Refrac                                          ...       1.4266
  Rsolv                                           ...       1.3000
  Surface type                                    ... GAUSSIAN VDW
  Epsilon function type                           ...         CPCM
Solvent:                                     ... CYCLOHEXANE
SMD-CDS solvent descriptors:
  Soln                                       ...    1.4266
  Soln25                                     ...    1.4235
  Sola                                       ...    0.0000
  Solb                                       ...    0.0000
  Solg                                       ...   35.4800
  Solc                                       ...    0.0000
  Solh                                       ...    0.0000
Radii:
 Radius for F  used is    3.2692 Bohr (=   1.7300 Ang.)
 Radius for B  used is    3.6283 Bohr (=   1.9200 Ang.)
 Radius for N  used is    3.5716 Bohr (=   1.8900 Ang.)
 Radius for C  used is    3.4960 Bohr (=   1.8500 Ang.)
 Radius for H  used is    2.2677 Bohr (=   1.2000 Ang.)
Calculating surface                               ...        done! (  0.0s)
GEPOL surface points                              ...         1218
GEPOL Volume                                      ...    1223.4663
GEPOL Surface-area                                ...     700.3562
Calculating surface distance matrix               ...        done! (  0.0s)
Performing Cholesky decomposition & store         ...        done! (  0.1s)
Overall time for CPCM initialization              ...                 0.1s
 re-compute Schwartz prescreening matrix in partically contracted basis (1) ...done (   0.175 sec)
--------------
SCF ITERATIONS
--------------
ITER       Energy         Delta-E        Max-DP      RMS-DP      [F,P]     Damp
               ***  Starting incremental Fock matrix formation  ***
  0   -680.8180159090   0.000000000000 0.06734720  0.00093756  0.2351294 0.7000
  1   -680.9518010099  -0.133785100889 0.05363084  0.00065361  0.0994869 0.7000
                               ***Turning on DIIS***
  2   -681.0091242602  -0.057323250308 0.12570730  0.00120862  0.0365529 0.0000
  3   -681.0979012159  -0.088776955705 0.03416147  0.00039338  0.0502596 0.0000
  4   -681.1164464877  -0.018545271737 0.01562430  0.00011763  0.0099199 0.0000
  5   -681.1171989969  -0.000752509202 0.00579715  0.00003204  0.0048201 0.0000
                      *** Initiating the SOSCF procedure ***
                           *** Shutting down DIIS ***
                      *** Re-Reading the Fockian *** 
                      *** Removing any level shift *** 
ITER      Energy       Delta-E        Grad      Rot      Max-DP    RMS-DP
  6   -681.11726814  -0.0000691426  0.000244  0.000244  0.001338  0.000019
               *** Restarting incremental Fock matrix formation ***
  7   -681.11727655  -0.0000084139  0.000249  0.001203  0.004400  0.000055
  8   -681.11727344   0.0000031133  0.000522  0.000920  0.000413  0.000006
  9   -681.11727835  -0.0000049097  0.000054  0.000202  0.001399  0.000013
 10   -681.11727821   0.0000001424  0.000075  0.000107  0.000739  0.000005
 11   -681.11727842  -0.0000002150  0.000003  0.000010  0.001065  0.000011
 12   -681.11727842  -0.0000000007  0.000005  0.000007  0.000680  0.000007
                  ***Gradient check signals convergence***
              ***Rediagonalizing the Fockian in SOSCF/NRSCF***

               *****************************************************
               *                     SUCCESS                       *
               *           SCF CONVERGED AFTER  13 CYCLES          *
               *****************************************************

Old exchange energy                            =    -18.879833496 Eh
New exchange energy                            =    -18.879847023 Eh
Exchange energy change after final integration =     -0.000013527 Eh
Total energy after final integration           =   -681.117291931 Eh
Final COS-X integration done in                =    61.727 sec

SMD CDS free energy correction energy :                -4.44040     Kcal/mol
Total Energy after SMD CDS correction =              -681.124368152 Eh

----------------
TOTAL SCF ENERGY
----------------

Total Energy       :         -681.12436815 Eh          -18534.33632 eV

Components:
Nuclear Repulsion  :          866.72303741 Eh           23584.73287 eV
Electronic Energy  :        -1547.84740556 Eh          -42119.06920 eV
One Electron Energy:        -2651.47235400 Eh          -72150.23080 eV
Two Electron Energy:         1103.62494844 Eh           30031.16160 eV
Max COSX asymmetry :            0.00001041 Eh               0.00028 eV
CPCM Dielectric    :           -0.00992435 Eh              -0.27006 eV
SMD CDS (Gcds)     :           -0.00707622 Eh              -0.19255 eV

Virial components:
Potential Energy   :        -1359.00030577 Eh          -36980.27836 eV
Kinetic Energy     :          677.87593761 Eh           18445.94204 eV
Virial Ratio       :            2.00479207


DFT components:
N(Alpha)           :       49.000020479884 electrons
N(Beta)            :       49.000020479884 electrons
N(Total)           :       98.000040959768 electrons
E(X)               :      -67.344368540660 Eh       
E(C)               :       -3.833547111595 Eh       
E(XC)              :      -71.177915652256 Eh       
DFET-embed. en.    :        0.000000000000 Eh       
CPCM Solvation Model Properties:
Surface-charge          :           -0.04587563
Charge-correction       :            0.00002515 Eh               0.00068 eV
Free-energy (cav+disp)  :           -0.00707622 Eh              -0.19255 eV

---------------
SCF CONVERGENCE
---------------

  Last Energy change         ...    1.8728e-08  Tolerance :   1.0000e-08
  Last MAX-Density change    ...    6.2172e-15  Tolerance :   1.0000e-07
  Last RMS-Density change    ...    1.8489e-17  Tolerance :   5.0000e-09
  Last Orbital Gradient      ...    1.4877e-06  Tolerance :   1.0000e-05
  Last Orbital Rotation      ...    2.5416e-06  Tolerance :   1.0000e-05

             **** THE GBW FILE WAS UPDATED (x3lyp-train-1.gbw) ****
             **** DENSITY x3lyp-train-1.scfp WAS UPDATED ****
             **** ENERGY FILE WAS UPDATED (x3lyp-train-1.en.tmp) ****
             **** THE GBW FILE WAS UPDATED (x3lyp-train-1.gbw) ****
             **** DENSITY x3lyp-train-1.scfp WAS UPDATED ****
----------------
ORBITAL ENERGIES
----------------

  NO   OCC          E(Eh)            E(eV) 
   0   2.0000     -24.670767      -671.3257 
   1   2.0000     -24.670639      -671.3222 
   2   2.0000     -14.381439      -391.3389 
   3   2.0000     -14.381426      -391.3385 
   4   2.0000     -10.248548      -278.8772 
   5   2.0000     -10.246074      -278.8099 
   6   2.0000     -10.246062      -278.8095 
   7   2.0000     -10.242702      -278.7181 
   8   2.0000     -10.242668      -278.7172 
   9   2.0000     -10.213616      -277.9266 
  10   2.0000     -10.213594      -277.9260 
  11   2.0000     -10.201588      -277.5993 
  12   2.0000     -10.201580      -277.5991 
  13   2.0000      -6.837668      -186.0624 
  14   2.0000      -1.186862       -32.2962 
  15   2.0000      -1.153425       -31.3863 
  16   2.0000      -1.014070       -27.5943 
  17   2.0000      -0.997157       -27.1340 
  18   2.0000      -0.830857       -22.6088 
  19   2.0000      -0.807462       -21.9722 
  20   2.0000      -0.795005       -21.6332 
  21   2.0000      -0.742393       -20.2015 
  22   2.0000      -0.681347       -18.5404 
  23   2.0000      -0.621376       -16.9085 
  24   2.0000      -0.605815       -16.4851 
  25   2.0000      -0.593197       -16.1417 
  26   2.0000      -0.589275       -16.0350 
  27   2.0000      -0.555537       -15.1169 
  28   2.0000      -0.519414       -14.1340 
  29   2.0000      -0.515835       -14.0366 
  30   2.0000      -0.495510       -13.4835 
  31   2.0000      -0.471958       -12.8426 
  32   2.0000      -0.462166       -12.5762 
  33   2.0000      -0.448315       -12.1993 
  34   2.0000      -0.442582       -12.0433 
  35   2.0000      -0.441675       -12.0186 
  36   2.0000      -0.436354       -11.8738 
  37   2.0000      -0.415542       -11.3075 
  38   2.0000      -0.411714       -11.2033 
  39   2.0000      -0.407286       -11.0828 
  40   2.0000      -0.396277       -10.7833 
  41   2.0000      -0.386412       -10.5148 
  42   2.0000      -0.379214       -10.3190 
  43   2.0000      -0.371369       -10.1055 
  44   2.0000      -0.353796        -9.6273 
  45   2.0000      -0.314733        -8.5643 
  46   2.0000      -0.278236        -7.5712 
  47   2.0000      -0.270815        -7.3693 
  48   2.0000      -0.226178        -6.1546 
  49   0.0000      -0.107746        -2.9319 
  50   0.0000      -0.003578        -0.0974 
  51   0.0000       0.006883         0.1873 
  52   0.0000       0.012674         0.3449 
  53   0.0000       0.017853         0.4858 
  54   0.0000       0.021971         0.5979 
  55   0.0000       0.025310         0.6887 
  56   0.0000       0.025736         0.7003 
  57   0.0000       0.031724         0.8633 
  58   0.0000       0.032756         0.8913 
  59   0.0000       0.045640         1.2419 
  60   0.0000       0.046053         1.2532 
  61   0.0000       0.049704         1.3525 
  62   0.0000       0.050449         1.3728 
  63   0.0000       0.050467         1.3733 
  64   0.0000       0.057428         1.5627 
  65   0.0000       0.073729         2.0063 
  66   0.0000       0.078983         2.1492 
  67   0.0000       0.079825         2.1721 
  68   0.0000       0.088608         2.4112 
  69   0.0000       0.091349         2.4857 
  70   0.0000       0.093239         2.5372 
  71   0.0000       0.097524         2.6538 
  72   0.0000       0.101073         2.7503 
  73   0.0000       0.102362         2.7854 
  74   0.0000       0.107955         2.9376 
  75   0.0000       0.110296         3.0013 
  76   0.0000       0.113101         3.0776 
  77   0.0000       0.120131         3.2689 
  78   0.0000       0.121664         3.3106 
  79   0.0000       0.122407         3.3309 
  80   0.0000       0.125262         3.4086 
  81   0.0000       0.131059         3.5663 
  82   0.0000       0.134368         3.6563 
  83   0.0000       0.137864         3.7515 
  84   0.0000       0.140641         3.8270 
  85   0.0000       0.144417         3.9298 
  86   0.0000       0.148454         4.0396 
  87   0.0000       0.150685         4.1004 
  88   0.0000       0.159528         4.3410 
  89   0.0000       0.160546         4.3687 
  90   0.0000       0.160793         4.3754 
  91   0.0000       0.164206         4.4683 
  92   0.0000       0.168178         4.5764 
  93   0.0000       0.180894         4.9224 
  94   0.0000       0.186316         5.0699 
  95   0.0000       0.188432         5.1275 
  96   0.0000       0.190480         5.1832 
  97   0.0000       0.191693         5.2162 
  98   0.0000       0.197649         5.3783 
  99   0.0000       0.197898         5.3851 
 100   0.0000       0.203967         5.5502 
 101   0.0000       0.205843         5.6013 
 102   0.0000       0.211746         5.7619 
 103   0.0000       0.216031         5.8785 
 104   0.0000       0.229195         6.2367 
 105   0.0000       0.233425         6.3518 
 106   0.0000       0.236083         6.4241 
 107   0.0000       0.238422         6.4878 
 108   0.0000       0.241164         6.5624 
 109   0.0000       0.249279         6.7832 
 110   0.0000       0.249697         6.7946 
 111   0.0000       0.252485         6.8705 
 112   0.0000       0.260182         7.0799 
 113   0.0000       0.265109         7.2140 
 114   0.0000       0.268392         7.3033 
 115   0.0000       0.268567         7.3081 
 116   0.0000       0.274579         7.4717 
 117   0.0000       0.277267         7.5448 
 118   0.0000       0.279769         7.6129 
 119   0.0000       0.280007         7.6194 
 120   0.0000       0.285370         7.7653 
 121   0.0000       0.288326         7.8458 
 122   0.0000       0.291980         7.9452 
 123   0.0000       0.298213         8.1148 
 124   0.0000       0.298966         8.1353 
 125   0.0000       0.310820         8.4579 
 126   0.0000       0.317292         8.6340 
 127   0.0000       0.322166         8.7666 
 128   0.0000       0.323689         8.8080 
 129   0.0000       0.323728         8.8091 
 130   0.0000       0.332092         9.0367 
 131   0.0000       0.343016         9.3339 
 132   0.0000       0.343658         9.3514 
 133   0.0000       0.346221         9.4211 
 134   0.0000       0.356432         9.6990 
 135   0.0000       0.359118         9.7721 
 136   0.0000       0.361605         9.8398 
 137   0.0000       0.362866         9.8741 
 138   0.0000       0.366297         9.9674 
 139   0.0000       0.370694        10.0871 
 140   0.0000       0.380396        10.3511 
 141   0.0000       0.386167        10.5081 
 142   0.0000       0.393413        10.7053 
 143   0.0000       0.394262        10.7284 
 144   0.0000       0.397868        10.8265 
 145   0.0000       0.398396        10.8409 
 146   0.0000       0.405527        11.0349 
 147   0.0000       0.415372        11.3028 
 148   0.0000       0.415921        11.3178 
 149   0.0000       0.418487        11.3876 
 150   0.0000       0.424186        11.5427 
 151   0.0000       0.424962        11.5638 
 152   0.0000       0.426172        11.5967 
 153   0.0000       0.428650        11.6642 
 154   0.0000       0.435642        11.8544 
 155   0.0000       0.437023        11.8920 
 156   0.0000       0.444823        12.1043 
 157   0.0000       0.452694        12.3184 
 158   0.0000       0.456965        12.4346 
 159   0.0000       0.460809        12.5393 
 160   0.0000       0.460943        12.5429 
 161   0.0000       0.463492        12.6123 
 162   0.0000       0.471668        12.8347 
 163   0.0000       0.475682        12.9440 
 164   0.0000       0.479452        13.0466 
 165   0.0000       0.491111        13.3638 
 166   0.0000       0.491161        13.3652 
 167   0.0000       0.493800        13.4370 
 168   0.0000       0.500473        13.6186 
 169   0.0000       0.503673        13.7056 
 170   0.0000       0.506071        13.7709 
 171   0.0000       0.510972        13.9043 
 172   0.0000       0.519494        14.1362 
 173   0.0000       0.522470        14.2171 
 174   0.0000       0.531240        14.4558 
 175   0.0000       0.534142        14.5347 
 176   0.0000       0.535384        14.5685 
 177   0.0000       0.542563        14.7639 
 178   0.0000       0.544333        14.8121 
 179   0.0000       0.550382        14.9767 
 180   0.0000       0.561071        15.2675 
 181   0.0000       0.563850        15.3431 
 182   0.0000       0.566399        15.4125 
 183   0.0000       0.570208        15.5161 
 184   0.0000       0.578909        15.7529 
 185   0.0000       0.601522        16.3682 
 186   0.0000       0.603454        16.4208 
 187   0.0000       0.615361        16.7448 
 188   0.0000       0.618983        16.8434 
 189   0.0000       0.629407        17.1270 
 190   0.0000       0.634802        17.2738 
 191   0.0000       0.636354        17.3161 
 192   0.0000       0.640430        17.4270 
 193   0.0000       0.644418        17.5355 
 194   0.0000       0.657305        17.8862 
 195   0.0000       0.662209        18.0196 
 196   0.0000       0.666529        18.1372 
 197   0.0000       0.667310        18.1584 
 198   0.0000       0.682836        18.5809 
 199   0.0000       0.689869        18.7723 
 200   0.0000       0.693383        18.8679 
 201   0.0000       0.694536        18.8993 
 202   0.0000       0.703965        19.1559 
 203   0.0000       0.707110        19.2414 
 204   0.0000       0.712876        19.3983 
 205   0.0000       0.714091        19.4314 
 206   0.0000       0.716763        19.5041 
 207   0.0000       0.722390        19.6572 
 208   0.0000       0.735580        20.0162 
 209   0.0000       0.737928        20.0801 
 210   0.0000       0.744085        20.2476 
 211   0.0000       0.744927        20.2705 
 212   0.0000       0.753101        20.4929 
 213   0.0000       0.766507        20.8577 
 214   0.0000       0.772522        21.0214 
 215   0.0000       0.783464        21.3191 
 216   0.0000       0.785094        21.3635 
 217   0.0000       0.786246        21.3948 
 218   0.0000       0.804613        21.8946 
 219   0.0000       0.804765        21.8988 
 220   0.0000       0.809665        22.0321 
 221   0.0000       0.816668        22.2227 
 222   0.0000       0.826510        22.4905 
 223   0.0000       0.836746        22.7690 
 224   0.0000       0.846068        23.0227 
 225   0.0000       0.849859        23.1259 
 226   0.0000       0.856128        23.2964 
 227   0.0000       0.857806        23.3421 
 228   0.0000       0.867644        23.6098 
 229   0.0000       0.868140        23.6233 
 230   0.0000       0.886591        24.1254 
 231   0.0000       0.887343        24.1458 
 232   0.0000       0.892345        24.2819 
 233   0.0000       0.899883        24.4871 
 234   0.0000       0.912506        24.8306 
 235   0.0000       0.915172        24.9031 
 236   0.0000       0.917546        24.9677 
 237   0.0000       0.920774        25.0555 
 238   0.0000       0.934706        25.4347 
 239   0.0000       0.936284        25.4776 
 240   0.0000       0.945191        25.7199 
 241   0.0000       0.946339        25.7512 
 242   0.0000       0.957237        26.0478 
 243   0.0000       0.959772        26.1167 
 244   0.0000       0.963032        26.2054 
 245   0.0000       0.963263        26.2117 
 246   0.0000       0.974306        26.5122 
 247   0.0000       0.984027        26.7767 
 248   0.0000       0.989566        26.9275 
 249   0.0000       0.994554        27.0632 
 250   0.0000       1.000308        27.2198 
 251   0.0000       1.004860        27.3436 
 252   0.0000       1.015489        27.6329 
 253   0.0000       1.018650        27.7189 
 254   0.0000       1.021502        27.7965 
 255   0.0000       1.024773        27.8855 
 256   0.0000       1.052014        28.6268 
 257   0.0000       1.052141        28.6302 
 258   0.0000       1.054790        28.7023 
 259   0.0000       1.066031        29.0082 
 260   0.0000       1.075411        29.2634 
 261   0.0000       1.085010        29.5246 
 262   0.0000       1.087337        29.5880 
 263   0.0000       1.091459        29.7001 
 264   0.0000       1.093003        29.7421 
 265   0.0000       1.106126        30.0992 
 266   0.0000       1.108249        30.1570 
 267   0.0000       1.115540        30.3554 
 268   0.0000       1.134552        30.8727 
 269   0.0000       1.147328        31.2204 
 270   0.0000       1.150237        31.2995 
 271   0.0000       1.157936        31.5090 
 272   0.0000       1.173619        31.9358 
 273   0.0000       1.175315        31.9820 
 274   0.0000       1.178767        32.0759 
 275   0.0000       1.181901        32.1612 
 276   0.0000       1.188085        32.3294 
 277   0.0000       1.208637        32.8887 
 278   0.0000       1.216564        33.1044 
 279   0.0000       1.222264        33.2595 
 280   0.0000       1.224073        33.3087 
 281   0.0000       1.229246        33.4495 
 282   0.0000       1.243661        33.8417 
 283   0.0000       1.247452        33.9449 
 284   0.0000       1.258744        34.2522 
 285   0.0000       1.274720        34.6869 
 286   0.0000       1.279617        34.8201 
 287   0.0000       1.284149        34.9435 
 288   0.0000       1.290809        35.1247 
 289   0.0000       1.291172        35.1346 
 290   0.0000       1.293348        35.1938 
 291   0.0000       1.305693        35.5297 
 292   0.0000       1.318070        35.8665 
 293   0.0000       1.321806        35.9682 
 294   0.0000       1.324881        36.0518 
 295   0.0000       1.333311        36.2812 
 296   0.0000       1.342202        36.5232 
 297   0.0000       1.342831        36.5403 
 298   0.0000       1.343280        36.5525 
 299   0.0000       1.345992        36.6263 
 300   0.0000       1.353149        36.8211 
 301   0.0000       1.373068        37.3631 
 302   0.0000       1.377868        37.4937 
 303   0.0000       1.379765        37.5453 
 304   0.0000       1.387157        37.7464 
 305   0.0000       1.395216        37.9657 
 306   0.0000       1.397519        38.0284 
 307   0.0000       1.408671        38.3319 
 308   0.0000       1.414941        38.5025 
 309   0.0000       1.428838        38.8807 
 310   0.0000       1.439315        39.1657 
 311   0.0000       1.441917        39.2365 
 312   0.0000       1.447286        39.3827 
 313   0.0000       1.448639        39.4195 
 314   0.0000       1.452042        39.5121 
 315   0.0000       1.458461        39.6867 
 316   0.0000       1.472691        40.0740 
 317   0.0000       1.475116        40.1399 
 318   0.0000       1.480896        40.2972 
 319   0.0000       1.505970        40.9795 
 320   0.0000       1.507017        41.0080 
 321   0.0000       1.509011        41.0623 
 322   0.0000       1.528918        41.6040 
 323   0.0000       1.529139        41.6100 
 324   0.0000       1.529958        41.6323 
 325   0.0000       1.534891        41.7665 
 326   0.0000       1.536261        41.8038 
 327   0.0000       1.540481        41.9186 
 328   0.0000       1.546652        42.0865 
 329   0.0000       1.551741        42.2250 
 330   0.0000       1.558118        42.3986 
 331   0.0000       1.575529        42.8723 
 332   0.0000       1.582480        43.0615 
 333   0.0000       1.588001        43.2117 
 334   0.0000       1.591314        43.3019 
 335   0.0000       1.599962        43.5372 
 336   0.0000       1.616933        43.9990 
 337   0.0000       1.619628        44.0723 
 338   0.0000       1.645270        44.7701 
 339   0.0000       1.646286        44.7977 
 340   0.0000       1.656921        45.0871 
 341   0.0000       1.671363        45.4801 
 342   0.0000       1.671938        45.4957 
[...]
 15 H      0.7751     1.0000     0.2249     0.9349     0.9349    -0.0000
 16 H      0.7962     1.0000     0.2038     0.9571     0.9571     0.0000
 17 H      0.9784     1.0000     0.0216     1.0976     1.0976    -0.0000
 18 H      0.7950     1.0000     0.2050     0.9567     0.9567     0.0000
 19 H      0.7762     1.0000     0.2238     0.9363     0.9363    -0.0000
 20 H      0.7187     1.0000     0.2813     0.8796     0.8796     0.0000

  Mayer bond orders larger than 0.100000
B(  0-F ,  1-B ) :   0.5641 B(  0-F ,  3-N ) :  -0.1179 B(  0-F , 13-N ) :  -0.1264 
B(  1-B ,  2-F ) :   0.5557 B(  1-B ,  3-N ) :   0.8083 B(  1-B , 13-N ) :   0.8079 
B(  2-F ,  3-N ) :  -0.1053 B(  3-N ,  4-C ) :   1.3647 B(  3-N ,  5-C ) :  -0.2282 
B(  3-N ,  6-C ) :  -0.1357 B(  3-N ,  7-C ) :   0.7561 B(  4-C ,  5-C ) :   1.0398 
B(  4-C ,  6-C ) :   0.2040 B(  4-C ,  7-C ) :  -0.1280 B(  4-C , 14-H ) :   0.8182 
B(  5-C ,  6-C ) :   1.4660 B(  5-C ,  7-C ) :   0.1805 B(  5-C , 15-H ) :   0.9432 
B(  6-C ,  7-C ) :   0.5537 B(  6-C , 16-H ) :   1.0502 B(  7-C ,  8-C ) :   0.7646 
B(  7-C , 16-H ) :  -0.1034 B(  7-C , 17-H ) :  -0.1563 B(  8-C ,  9-C ) :   0.7611 
B(  8-C , 10-C ) :   0.1033 B(  8-C , 17-H ) :   1.3562 B(  9-C , 10-C ) :   0.5315 
B(  9-C , 11-C ) :   0.1718 B(  9-C , 12-C ) :  -0.1304 B(  9-C , 13-N ) :   0.7598 
B(  9-C , 17-H ) :  -0.1618 B(  9-C , 18-H ) :  -0.1072 B( 10-C , 11-C ) :   1.4653 
B( 10-C , 12-C ) :   0.2083 B( 10-C , 13-N ) :  -0.1370 B( 10-C , 18-H ) :   1.0510 
B( 11-C , 12-C ) :   1.0358 B( 11-C , 13-N ) :  -0.2261 B( 11-C , 19-H ) :   0.9463 
B( 12-C , 13-N ) :   1.3663 B( 12-C , 20-H ) :   0.8174 

-------
TIMINGS
-------

Total SCF time: 0 days 0 hours 2 min 29 sec 

Total time                  ....     149.439 sec
Sum of individual times     ....     147.451 sec  ( 98.7%)

Fock matrix formation       ....     141.858 sec  ( 94.9%)
  Split-RI-J                ....       6.829 sec  (  4.8% of F)
  Chain of spheres X        ....     122.399 sec  ( 86.3% of F)
  XC integration            ....       7.872 sec  (  5.5% of F)
    Basis function eval.    ....       1.338 sec  ( 17.0% of XC)
    Density eval.           ....       2.871 sec  ( 36.5% of XC)
    XC-Functional eval.     ....       0.145 sec  (  1.8% of XC)
    XC-Potential eval.      ....       3.271 sec  ( 41.6% of XC)
Diagonalization             ....       0.292 sec  (  0.2%)
Density matrix formation    ....       0.025 sec  (  0.0%)
Population analysis         ....       0.227 sec  (  0.2%)
Initial guess               ....       0.340 sec  (  0.2%)
Orbital Transformation      ....       0.000 sec  (  0.0%)
Orbital Orthonormalization  ....       0.301 sec  (  0.2%)
DIIS solution               ....       0.100 sec  (  0.1%)
SOSCF solution              ....       0.234 sec  (  0.2%)
Grid generation             ....       4.373 sec  (  2.9%)

Maximum memory used throughout the entire SCF-calculation: 176.7 MB


           ************************************************************
           *        Program running with 4 parallel MPI-processes     *
           *              working on a common directory               *
           ************************************************************
------------------------------------------------------------------------------
                        ORCA TD-DFT/TDA CALCULATION
------------------------------------------------------------------------------

Input orbitals are from        ... x3lyp-train-1_job2.gbw
CI-vector output               ... x3lyp-train-1_job2.cis
Tamm-Dancoff approximation     ... operative
CIS-Integral strategy          ... AO-integrals
Integral handling              ... AO integral Direct
Max. core memory used          ... 4000 MB
Reference state                ... RHF
Generation of triplets         ... off
Follow IRoot                   ... off
Number of operators            ... 1
Orbital ranges used for CIS calculation:
 Operator 0:  Orbitals  14... 48  to  49...741
XAS localization array:
 Operator 0:  Orbitals  -1... -1

-------------------
XC-INTEGRATION GRID
-------------------

General Integration Accuracy     IntAcc      ... 3.467
Radial Grid Type                 RadialGrid  ... OptM3 with GC (2021)
Angular Grid (max. ang.)         AngularGrid ... 1 (Lebedev-50)
Angular grid pruning method      GridPruning ... 4 (adaptive)
Weight generation scheme         WeightScheme... Becke
Basis function cutoff            BFCut       ... 1.0000e-11
Integration weight cutoff        WCut        ... 1.0000e-14
Angular grids for H and He will be reduced by one unit
Partially contracted basis set               ... off
Rotationally invariant grid construction     ... off

Total number of grid points                  ...    16732
Total number of batches                      ...      270
Average number of points per batch           ...       61
Average number of grid points per atom       ...      797

---------------------
COSX-INTEGRATION GRID
---------------------

General Integration Accuracy     IntAcc      ... 3.067
Radial Grid Type                 RadialGrid  ... OptM3 with GC (2021)
Angular Grid (max. ang.)         AngularGrid ... 1 (Lebedev-50)
Angular grid pruning method      GridPruning ... 4 (adaptive)
Weight generation scheme         WeightScheme... Becke
Basis function cutoff            BFCut       ... 1.0000e-11
Integration weight cutoff        WCut        ... 1.0000e-14
Angular grids for H and He will be reduced by one unit
Partially contracted basis set               ... on
Rotationally invariant grid construction     ... off

Total number of grid points                  ...     7501
Total number of batches                      ...      128
Average number of points per batch           ...       58
Average number of grid points per atom       ...      357

---------------
TD-DFT XC SETUP
---------------

DFT calculation                         ... on
Name of the grid file                   ... x3lyp-train-1_job2.grid_cis.tmp
Exchange functional (TD-DFT)            ... X
Correlation functional (TD-DFT)         ... LYP
 LDA part of GGA corr.  LDAOpt (TD-DFT) ... VWN-5
Hybrid DFT                              ... on
   Exchange mixing (TD-DFT)             ...  0.218
   GGA exch. scaling (TD-DFT)           ...  0.709
   GGA corr. scaling (TD-DFT)           ...  0.871

Building densities             ... done
Calculating rho(r) on the grid ... done
Building xc-kernel on the grid ... done
                    *** TD-DFT CALCULATION INITIALIZED ***

---------------------------------
    LR-CPCM (non-equilibrium)
---------------------------------

Setting up LR-CPCM             ... done

------------------------
DAVIDSON-DIAGONALIZATION
------------------------

Dimension of the eigenvalue problem            ...  24255
Number of roots to be determined               ...     10
Maximum size of the expansion space            ...     70
Maximum number of iterations                   ...    100
Convergence tolerance for the residual         ...    1.000e-06
Convergence tolerance for the energies         ...    1.000e-06
Orthogonality tolerance                        ...    1.000e-14
Level Shift                                    ...    0.000e+00
Constructing the preconditioner                ... o.k.
Building the initial guess                     ... o.k.
Number of trial vectors determined             ...     70


                       ****Iteration    0****

   Memory handling for direct AO based CIS:
   Memory per vector needed      ...    25 MB
   Memory needed                 ...   756 MB
   Memory available              ...  4000 MB
   Number of vectors per batch   ...   158
   Number of batches             ...     1
   Time for densities:            0.256
   Time for RI-J (Direct):        8.955
   Time for K (COSX):            44.860
   Time for XC-Integration:      30.276
   Time for LR-CPCM terms:       12.027
   Time for Sigma-Completion:     0.197
   Size of expansion space: 30
   Lowest Energy          :     0.136278954199
   Maximum Energy change  :     0.228070241678 (vector 9)
   Maximum residual norm  :     0.022325060773

                       ****Iteration    1****
   Time for densities:            0.087
   Time for RI-J (Direct):        6.017
   Time for K (COSX):            17.753
   Time for XC-Integration:      10.606
   Time for LR-CPCM terms:        5.722
   Time for Sigma-Completion:     0.064
   Size of expansion space: 40
   Lowest Energy          :     0.117306303168
   Maximum Energy change  :     0.018972651031 (vector 0)
   Maximum residual norm  :     0.000677935995

                       ****Iteration    2****
   Time for densities:            0.088
   Time for RI-J (Direct):        6.041
   Time for K (COSX):            17.787
   Time for XC-Integration:      11.043
   Time for LR-CPCM terms:        5.862
   Time for Sigma-Completion:     0.076
   Size of expansion space: 50
   Lowest Energy          :     0.116864887503
   Maximum Energy change  :     0.001180016653 (vector 4)
   Maximum residual norm  :     0.000083171101

                       ****Iteration    3****
   Time for densities:            0.089
   Time for RI-J (Direct):        6.181
   Time for K (COSX):            17.999
   Time for XC-Integration:      11.180
   Time for LR-CPCM terms:        5.861
   Time for Sigma-Completion:     0.071
   Size of expansion space: 60
   Lowest Energy          :     0.116854473231
   Maximum Energy change  :     0.000073167243 (vector 4)
   Maximum residual norm  :     0.000004718139

                       ****Iteration    4****
   Time for densities:            0.089
   Time for RI-J (Direct):        6.207
   Time for K (COSX):            18.133
   Time for XC-Integration:      11.347
   Time for LR-CPCM terms:        5.836
   Time for Sigma-Completion:     0.063
   Size of expansion space: 70
   Lowest Energy          :     0.116854067258
   Maximum Energy change  :     0.000005986707 (vector 4)
   Maximum residual norm  :     0.000000493938

      *** CONVERGENCE OF RESIDUAL NORM REACHED ***

Storing the converged CI vectors               ... x3lyp-train-1_job2.cis1

                 *** DAVIDSON DONE ***

Total time for solving the CIS problem:   261.876sec

------------------------------------
TD-DFT/TDA EXCITED STATES (SINGLETS)
------------------------------------

the weight of the individual excitations are printed if larger than 1.0e-02

STATE  1:  E=   0.116854 au      3.180 eV    25646.5 cm**-1 <S**2> =   0.000000
    47a ->  49a  :     0.111372 (c= -0.33372479)
    48a ->  49a  :     0.854407 (c=  0.92434121)

STATE  2:  E=   0.139133 au      3.786 eV    30536.1 cm**-1 <S**2> =   0.000000
    47a ->  49a  :     0.866311 (c= -0.93075814)
    48a ->  49a  :     0.106441 (c= -0.32625222)

STATE  3:  E=   0.144822 au      3.941 eV    31784.8 cm**-1 <S**2> =   0.000000
    46a ->  49a  :     0.971241 (c=  0.98551577)

STATE  4:  E=   0.195964 au      5.332 eV    43009.2 cm**-1 <S**2> =   0.000000
    48a ->  50a  :     0.980655 (c= -0.99028034)

STATE  5:  E=   0.196686 au      5.352 eV    43167.7 cm**-1 <S**2> =   0.000000
    45a ->  49a  :     0.772896 (c= -0.87914515)
    48a ->  53a  :     0.185324 (c=  0.43049300)

STATE  6:  E=   0.205606 au      5.595 eV    45125.4 cm**-1 <S**2> =   0.000000
    44a ->  49a  :     0.988153 (c= -0.99405897)

STATE  7:  E=   0.209502 au      5.701 eV    45980.3 cm**-1 <S**2> =   0.000000
    48a ->  51a  :     0.987012 (c= -0.99348462)

STATE  8:  E=   0.214719 au      5.843 eV    47125.4 cm**-1 <S**2> =   0.000000
    48a ->  52a  :     0.983673 (c=  0.99180272)

STATE  9:  E=   0.223415 au      6.079 eV    49033.8 cm**-1 <S**2> =   0.000000
    48a ->  54a  :     0.979816 (c=  0.98985675)

STATE 10:  E=   0.227192 au      6.182 eV    49862.8 cm**-1 <S**2> =   0.000000
    48a ->  50a  :     0.010414 (c=  0.10204937)
    48a ->  55a  :     0.844121 (c=  0.91876077)
    48a ->  58a  :     0.130625 (c=  0.36142103)


-----------------------------
TD-DFT/TDA-EXCITATION SPECTRA
-----------------------------

Center of mass = ( -0.0076, -0.6440, -0.2661)
Calculating the Dipole integrals                  ... done
Transforming integrals                            ... done
Calculating the Linear Momentum integrals         ... done
Transforming integrals                            ... done
Calculating angular momentum integrals            ... done
Transforming integrals                            ... done

-----------------------------------------------------------------------------
         ABSORPTION SPECTRUM VIA TRANSITION ELECTRIC DIPOLE MOMENTS
-----------------------------------------------------------------------------
State   Energy    Wavelength  fosc         T2        TX        TY        TZ  
        (cm-1)      (nm)                 (au**2)    (au)      (au)      (au) 
-----------------------------------------------------------------------------
   1   25646.5    389.9   0.826680217  10.61170   3.19987   0.19985  -0.57670
   2   30536.1    327.5   0.353414342   3.81018  -1.91726  -0.12255   0.34536
   3   31784.8    314.6   0.056427442   0.58445   0.00623   0.69763   0.31262
   4   43009.2    232.5   0.000020558   0.00016  -0.00717  -0.00971  -0.00340
   5   43167.7    231.7   0.053323420   0.40666  -0.01296  -0.57680  -0.27165
   6   45125.4    221.6   0.000005830   0.00004   0.00644   0.00053  -0.00089
   7   45980.3    217.5   0.009100097   0.06516   0.04591  -0.10434   0.22839
   8   47125.4    212.2   0.000000974   0.00001  -0.00235  -0.00112  -0.00014
   9   49033.8    203.9   0.000084349   0.00057  -0.02369  -0.00065  -0.00217
  10   49862.8    200.6   0.000046120   0.00030  -0.01711   0.00253   0.00232

-----------------------------------------------------------------------------
         ABSORPTION SPECTRUM VIA TRANSITION VELOCITY DIPOLE MOMENTS
-----------------------------------------------------------------------------
State   Energy    Wavelength   fosc        P2         PX        PY        PZ  
        (cm-1)      (nm)                 (au**2)     (au)      (au)      (au) 
-----------------------------------------------------------------------------
   1   25646.5    389.9   0.037369591   0.00655  -0.07954  -0.00487   0.01414
   2   30536.1    327.5   0.024448207   0.00510   0.07021   0.00417  -0.01247
   3   31784.8    314.6   0.005691626   0.00124   0.00114   0.03171   0.01516
   4   43009.2    232.5   0.000004529   0.00000   0.00108   0.00040   0.00008
   5   43167.7    231.7   0.000049379   0.00001   0.00005   0.00328   0.00195
   6   45125.4    221.6   0.000000484   0.00000  -0.00037   0.00002   0.00010
   7   45980.3    217.5   0.008122842   0.00255  -0.00876   0.02091  -0.04515
   8   47125.4    212.2   0.000000742   0.00000   0.00019   0.00040   0.00020
   9   49033.8    203.9   0.000765291   0.00026  -0.01541  -0.00134   0.00416
  10   49862.8    200.6   0.000026525   0.00001   0.00300   0.00011  -0.00005

-------------------------------------------------------------------
                             CD SPECTRUM
-------------------------------------------------------------------
State  Energy     Wavelength     R         MX        MY        MZ   
       (cm-1)       (nm)     (1e40*cgs)   (au)      (au)      (au)  
-------------------------------------------------------------------
   1   25646.5    389.9     -0.46587  -0.13545   0.29376  -0.64805
   2   30536.1    327.5      0.11450  -0.00541   0.01250  -0.02488
   3   31784.8    314.6      0.00112   0.00305   0.00027  -0.00066
   4   43009.2    232.5      0.59464  -0.00152  -0.11251  -0.04632
   5   43167.7    231.7     -0.76794  -0.00051   0.00234   0.00106
   6   45125.4    221.6      0.02549   0.00468   0.21338   0.10096
   7   45980.3    217.5      0.06686  -0.14003  -0.00866   0.02481
   8   47125.4    212.2     -0.16877   0.00492   0.29307   0.13124
   9   49033.8    203.9      0.73915  -0.04854   0.09776  -0.22187
  10   49862.8    200.6      0.05037  -0.00018   0.03007   0.01188

-------------------------------------------------------------------
         CD SPECTRUM VIA TRANSITION VELOCITY DIPOLE MOMENTS        
-------------------------------------------------------------------
State  Energy     Wavelength     R         MX        MY        MZ   
       (cm-1)       (nm)     (1e40*cgs)   (au)      (au)      (au)  
-------------------------------------------------------------------
   1   25646.5    389.9      0.72420  -0.13545   0.29376  -0.64805
   2   30536.1    327.5     -0.05848  -0.00541   0.01250  -0.02488
   3   31784.8    314.6      0.00681   0.00305   0.00027  -0.00066
   4   43009.2    232.5     -0.12156  -0.00152  -0.11251  -0.04632
   5   43167.7    231.7      0.02326  -0.00051   0.00234   0.00106
   6   45125.4    221.6      0.02966   0.00468   0.21338   0.10096
   7   45980.3    217.5     -0.16703  -0.14003  -0.00866   0.02481
   8   47125.4    212.2      0.31938   0.00492   0.29307   0.13124
   9   49033.8    203.9     -0.64638  -0.04854   0.09776  -0.22187
  10   49862.8    200.6      0.00454  -0.00018   0.03007   0.01188

Total run time:      264.963 sec

           *** ORCA-CIS/TD-DFT FINISHED WITHOUT ERROR ***

Maximum memory used throughout the entire CIS-calculation: 735.6 MB

-----------------------
CIS/TD-DFT TOTAL ENERGY
-----------------------

    E(SCF)  =   -681.125632105 Eh
    DE(CIS) =      0.116854067 Eh (Root  1)
    ----------------------------- ---------
    E(tot)  =   -681.008778038 Eh


-------------------------   --------------------
FINAL SINGLE POINT ENERGY      -681.008778037666
-------------------------   --------------------


                            ***************************************
                            *     ORCA property calculations      *
                            ***************************************

                                    ---------------------
                                    Active property flags
                                    ---------------------
   (+) Dipole Moment


------------------------------------------------------------------------------
                       ORCA ELECTRIC PROPERTIES CALCULATION
------------------------------------------------------------------------------

Dipole Moment Calculation                       ... on
Quadrupole Moment Calculation                   ... off
Polarizability Calculation                      ... off
GBWName                                         ... x3lyp-train-1_job2.gbw
Electron density                                ... x3lyp-train-1_job2.scfp
The origin for moment calculation is the CENTER OF MASS  = (-0.007618, -0.644027 -0.266058)

-------------
DIPOLE MOMENT
-------------
                                X             Y             Z
Electronic contribution:     -0.09209      -7.50511      -3.11686
Nuclear contribution   :      0.11164       9.37858       3.87915
                        -----------------------------------------
Total Dipole Moment    :      0.01955       1.87347       0.76228
                        -----------------------------------------
Magnitude (a.u.)       :      2.02271
Magnitude (Debye)      :      5.14132



--------------------
Rotational spectrum 
--------------------
 
Rotational constants in cm-1:     0.042800     0.021552     0.015655 
Rotational constants in MHz :  1283.124046   646.124770   469.312804 

 Dipole components along the rotational axes: 
x,y,z [a.u.] :    -0.000931     2.022073    -0.050726 
x,y,z [Debye]:    -0.002366     5.139701    -0.128936 

 

Timings for individual modules:

Sum of individual times         ...      418.459 sec (=   6.974 min)
GTO integral calculation        ...        2.589 sec (=   0.043 min)   0.6 %
SCF iterations                  ...      150.066 sec (=   2.501 min)  35.9 %
CIS module                      ...      265.804 sec (=   4.430 min)  63.5 %



                             ****ORCA TERMINATED NORMALLY****
TOTAL RUN TIME: 0 days 1 hours 3 minutes 19 seconds 132 msec
