
                                 *****************
                                 * O   R   C   A *
                                 *****************

                                            #,                                       
                                            ###                                      
                                            ####                                     
                                            #####                                    
                                            ######                                   
                                           ########,                                 
                                     ,,################,,,,,                         
                               ,,#################################,,                 
                          ,,##########################################,,             
                       ,#########################################, ''#####,          
                    ,#############################################,,   '####,        
                  ,##################################################,,,,####,       
                ,###########''''           ''''###############################       
              ,#####''   ,,,,##########,,,,          '''####'''          '####       
            ,##' ,,,,###########################,,,                        '##       
           ' ,,###''''                  '''############,,,                           
         ,,##''                                '''############,,,,        ,,,,,,###''
      ,#''                                            '''#######################'''  
     '                                                          ''''####''''         
             ,#######,   #######,   ,#######,      ##                                
            ,#'     '#,  ##    ##  ,#'     '#,    #''#        ######   ,####,        
            ##       ##  ##   ,#'  ##            #'  '#       #        #'  '#        
            ##       ##  #######   ##           ,######,      #####,   #    #        
            '#,     ,#'  ##    ##  '#,     ,#' ,#      #,         ##   #,  ,#        
             '#######'   ##     ##  '#######'  #'      '#     #####' # '####'        



                  #######################################################
                  #                        -***-                        #
                  #          Department of theory and spectroscopy      #
                  #    Directorship and core code : Frank Neese         #
                  #        Max Planck Institute fuer Kohlenforschung    #
                  #                Kaiser Wilhelm Platz 1               #
                  #                 D-45470 Muelheim/Ruhr               #
                  #                      Germany                        #
                  #                                                     #
                  #                  All rights reserved                #
                  #                        -***-                        #
                  #######################################################


                         Program Version 5.0.2 -  RELEASE  -


 With contributions from (in alphabetic order):
   Daniel Aravena         : Magnetic Suceptibility
   Michael Atanasov       : Ab Initio Ligand Field Theory (pilot matlab implementation)
   Alexander A. Auer      : GIAO ZORA, VPT2 properties, NMR spectrum
   Ute Becker             : Parallelization
   Giovanni Bistoni       : ED, misc. LED, open-shell LED, HFLD
   Martin Brehm           : Molecular dynamics
   Dmytro Bykov           : SCF Hessian
   Vijay G. Chilkuri      : MRCI spin determinant printing, contributions to CSF-ICE
   Dipayan Datta          : RHF DLPNO-CCSD density
   Achintya Kumar Dutta   : EOM-CC, STEOM-CC
   Dmitry Ganyushin       : Spin-Orbit,Spin-Spin,Magnetic field MRCI
   Miquel Garcia          : C-PCM and meta-GGA Hessian, CC/C-PCM, Gaussian charge scheme
   Yang Guo               : DLPNO-NEVPT2, F12-NEVPT2, CIM, IAO-localization
   Andreas Hansen         : Spin unrestricted coupled pair/coupled cluster methods
   Benjamin Helmich-Paris : MC-RPA, TRAH-SCF, COSX integrals
   Lee Huntington         : MR-EOM, pCC
   Robert Izsak           : Overlap fitted RIJCOSX, COSX-SCS-MP3, EOM
   Marcus Kettner         : VPT2
   Christian Kollmar      : KDIIS, OOCD, Brueckner-CCSD(T), CCSD density, CASPT2, CASPT2-K
   Simone Kossmann        : Meta GGA functionals, TD-DFT gradient, OOMP2, MP2 Hessian
   Martin Krupicka        : Initial AUTO-CI
   Lucas Lang             : DCDCAS
   Marvin Lechner         : AUTO-CI (C++ implementation), FIC-MRCC
   Dagmar Lenk            : GEPOL surface, SMD
   Dimitrios Liakos       : Extrapolation schemes; Compound Job, initial MDCI parallelization
   Dimitrios Manganas     : Further ROCIS development; embedding schemes
   Dimitrios Pantazis     : SARC Basis sets
   Anastasios Papadopoulos: AUTO-CI, single reference methods and gradients
   Taras Petrenko         : DFT Hessian,TD-DFT gradient, ASA, ECA, R-Raman, ABS, FL, XAS/XES, NRVS
   Peter Pinski           : DLPNO-MP2, DLPNO-MP2 Gradient
   Christoph Reimann      : Effective Core Potentials
   Marius Retegan         : Local ZFS, SOC
   Christoph Riplinger    : Optimizer, TS searches, QM/MM, DLPNO-CCSD(T), (RO)-DLPNO pert. Triples
   Tobias Risthaus        : Range-separated hybrids, TD-DFT gradient, RPA, STAB
   Michael Roemelt        : Original ROCIS implementation
   Masaaki Saitow         : Open-shell DLPNO-CCSD energy and density
   Barbara Sandhoefer     : DKH picture change effects
   Avijit Sen             : IP-ROCIS
   Kantharuban Sivalingam : CASSCF convergence, NEVPT2, FIC-MRCI
   Bernardo de Souza      : ESD, SOC TD-DFT
   Georgi Stoychev        : AutoAux, RI-MP2 NMR, DLPNO-MP2 response
   Willem Van den Heuvel  : Paramagnetic NMR
   Boris Wezisla          : Elementary symmetry handling
   Frank Wennmohs         : Technical directorship


 We gratefully acknowledge several colleagues who have allowed us to
 interface, adapt or use parts of their codes:
   Stefan Grimme, W. Hujo, H. Kruse, P. Pracht,  : VdW corrections, initial TS optimization,
                  C. Bannwarth, S. Ehlert          DFT functionals, gCP, sTDA/sTD-DF
   Ed Valeev, F. Pavosevic, A. Kumar             : LibInt (2-el integral package), F12 methods
   Garnet Chan, S. Sharma, J. Yang, R. Olivares  : DMRG
   Ulf Ekstrom                                   : XCFun DFT Library
   Mihaly Kallay                                 : mrcc  (arbitrary order and MRCC methods)
   Jiri Pittner, Ondrej Demel                    : Mk-CCSD
   Frank Weinhold                                : gennbo (NPA and NBO analysis)
   Christopher J. Cramer and Donald G. Truhlar   : smd solvation model
   Lars Goerigk                                  : TD-DFT with DH, B97 family of functionals
   V. Asgeirsson, H. Jonsson                     : NEB implementation
   FAccTs GmbH                                   : IRC, NEB, NEB-TS, DLPNO-Multilevel, CI-OPT
                                                   MM, QMMM, 2- and 3-layer-ONIOM, Crystal-QMMM,
                                                   LR-CPCM, SF, NACMEs, symmetry and pop. for TD-DFT,
                                                   nearIR, NL-DFT gradient (VV10), updates on ESD,
                                                   ML-optimized integration grids
   S Lehtola, MJT Oliveira, MAL Marques          : LibXC Library
   Liviu Ungur et al                             : ANISO software


 Your calculation uses the libint2 library for the computation of 2-el integrals
 For citations please refer to: http://libint.valeyev.net

 Your ORCA version has been built with support for libXC version: 5.1.0
 For citations please refer to: https://tddft.org/programs/libxc/

 This ORCA versions uses:
   CBLAS   interface :  Fast vector & matrix operations
   LAPACKE interface :  Fast linear algebra routines
   SCALAPACK package :  Parallel linear algebra routines
   Shared memory     :  Shared parallel matrices
   BLAS/LAPACK       :  OpenBLAS 0.3.15  USE64BITINT DYNAMIC_ARCH NO_AFFINITY Sandybridge SINGLE_THREADED
        Core in use  :  Sandybridge
   Copyright (c) 2011-2014, The OpenBLAS Project


Your calculation utilizes the SMD solvation module
Please cite in your paper:
A.V. Marenich, C.J. Cramer, D.G. Truhlar J. Phys. Chem. B, 113, (2009), 6378 

================================================================================

----- Orbital basis set information -----
Your calculation utilizes the basis: aug-cc-pVTZ 
    H, B-Ne : Obtained from the ccRepo (grant-hill.group.shef.ac.uk/ccrepo) Feb. 2017
              R. A. Kendall, T. H. Dunning, Jr., R. J. Harrison, J. Chem. Phys. 96, 6796 (1992)
         He : Obtained from the ccRepo (grant-hill.group.shef.ac.uk/ccrepo) Feb. 2017
              D. E. Woon, T. H. Dunning, Jr., J. Chem. Phys. 100, 2975 (1994)
  Li-Be, Na : Obtained from the ccRepo (grant-hill.group.shef.ac.uk/ccrepo) Feb. 2017
              B. P. Prascher, D. E. Woon, K. A. Peterson, T. H. Dunning, Jr., A. K. Wilson, Theor. Chem. Acc. 128, 69 (2011)
         Mg : Obtained from the Peterson Research Group Website (tyr0.chem.wsu.edu/~kipeters) Feb. 2017
              B. P. Prascher, D. E. Woon, K. A. Peterson, T. H. Dunning, Jr., A. K. Wilson, Theor. Chem. Acc. 128, 69 (2011)
      Al-Ar : Obtained from the ccRepo (grant-hill.group.shef.ac.uk/ccrepo) Feb. 2017
              D. E. Woon, T. H. Dunning, Jr., J. Chem. Phys. 98, 1358 (1993)
      Sc-Zn : Obtained from the ccRepo (grant-hill.group.shef.ac.uk/ccrepo) Feb. 2017
              N. B. Balabanov, K. A. Peterson, J. Chem. Phys. 123, 064107 (2005)
              N. B. Balabanov, K. A. Peterson, J. Chem. Phys. 125, 074110 (2006)
      Ga-Kr : Obtained from the ccRepo (grant-hill.group.shef.ac.uk/ccrepo) Feb. 2017
              A. K. Wilson, D. E. Woon, K. A. Peterson, T. H. Dunning, Jr., J. Chem. Phys. 110, 7667 (1999)
     Ag, Au : Obtained from the Peterson Research Group Website (tyr0.chem.wsu.edu/~kipeters) Feb. 2017
              K. A. Peterson, C. Puzzarini, Theor. Chem. Acc. 114, 283 (2005)

The basis set includes element-specific modifications.

Your calculation utilizes the basis: cc-pVTZ 
       H, B-Ne : Obtained from the ccRepo (grant-hill.group.shef.ac.uk/ccrepo) Feb. 2017
                 T. H. Dunning, Jr., J. Chem. Phys. 90, 1007 (1989)
            He : Obtained from the ccRepo (grant-hill.group.shef.ac.uk/ccrepo) Feb. 2017
                 D. E. Woon, T. H. Dunning, Jr., J. Chem. Phys. 100, 2975 (1994)
  Li-Be, Na-Mg : Obtained from the ccRepo (grant-hill.group.shef.ac.uk/ccrepo) Feb. 2017
                 B. P. Prascher, D. E. Woon, K. A. Peterson, T. H. Dunning, Jr., A. K. Wilson, Theor. Chem. Acc. 128, 69 (2011)
         Al-Ar : Obtained from the ccRepo (grant-hill.group.shef.ac.uk/ccrepo) Feb. 2017
                 D. E. Woon, T. H. Dunning, Jr., J. Chem. Phys. 98, 1358 (1993)
            Ca : Obtained from the Peterson Research Group Website (tyr0.chem.wsu.edu/~kipeters) Feb. 2017
                 J. Koput, K. A. Peterson, J. Phys. Chem. 106, 9595 (2002)
         Sc-Zn : Obtained from the ccRepo (grant-hill.group.shef.ac.uk/ccrepo) Feb. 2017
                 N. B. Balabanov, K. A. Peterson, J. Chem. Phys. 123, 064107 (2005)
                 N. B. Balabanov, K. A. Peterson, J. Chem. Phys. 125, 074110 (2006)
         Ga-Kr : Obtained from the ccRepo (grant-hill.group.shef.ac.uk/ccrepo) Feb. 2017
                 A. K. Wilson, D. E. Woon, K. A. Peterson, T. H. Dunning, Jr., J. Chem. Phys. 110, 7667 (1999)
             Y : Obtained from the ccRepo (grant-hill.group.shef.ac.uk/ccrepo) Feb. 2017
                 K. A. Peterson, D. Figgen, M. Dolg, H. Stoll, J. Chem. Phys. 126, 124101 (2007)
        Ag, Au : Obtained from the Peterson Research Group Website (tyr0.chem.wsu.edu/~kipeters) Feb. 2017
                 K. A. Peterson, C. Puzzarini, Theor. Chem. Acc. 114, 283 (2005)

----- AuxJ basis set information -----
Your calculation utilizes the auxiliary basis: aug-cc-pVTZ/JK 
  H, B-F, Al-Cl, Ga-Br : Obtained from the TURBOMOLE 7.0 basis set library

The basis set includes element-specific modifications.

Your calculation utilizes the auxiliary basis: cc-pVTZ/JK 
  H, B-F, Al-Cl, Ga-Br : Obtained from the TURBOMOLE 7.0 basis set library

----- AuxC basis set information -----
Your calculation utilizes the auxiliary basis: aug-cc-pVTZ/C 
  H-He, B-F, Al-Ar, Ga-Kr : Obtained from the EMSL Basis Set Exchange (bse.pnl.gov) Feb. 2017
                            F. Weigend, A. Kohn, C. Hattig, J. Chem. Phys. 116, 3175 (2002)
                   Be, Mg : Obtained from the TURBOMOLE 7.0 basis set library
                            C. Haettig, Phys. Chem. Chem. Phys. 7, 59 (2005)
                       Ne : Obtained from the EMSL Basis Set Exchange (bse.pnl.gov) Feb. 2017
                            C. Haettig, Phys. Chem. Chem. Phys. 7, 59 (2005)
                            F. Weigend, A. Kohn, C. Hattig, J. Chem. Phys. 116, 3175 (2002)
                    Sc-Zn : Obtained from the EMSL Basis Set Exchange (bse.pnl.gov) Feb. 2017
                            J. G. Hill, J. A. Platts, J. Chem. Phys. 128, 044104 (2008)

The basis set includes element-specific modifications.

Your calculation utilizes the auxiliary basis: cc-pVTZ/C 
  Obtained from the EMSL Basis Set Exchange (bse.pnl.gov) Feb. 2017
  H-He, B-F, Al-Ar, Ga-Kr : F. Weigend, A. Kohn, C. Hattig, J. Chem. Phys. 116, 3175 (2002)
             Li-Be, Na-Mg : C. Haettig, Phys. Chem. Chem. Phys. 7, 59 (2005)
                       Ne : C. Haettig, Phys. Chem. Chem. Phys. 7, 59 (2005)
                            F. Weigend, A. Kohn, C. Hattig, J. Chem. Phys. 116, 3175 (2002)
                    Sc-Zn : J. G. Hill, J. A. Platts, J. Chem. Phys. 128, 044104 (2008)

================================================================================
                                        WARNINGS
                       Please study these warnings very carefully!
================================================================================


WARNING: Geometry Optimization
  ===> : Switching off AutoStart
         For restart on a previous wavefunction, please use MOREAD

INFO   : the flag for use of the SHARK integral package has been found!



***************************************
The coordinates will be read from file: 
***************************************


Your calculation utilizes the SMD solvation module
Please cite in your paper:
A.V. Marenich, C.J. Cramer, D.G. Truhlar J. Phys. Chem. B, 113, (2009), 6378 

================================================================================

----- Orbital basis set information -----
Your calculation utilizes the basis: aug-cc-pVTZ 
    H, B-Ne : Obtained from the ccRepo (grant-hill.group.shef.ac.uk/ccrepo) Feb. 2017
              R. A. Kendall, T. H. Dunning, Jr., R. J. Harrison, J. Chem. Phys. 96, 6796 (1992)
         He : Obtained from the ccRepo (grant-hill.group.shef.ac.uk/ccrepo) Feb. 2017
              D. E. Woon, T. H. Dunning, Jr., J. Chem. Phys. 100, 2975 (1994)
  Li-Be, Na : Obtained from the ccRepo (grant-hill.group.shef.ac.uk/ccrepo) Feb. 2017
              B. P. Prascher, D. E. Woon, K. A. Peterson, T. H. Dunning, Jr., A. K. Wilson, Theor. Chem. Acc. 128, 69 (2011)
         Mg : Obtained from the Peterson Research Group Website (tyr0.chem.wsu.edu/~kipeters) Feb. 2017
              B. P. Prascher, D. E. Woon, K. A. Peterson, T. H. Dunning, Jr., A. K. Wilson, Theor. Chem. Acc. 128, 69 (2011)
      Al-Ar : Obtained from the ccRepo (grant-hill.group.shef.ac.uk/ccrepo) Feb. 2017
              D. E. Woon, T. H. Dunning, Jr., J. Chem. Phys. 98, 1358 (1993)
      Sc-Zn : Obtained from the ccRepo (grant-hill.group.shef.ac.uk/ccrepo) Feb. 2017
              N. B. Balabanov, K. A. Peterson, J. Chem. Phys. 123, 064107 (2005)
              N. B. Balabanov, K. A. Peterson, J. Chem. Phys. 125, 074110 (2006)
      Ga-Kr : Obtained from the ccRepo (grant-hill.group.shef.ac.uk/ccrepo) Feb. 2017
              A. K. Wilson, D. E. Woon, K. A. Peterson, T. H. Dunning, Jr., J. Chem. Phys. 110, 7667 (1999)
     Ag, Au : Obtained from the Peterson Research Group Website (tyr0.chem.wsu.edu/~kipeters) Feb. 2017
              K. A. Peterson, C. Puzzarini, Theor. Chem. Acc. 114, 283 (2005)

The basis set includes element-specific modifications.

Your calculation utilizes the basis: cc-pVTZ 
       H, B-Ne : Obtained from the ccRepo (grant-hill.group.shef.ac.uk/ccrepo) Feb. 2017
                 T. H. Dunning, Jr., J. Chem. Phys. 90, 1007 (1989)
            He : Obtained from the ccRepo (grant-hill.group.shef.ac.uk/ccrepo) Feb. 2017
                 D. E. Woon, T. H. Dunning, Jr., J. Chem. Phys. 100, 2975 (1994)
  Li-Be, Na-Mg : Obtained from the ccRepo (grant-hill.group.shef.ac.uk/ccrepo) Feb. 2017
                 B. P. Prascher, D. E. Woon, K. A. Peterson, T. H. Dunning, Jr., A. K. Wilson, Theor. Chem. Acc. 128, 69 (2011)
         Al-Ar : Obtained from the ccRepo (grant-hill.group.shef.ac.uk/ccrepo) Feb. 2017
                 D. E. Woon, T. H. Dunning, Jr., J. Chem. Phys. 98, 1358 (1993)
            Ca : Obtained from the Peterson Research Group Website (tyr0.chem.wsu.edu/~kipeters) Feb. 2017
                 J. Koput, K. A. Peterson, J. Phys. Chem. 106, 9595 (2002)
         Sc-Zn : Obtained from the ccRepo (grant-hill.group.shef.ac.uk/ccrepo) Feb. 2017
                 N. B. Balabanov, K. A. Peterson, J. Chem. Phys. 123, 064107 (2005)
                 N. B. Balabanov, K. A. Peterson, J. Chem. Phys. 125, 074110 (2006)
         Ga-Kr : Obtained from the ccRepo (grant-hill.group.shef.ac.uk/ccrepo) Feb. 2017
                 A. K. Wilson, D. E. Woon, K. A. Peterson, T. H. Dunning, Jr., J. Chem. Phys. 110, 7667 (1999)
             Y : Obtained from the ccRepo (grant-hill.group.shef.ac.uk/ccrepo) Feb. 2017
                 K. A. Peterson, D. Figgen, M. Dolg, H. Stoll, J. Chem. Phys. 126, 124101 (2007)
        Ag, Au : Obtained from the Peterson Research Group Website (tyr0.chem.wsu.edu/~kipeters) Feb. 2017
                 K. A. Peterson, C. Puzzarini, Theor. Chem. Acc. 114, 283 (2005)

----- AuxJ basis set information -----
Your calculation utilizes the auxiliary basis: aug-cc-pVTZ/JK 
  H, B-F, Al-Cl, Ga-Br : Obtained from the TURBOMOLE 7.0 basis set library

The basis set includes element-specific modifications.

Your calculation utilizes the auxiliary basis: cc-pVTZ/JK 
  H, B-F, Al-Cl, Ga-Br : Obtained from the TURBOMOLE 7.0 basis set library

----- AuxC basis set information -----
Your calculation utilizes the auxiliary basis: aug-cc-pVTZ/C 
  H-He, B-F, Al-Ar, Ga-Kr : Obtained from the EMSL Basis Set Exchange (bse.pnl.gov) Feb. 2017
                            F. Weigend, A. Kohn, C. Hattig, J. Chem. Phys. 116, 3175 (2002)
                   Be, Mg : Obtained from the TURBOMOLE 7.0 basis set library
                            C. Haettig, Phys. Chem. Chem. Phys. 7, 59 (2005)
                       Ne : Obtained from the EMSL Basis Set Exchange (bse.pnl.gov) Feb. 2017
                            C. Haettig, Phys. Chem. Chem. Phys. 7, 59 (2005)
                            F. Weigend, A. Kohn, C. Hattig, J. Chem. Phys. 116, 3175 (2002)
                    Sc-Zn : Obtained from the EMSL Basis Set Exchange (bse.pnl.gov) Feb. 2017
                            J. G. Hill, J. A. Platts, J. Chem. Phys. 128, 044104 (2008)

The basis set includes element-specific modifications.

Your calculation utilizes the auxiliary basis: cc-pVTZ/C 
  Obtained from the EMSL Basis Set Exchange (bse.pnl.gov) Feb. 2017
  H-He, B-F, Al-Ar, Ga-Kr : F. Weigend, A. Kohn, C. Hattig, J. Chem. Phys. 116, 3175 (2002)
             Li-Be, Na-Mg : C. Haettig, Phys. Chem. Chem. Phys. 7, 59 (2005)
                       Ne : C. Haettig, Phys. Chem. Chem. Phys. 7, 59 (2005)
                            F. Weigend, A. Kohn, C. Hattig, J. Chem. Phys. 116, 3175 (2002)
                    Sc-Zn : J. G. Hill, J. A. Platts, J. Chem. Phys. 128, 044104 (2008)

================================================================================
                                        WARNINGS
                       Please study these warnings very carefully!
================================================================================

INFO   : Checking CIS options ...

INFO   : the flag for use of the SHARK integral package has been found!

================================================================================
                                       INPUT FILE
================================================================================
NAME = x3lyp-train-13.inp
|  1> ! x3lyp aug-cc-PVTZ RIJCOSX Opt
|  2> %maxcore 4000
|  3> %basis
|  4>  AuxJ "aug-cc-PVTZ/JK"
|  5>  AuxC "aug-cc-PVTZ/C"
|  6>  newGTO H "cc-PVTZ" end
|  7>  newAuxJGTO H "cc-PVTZ/JK" end
|  8>  newAuxCGTO H "cc-PVTZ/C" end
|  9> end
| 10> %cpcm
| 11>  SMD true
| 12>  SMDsolvent "dimethylsulfoxide"
| 13> end
| 14> %pal nprocs 4 end
| 15> * xyz 0 1
| 16> C          4.91900        0.91760       -0.09170
| 17> C          4.29310       -0.35910       -0.64060
| 18> C          2.77480       -0.26960       -0.77590
| 19> C          2.07810       -0.17250        0.58120
| 20> N          0.63210       -0.13660        0.42820
| 21> C         -0.04710       -1.32470        0.39580
| 22> S          0.76560       -2.76450        0.48790
| 23> C         -1.49030       -1.30430        0.27150
| 24> C         -2.23420       -2.47290        0.26980
| 25> C         -3.62250       -2.43400        0.15270
| 26> C         -4.28050       -1.23630        0.03590
| 27> C         -3.56480       -0.02210        0.03240
| 28> C         -4.20150        1.22970       -0.08680
| 29> C         -3.46810        2.38860       -0.08850
| 30> C         -2.07940        2.35000        0.02460
| 31> C         -1.41180        1.14210        0.14420
| 32> C         -2.15300       -0.06140        0.15230
| 33> C          0.03070        1.08210        0.26260
| 34> S          0.93500        2.46720        0.18770
| 35> H          6.00350        0.85470       -0.13960
| 36> H          4.63750        1.08160        0.94510
| 37> H          4.59860        1.77830       -0.67420
| 38> H          4.54860       -1.20260        0.00410
| 39> H          4.70950       -0.56110       -1.62980
| 40> H          2.40790       -1.15970       -1.29250
| 41> H          2.51280        0.60560       -1.37480
| 42> H          2.33270       -1.03960        1.19370
| 43> H          2.37890        0.73960        1.09740
| 44> H         -1.72410       -3.41940        0.36240
| 45> H         -4.17640       -3.36050        0.15470
| 46> H         -5.35630       -1.20550       -0.05570
| 47> H         -5.27740        1.25880       -0.17690
| 48> H         -3.96170        3.34430       -0.17890
| 49> H         -1.50940        3.26630        0.02140
| 50> *
| 51> 
| 52> 
| 53> $new_job
| 54> ! x3lyp aug-cc-PVTZ RIJCOSX SP
| 55> %maxcore 4000
| 56> %basis
| 57>  AuxJ "aug-cc-PVTZ/JK"
| 58>  AuxC "aug-cc-PVTZ/C"
| 59>  newGTO H "cc-PVTZ" end
| 60>  newAuxJGTO H "cc-PVTZ/JK" end
| 61>  newAuxCGTO H "cc-PVTZ/C" end
| 62> end
| 63> %cpcm
| 64>  SMD true
| 65>  SMDsolvent "dimethylsulfoxide"
| 66> end
| 67> %pal nprocs 4 end
| 68> %tddft
| 69>  nroots 10
| 70>  maxdim 7
| 71> end
| 72> * xyzfile 0 1
| 73> 
| 74>                          ****END OF INPUT****
================================================================================


                 $$$$$$$$$$$$$$$$$$$$$$$$$$$$$$$$$$$$$$$$$$$$$$ 
                 $ THERE ARE  2 JOBS TO BE PROCESSED THIS RUN $
                 $$$$$$$$$$$$$$$$$$$$$$$$$$$$$$$$$$$$$$$$$$$$$$ 




                 $$$$$$$$$$$$$$$$  JOB NUMBER  1 $$$$$$$$$$$$$$


                       *****************************
                       * Geometry Optimization Run *
                       *****************************

Geometry optimization settings:
Update method            Update   .... BFGS
Choice of coordinates    CoordSys .... Z-matrix Internals
Initial Hessian          InHess   .... Almoef's Model

Convergence Tolerances:
Energy Change            TolE     ....  5.0000e-06 Eh
Max. Gradient            TolMAXG  ....  3.0000e-04 Eh/bohr
RMS Gradient             TolRMSG  ....  1.0000e-04 Eh/bohr
Max. Displacement        TolMAXD  ....  4.0000e-03 bohr
RMS Displacement         TolRMSD  ....  2.0000e-03 bohr
Strict Convergence                ....  False
------------------------------------------------------------------------------
                        ORCA OPTIMIZATION COORDINATE SETUP
------------------------------------------------------------------------------

The optimization will be done in new redundant internal coordinates
Making redundant internal coordinates   ...  (new redundants) done
Evaluating the initial hessian          ...  (Almloef) done
Evaluating the coordinates              ...  done
Calculating the B-matrix                .... done
Calculating the G-matrix                .... done
Diagonalizing the G-matrix              .... done
Small eigenvalue found = 7.554e-03
Small eigenvalue found = 8.616e-03
Small eigenvalue found = 2.240e-02
The first mode is                       ....   96
The number of degrees of freedom        ....   96

    -----------------------------------------------------------------
                    Redundant Internal Coordinates


    -----------------------------------------------------------------
         Definition                    Initial Value    Approx d2E/dq
    -----------------------------------------------------------------
      1. B(C   1,C   0)                  1.5241         0.381703   
      2. B(C   2,C   1)                  1.5269         0.377795   
      3. B(C   3,C   2)                  1.5286         0.375536   
      4. B(N   4,C   3)                  1.4545         0.441515   
      5. B(C   5,N   4)                  1.3689         0.604653   
      6. B(S   6,C   5)                  1.6559         0.634290   
      7. B(C   7,C   5)                  1.4487         0.503626   
      8. B(C   8,C   7)                  1.3853         0.635712   
      9. B(C   9,C   8)                  1.3938         0.616197   
     10. B(C  10,C   9)                  1.3715         0.668664   
     11. B(C  11,C  10)                  1.4094         0.581733   
     12. B(C  12,C  11)                  1.4095         0.581674   
     13. B(C  13,C  12)                  1.3715         0.668811   
     14. B(C  14,C  13)                  1.3938         0.616061   
     15. B(C  15,C  14)                  1.3853         0.635711   
     16. B(C  16,C  15)                  1.4135         0.573215   
     17. B(C  16,C  11)                  1.4174         0.564911   
     18. B(C  16,C   7)                  1.4136         0.572973   
     19. B(C  17,C  15)                  1.4486         0.503797   
     20. B(C  17,N   4)                  1.3691         0.604336   
     21. B(S  18,C  17)                  1.6559         0.634373   
     22. B(H  19,C   0)                  1.0874         0.363585   
     23. B(H  20,C   0)                  1.0868         0.364384   
     24. B(H  21,C   0)                  1.0876         0.363355   
     25. B(H  22,C   1)                  1.0920         0.357496   
     26. B(H  23,C   1)                  1.0921         0.357316   
     27. B(H  24,C   2)                  1.0926         0.356680   
     28. B(H  25,C   2)                  1.0924         0.356962   
     29. B(H  26,C   3)                  1.0917         0.357840   
     30. B(H  27,C   3)                  1.0904         0.359633   
     31. B(H  28,C   8)                  1.0792         0.374696   
     32. B(H  29,C   9)                  1.0794         0.374331   
     33. B(H  30,C  10)                  1.0801         0.373394   
     34. B(H  31,C  12)                  1.0801         0.373495   
     35. B(H  32,C  13)                  1.0794         0.374354   
     36. B(H  33,C  14)                  1.0791         0.374774   
     37. A(H  20,C   0,H  21)          108.3752         0.291793   
     38. A(C   1,C   0,H  19)          110.1972         0.325984   
     39. A(C   1,C   0,H  20)          111.3221         0.326102   
     40. A(C   1,C   0,H  21)          110.4294         0.325950   
     41. A(H  19,C   0,H  20)          108.0044         0.291822   
     42. A(H  19,C   0,H  21)          108.4220         0.291692   
     43. A(C   2,C   1,H  22)          109.2837         0.324531   
     44. A(H  22,C   1,H  23)          107.6184         0.290155   
     45. A(C   0,C   1,C   2)          113.0259         0.365393   
     46. A(C   0,C   1,H  22)          109.7756         0.325080   
     47. A(C   2,C   1,H  23)          108.0414         0.324504   
     48. A(C   0,C   1,H  23)          108.9389         0.325053   
     49. A(C   1,C   2,C   3)          112.2259         0.364376   
     50. A(C   1,C   2,H  25)          109.5133         0.324451   
     51. A(C   3,C   2,H  25)          109.0588         0.324132   
     52. A(C   3,C   2,H  24)          108.5706         0.324090   
     53. A(H  24,C   2,H  25)          108.2361         0.290005   
     54. A(C   1,C   2,H  24)          109.1505         0.324409   
     55. A(C   2,C   3,N   4)          111.1797         0.371917   
     56. A(N   4,C   3,H  26)          108.0873         0.331033   
     57. A(H  26,C   3,H  27)          109.5397         0.290493   
     58. A(N   4,C   3,H  27)          107.6626         0.331307   
     59. A(C   2,C   3,H  26)          109.9597         0.324262   
     60. A(C   2,C   3,H  27)          110.3477         0.324529   
     61. A(C   5,N   4,C  17)          123.4888         0.424541   
     62. A(C   3,N   4,C  17)          118.1253         0.401491   
     63. A(C   3,N   4,C   5)          118.3151         0.401528   
     64. A(N   4,C   5,C   7)          118.9527         0.413650   
     65. A(S   6,C   5,C   7)          120.3944         0.443139   
     66. A(N   4,C   5,S   6)          120.6519         0.455063   
     67. A(C   8,C   7,C  16)          119.3322         0.429885   
     68. A(C   5,C   7,C  16)          119.1209         0.412380   
     69. A(C   5,C   7,C   8)          121.5467         0.420076   
     70. A(C   9,C   8,H  28)          120.1658         0.354922   
     71. A(C   7,C   8,H  28)          119.0736         0.356806   
     72. A(C   7,C   8,C   9)          120.7606         0.435543   
     73. A(C  10,C   9,H  29)          120.2321         0.359827   
     74. A(C   8,C   9,H  29)          119.1440         0.354864   
     75. A(C   8,C   9,C  10)          120.6239         0.439530   
     76. A(C   9,C  10,H  30)          120.6609         0.359673   
     77. A(C  11,C  10,H  30)          118.7493         0.351274   
     78. A(C   9,C  10,C  11)          120.5898         0.434993   
     79. A(C  10,C  11,C  12)          122.4073         0.424249   
     80. A(C  12,C  11,C  16)          118.7975         0.422030   
     81. A(C  10,C  11,C  16)          118.7951         0.422038   
     82. A(C  11,C  12,H  31)          118.7492         0.351284   
     83. A(C  11,C  12,C  13)          120.5986         0.435002   
     84. A(C  13,C  12,H  31)          120.6522         0.359703   
     85. A(C  12,C  13,H  32)          120.2463         0.359844   
     86. A(C  12,C  13,C  14)          120.6162         0.439530   
     87. A(C  14,C  13,H  32)          119.1375         0.354854   
     88. A(C  13,C  14,H  33)          120.1658         0.354922   
     89. A(C  13,C  14,C  15)          120.7505         0.435526   
     90. A(C  15,C  14,H  33)          119.0836         0.356818   
     91. A(C  16,C  15,C  17)          119.1073         0.412436   
     92. A(C  14,C  15,C  17)          121.5382         0.420101   
     93. A(C  14,C  15,C  16)          119.3544         0.429918   
     94. A(C  11,C  16,C  15)          119.8819         0.420928   
     95. A(C   7,C  16,C  15)          120.2186         0.421994   
     96. A(C   7,C  16,C  11)          119.8984         0.420896   
     97. A(C  15,C  17,S  18)          120.3632         0.443177   
     98. A(N   4,C  17,S  18)          120.6762         0.455031   
     99. A(N   4,C  17,C  15)          118.9592         0.413636   
    100. D(C   2,C   1,C   0,H  21)    -52.6426         0.011607   
    101. D(H  22,C   1,C   0,H  21)   -174.9276         0.011607   
    102. D(H  22,C   1,C   0,H  19)     65.3140         0.011607   
    103. D(C   2,C   1,C   0,H  20)     67.7886         0.011607   
    104. D(C   2,C   1,C   0,H  19)   -172.4009         0.011607   
    105. D(H  23,C   1,C   0,H  21)     67.4640         0.011607   
    106. D(H  23,C   1,C   0,H  19)    -52.2943         0.011607   
    107. D(H  23,C   1,C   0,H  20)   -172.1048         0.011607   
    108. D(H  22,C   1,C   0,H  20)    -54.4964         0.011607   
    109. D(H  24,C   2,C   1,H  23)     52.0394         0.011383   
    110. D(C   3,C   2,C   1,H  23)    172.4432         0.011383   
    111. D(H  24,C   2,C   1,H  22)    -64.7819         0.011383   
    112. D(C   3,C   2,C   1,C   0)    -66.9380         0.011383   
    113. D(H  25,C   2,C   1,C   0)     54.3305         0.011383   
    114. D(H  25,C   2,C   1,H  22)    176.8903         0.011383   
    115. D(H  24,C   2,C   1,C   0)    172.6583         0.011383   
    116. D(C   3,C   2,C   1,H  22)     55.6218         0.011383   
    117. D(H  25,C   2,C   1,H  23)    -66.2884         0.011383   
    118. D(H  26,C   3,C   2,H  24)     62.4445         0.011254   
    119. D(H  27,C   3,C   2,H  24)   -176.6114         0.011254   
    120. D(H  27,C   3,C   2,C   1)     62.6496         0.011254   
    121. D(H  26,C   3,C   2,H  25)   -179.8236         0.011254   
    122. D(N   4,C   3,C   2,H  25)     60.5099         0.011254   
    123. D(H  26,C   3,C   2,C   1)    -58.2945         0.011254   
    124. D(N   4,C   3,C   2,C   1)   -177.9611         0.011254   
    125. D(H  27,C   3,C   2,H  25)    -58.8795         0.011254   
    126. D(N   4,C   3,C   2,H  24)    -57.2221         0.011254   
    127. D(C  17,N   4,C   3,C   2)    -88.5408         0.016623   
    128. D(C   5,N   4,C   3,H  27)   -150.5126         0.016623   
    129. D(C   5,N   4,C   3,H  26)    -32.2670         0.016623   
    130. D(C   5,N   4,C   3,C   2)     88.5080         0.016623   
    131. D(C  17,N   4,C   3,H  27)     32.4387         0.016623   
    132. D(C  17,N   4,C   3,H  26)    150.6843         0.016623   
    133. D(C   7,C   5,N   4,C  17)     -4.3745         0.029493   
    134. D(C   7,C   5,N   4,C   3)    178.7465         0.029493   
    135. D(S   6,C   5,N   4,C  17)    175.2641         0.029493   
    136. D(S   6,C   5,N   4,C   3)     -1.6149         0.029493   
    137. D(C  16,C   7,C   5,N   4)      1.6291         0.017279   
    138. D(C   8,C   7,C   5,S   6)      2.1338         0.017279   
    139. D(C   8,C   7,C   5,N   4)   -178.2266         0.017279   
    140. D(C  16,C   7,C   5,S   6)   -178.0105         0.017279   
    141. D(H  28,C   8,C   7,C  16)   -179.9170         0.028053   
    142. D(H  28,C   8,C   7,C   5)     -0.0616         0.028053   
    143. D(C   9,C   8,C   7,C  16)     -0.0216         0.028053   
    144. D(C   9,C   8,C   7,C   5)    179.8338         0.028053   
    145. D(H  29,C   9,C   8,H  28)     -0.0832         0.026255   
    146. D(H  29,C   9,C   8,C   7)   -179.9775         0.026255   
    147. D(C  10,C   9,C   8,H  28)    179.9317         0.026255   
    148. D(C  10,C   9,C   8,C   7)      0.0375         0.026255   
    149. D(H  30,C  10,C   9,H  29)     -0.0355         0.031260   
    150. D(H  30,C  10,C   9,C   8)    179.9494         0.031260   
    151. D(C  11,C  10,C   9,H  29)   -179.9985         0.031260   
    152. D(C  11,C  10,C   9,C   8)     -0.0136         0.031260   
    153. D(C  16,C  11,C  10,H  30)   -179.9885         0.023257   
    154. D(C  16,C  11,C  10,C   9)     -0.0248         0.023257   
    155. D(C  12,C  11,C  10,H  30)     -0.0291         0.023257   
    156. D(C  12,C  11,C  10,C   9)    179.9346         0.023257   
    157. D(H  31,C  12,C  11,C  16)   -179.9260         0.023252   
    158. D(H  31,C  12,C  11,C  10)      0.1145         0.023252   
    159. D(C  13,C  12,C  11,C  16)      0.0845         0.023252   
    160. D(C  13,C  12,C  11,C  10)   -179.8750         0.023252   
    161. D(C  14,C  13,C  12,H  31)   -179.8455         0.031275   
    162. D(C  14,C  13,C  12,C  11)      0.1438         0.031275   
    163. D(H  32,C  13,C  12,H  31)      0.0854         0.031275   
    164. D(H  32,C  13,C  12,C  11)   -179.9253         0.031275   
    165. D(H  33,C  14,C  13,H  32)      0.0032         0.026242   
    166. D(H  33,C  14,C  13,C  12)    179.9348         0.026242   
    167. D(C  15,C  14,C  13,H  32)    179.9115         0.026242   
    168. D(C  15,C  14,C  13,C  12)     -0.1569         0.026242   
    169. D(C  17,C  15,C  14,H  33)     -0.0987         0.028053   
    170. D(C  17,C  15,C  14,C  13)    179.9920         0.028053   
    171. D(C  16,C  15,C  14,H  33)    179.8477         0.028053   
    172. D(C  16,C  15,C  14,C  13)     -0.0616         0.028053   
    173. D(C  11,C  16,C  15,C  17)   -179.7631         0.022550   
    174. D(C  11,C  16,C  15,C  14)      0.2891         0.022550   
    175. D(C   7,C  16,C  15,C  17)     -0.1434         0.022550   
    176. D(C   7,C  16,C  15,C  14)    179.9089         0.022550   
    177. D(C  15,C  16,C  11,C  12)     -0.2999         0.021875   
    178. D(C  15,C  16,C  11,C  10)    179.6610         0.021875   
    179. D(C   7,C  16,C  11,C  12)   -179.9209         0.021875   
    180. D(C   7,C  16,C  11,C  10)      0.0400         0.021875   
    181. D(C  15,C  16,C   7,C   8)   -179.6369         0.022530   
    182. D(C  15,C  16,C   7,C   5)      0.5042         0.022530   
    183. D(C  11,C  16,C   7,C   8)     -0.0172         0.022530   
    184. D(C  11,C  16,C   7,C   5)   -179.8761         0.022530   
    185. D(S  18,C  17,C  15,C  16)    177.2183         0.017291   
    186. D(S  18,C  17,C  15,C  14)     -2.8352         0.017291   
    187. D(N   4,C  17,C  15,C  16)     -2.3605         0.017291   
    188. D(N   4,C  17,C  15,C  14)    177.5861         0.017291   
    189. D(S  18,C  17,N   4,C   5)   -174.8363         0.029460   
    190. D(S  18,C  17,N   4,C   3)      2.0483         0.029460   
    191. D(C  15,C  17,N   4,C   5)      4.7411         0.029460   
    192. D(C  15,C  17,N   4,C   3)   -178.3743         0.029460   
    -----------------------------------------------------------------

Number of atoms                         .... 34
Number of degrees of freedom            .... 192

         *************************************************************
         *                GEOMETRY OPTIMIZATION CYCLE   1            *
         *************************************************************
---------------------------------
CARTESIAN COORDINATES (ANGSTROEM)
---------------------------------
  C      4.919000    0.917600   -0.091700
  C      4.293100   -0.359100   -0.640600
  C      2.774800   -0.269600   -0.775900
  C      2.078100   -0.172500    0.581200
  N      0.632100   -0.136600    0.428200
  C     -0.047100   -1.324700    0.395800
  S      0.765600   -2.764500    0.487900
  C     -1.490300   -1.304300    0.271500
  C     -2.234200   -2.472900    0.269800
  C     -3.622500   -2.434000    0.152700
  C     -4.280500   -1.236300    0.035900
  C     -3.564800   -0.022100    0.032400
  C     -4.201500    1.229700   -0.086800
  C     -3.468100    2.388600   -0.088500
  C     -2.079400    2.350000    0.024600
  C     -1.411800    1.142100    0.144200
  C     -2.153000   -0.061400    0.152300
  C      0.030700    1.082100    0.262600
  S      0.935000    2.467200    0.187700
  H      6.003500    0.854700   -0.139600
  H      4.637500    1.081600    0.945100
  H      4.598600    1.778300   -0.674200
  H      4.548600   -1.202600    0.004100
  H      4.709500   -0.561100   -1.629800
  H      2.407900   -1.159700   -1.292500
  H      2.512800    0.605600   -1.374800
  H      2.332700   -1.039600    1.193700
  H      2.378900    0.739600    1.097400
  H     -1.724100   -3.419400    0.362400
  H     -4.176400   -3.360500    0.154700
  H     -5.356300   -1.205500   -0.055700
  H     -5.277400    1.258800   -0.176900
  H     -3.961700    3.344300   -0.178900
  H     -1.509400    3.266300    0.021400

----------------------------
CARTESIAN COORDINATES (A.U.)
----------------------------
  NO LB      ZA    FRAG     MASS         X           Y           Z
   0 C     6.0000    0    12.011    9.295563    1.734013   -0.173288
   1 C     6.0000    0    12.011    8.112783   -0.678601   -1.210559
   2 C     6.0000    0    12.011    5.243612   -0.509470   -1.466239
   3 C     6.0000    0    12.011    3.927040   -0.325978    1.098309
   4 N     7.0000    0    14.007    1.194496   -0.258137    0.809181
   5 C     6.0000    0    12.011   -0.089006   -2.503320    0.747954
   6 S    16.0000    0    32.060    1.446774   -5.224148    0.921997
   7 C     6.0000    0    12.011   -2.816259   -2.464770    0.513061
   8 C     6.0000    0    12.011   -4.222026   -4.673104    0.509848
   9 C     6.0000    0    12.011   -6.845533   -4.599593    0.288561
  10 C     6.0000    0    12.011   -8.088973   -2.336268    0.067841
  11 C     6.0000    0    12.011   -6.736496   -0.041763    0.061227
  12 C     6.0000    0    12.011   -7.939684    2.323796   -0.164028
  13 C     6.0000    0    12.011   -6.553759    4.513800   -0.167241
  14 C     6.0000    0    12.011   -3.929497    4.440856    0.046487
  15 C     6.0000    0    12.011   -2.667915    2.158256    0.272499
  16 C     6.0000    0    12.011   -4.068580   -0.116029    0.287805
  17 C     6.0000    0    12.011    0.058015    2.044873    0.496242
  18 S    16.0000    0    32.060    1.766894    4.662332    0.354702
  19 H     1.0000    0     1.008   11.344971    1.615149   -0.263806
  20 H     1.0000    0     1.008    8.763605    2.043928    1.785980
  21 H     1.0000    0     1.008    8.690095    3.360500   -1.274053
  22 H     1.0000    0     1.008    8.595608   -2.272585    0.007748
  23 H     1.0000    0     1.008    8.899665   -1.060325   -3.079876
  24 H     1.0000    0     1.008    4.550272   -2.191515   -2.442471
  25 H     1.0000    0     1.008    4.748504    1.144418   -2.597995
  26 H     1.0000    0     1.008    4.408164   -1.964559    2.255766
  27 H     1.0000    0     1.008    4.495469    1.397641    2.073785
  28 H     1.0000    0     1.008   -3.258077   -6.461730    0.684837
  29 H     1.0000    0     1.008   -7.892252   -6.350425    0.292341
  30 H     1.0000    0     1.008  -10.121940   -2.278065   -0.105258
  31 H     1.0000    0     1.008   -9.972841    2.378787   -0.334293
  32 H     1.0000    0     1.008   -7.486528    6.319811   -0.338072
  33 H     1.0000    0     1.008   -2.852353    6.172412    0.040440

--------------------------------
INTERNAL COORDINATES (ANGSTROEM)
--------------------------------
 C      0   0   0     0.000000000000     0.00000000     0.00000000
 C      1   0   0     1.524140712008     0.00000000     0.00000000
 C      2   1   0     1.526941789984   113.02586624     0.00000000
 C      3   2   1     1.528574404470   112.22591531   293.06204657
 N      4   3   2     1.454514974141   111.17969804   182.03890501
 C      5   4   3     1.368920746428   118.31513682    88.50795429
 S      6   5   4     1.655894845695   120.65190629   358.38511661
 C      6   5   4     1.448686608622   118.95269240   178.74647664
 C      8   6   5     1.385285551791   121.54671954   181.77340384
 C      9   8   6     1.393772761249   120.76056242   179.83382136
 C     10   9   8     1.371528902357   120.62388487     0.03746462
 C     11  10   9     1.409439739755   120.58980865     0.00000000
 C     12  11  10     1.409467548403   122.40733500   179.93463143
 C     13  12  11     1.371469161155   120.59861611   180.12504404
 C     14  13  12     1.393832579616   120.61615924     0.14383001
 C     15  14  13     1.385285649244   120.75049579   359.84313082
 C     16  15  14     1.413455093026   119.35441757   359.93840170
 C      5   4   3     1.369063552214   118.12529884   271.45922321
 S     18   5   4     1.655859447538   120.67618921     2.04826683
 H      1   2   3     1.087378071326   110.19716982   187.59908254
 H      1   2   3     1.086780792064   111.32211580    67.78863118
 H      1   2   3     1.087550872373   110.42938901   307.35741757
 H      2   1   3     1.091975544598   109.77561128   237.71496306
 H      2   1   3     1.092112448423   108.93890803   120.10656892
 H      3   2   1     1.092597446455   109.15045228   172.65832829
 H      3   2   1     1.092382831246   109.51328881    54.33054345
 H      4   3   2     1.091714165888   109.95969750   301.70548115
 H      4   3   2     1.090352919930   110.34765446    62.64956115
 H      9   8   6     1.079184423535   119.07360317   359.93842655
 H     10   9   8     1.079449609755   119.14399078   180.02253412
 H     11  10   9     1.080131862321   120.66086608   179.94939395
 H     13  12  11     1.080058160471   118.74915408     0.11454530
 H     14  13  12     1.079433003942   120.24626356   180.07465981
 H     15  14  13     1.079127392850   120.16580721   179.93482538

---------------------------
INTERNAL COORDINATES (A.U.)
---------------------------
 C      0   0   0     0.000000000000     0.00000000     0.00000000
 C      1   0   0     2.880208535255     0.00000000     0.00000000
 C      2   1   0     2.885501805510   113.02586624     0.00000000
 C      3   2   1     2.888586999770   112.22591531   293.06204657
 N      4   3   2     2.748634958814   111.17969804   182.03890501
 C      5   4   3     2.586885309791   118.31513682    88.50795429
 S      6   5   4     3.129187764936   120.65190629   358.38511661
 C      6   5   4     2.737620944174   118.95269240   178.74647664
 C      8   6   5     2.617810310162   121.54671954   181.77340384
 C      9   8   6     2.633848811680   120.76056242   179.83382136
 C     10   9   8     2.591814010212   120.62388487     0.03746462
 C     11  10   9     2.663455110402   120.58980865     0.00000000
 C     12  11  10     2.663507661130   122.40733500   179.93463143
 C     13  12  11     2.591701115702   120.59861611   180.12504404
 C     14  13  12     2.633961852012   120.61615924     0.14383001
 C     15  14  13     2.617810494322   120.75049579   359.84313082
 C     16  15  14     2.671043028415   119.35441757   359.93840170
 C      5   4   3     2.587155173617   118.12529884   271.45922321
 S     18   5   4     3.129120872112   120.67618921     2.04826683
 H      1   2   3     2.054846758837   110.19716982   187.59908254
 H      1   2   3     2.053718064608   111.32211580    67.78863118
 H      1   2   3     2.055173305493   110.42938901   307.35741757
 H      2   1   3     2.063534724230   109.77561128   237.71496306
 H      2   1   3     2.063793434965   108.93890803   120.10656892
 H      3   2   1     2.064709948422   109.15045228   172.65832829
 H      3   2   1     2.064304384452   109.51328881    54.33054345
 H      4   3   2     2.063040790050   109.95969750   301.70548115
 H      4   3   2     2.060468407989   110.34765446    62.64956115
 H      9   8   6     2.039363008474   119.07360317   359.93842655
 H     10   9   8     2.039864137805   119.14399078   180.02253412
 H     11  10   9     2.041153408308   120.66086608   179.94939395
 H     13  12  11     2.041014131997   118.74915408     0.11454530
 H     14  13  12     2.039832757367   120.24626356   180.07465981
 H     15  14  13     2.039255236100   120.16580721   179.93482538

---------------------
BASIS SET INFORMATION
---------------------
There are 4 groups of distinct atoms

 Group   1 Type C   : 19s6p3d2f contracted to 5s4p3d2f pattern {88111/3111/111/11}
 Group   2 Type N   : 19s6p3d2f contracted to 5s4p3d2f pattern {88111/3111/111/11}
 Group   3 Type S   : 42s17p3d2f contracted to 6s5p3d2f pattern {131313111/77111/111/11}
 Group   4 Type H   : 5s2p1d contracted to 3s2p1d pattern {311/11/1}

Atom   0C    basis set group =>   1
Atom   1C    basis set group =>   1
Atom   2C    basis set group =>   1
Atom   3C    basis set group =>   1
Atom   4N    basis set group =>   2
Atom   5C    basis set group =>   1
Atom   6S    basis set group =>   3
Atom   7C    basis set group =>   1
Atom   8C    basis set group =>   1
Atom   9C    basis set group =>   1
Atom  10C    basis set group =>   1
Atom  11C    basis set group =>   1
Atom  12C    basis set group =>   1
Atom  13C    basis set group =>   1
Atom  14C    basis set group =>   1
Atom  15C    basis set group =>   1
Atom  16C    basis set group =>   1
Atom  17C    basis set group =>   1
Atom  18S    basis set group =>   3
Atom  19H    basis set group =>   4
Atom  20H    basis set group =>   4
Atom  21H    basis set group =>   4
Atom  22H    basis set group =>   4
Atom  23H    basis set group =>   4
Atom  24H    basis set group =>   4
Atom  25H    basis set group =>   4
Atom  26H    basis set group =>   4
Atom  27H    basis set group =>   4
Atom  28H    basis set group =>   4
Atom  29H    basis set group =>   4
Atom  30H    basis set group =>   4
Atom  31H    basis set group =>   4
Atom  32H    basis set group =>   4
Atom  33H    basis set group =>   4
---------------------------------
AUXILIARY/J BASIS SET INFORMATION
---------------------------------
There are 4 groups of distinct atoms

 Group   1 Type C   : 10s7p5d2f1g contracted to 10s7p5d2f1g pattern {1111111111/1111111/11111/11/1}
 Group   2 Type N   : 10s7p5d2f1g contracted to 10s7p5d2f1g pattern {1111111111/1111111/11111/11/1}
 Group   3 Type S   : 13s11p9d3f1g contracted to 13s11p9d3f1g pattern {1111111111111/11111111111/111111111/111/1}
 Group   4 Type H   : 4s3p2d1f contracted to 4s3p2d1f pattern {1111/111/11/1}

Atom   0C    basis set group =>   1
Atom   1C    basis set group =>   1
Atom   2C    basis set group =>   1
Atom   3C    basis set group =>   1
Atom   4N    basis set group =>   2
Atom   5C    basis set group =>   1
Atom   6S    basis set group =>   3
Atom   7C    basis set group =>   1
Atom   8C    basis set group =>   1
Atom   9C    basis set group =>   1
Atom  10C    basis set group =>   1
Atom  11C    basis set group =>   1
Atom  12C    basis set group =>   1
Atom  13C    basis set group =>   1
Atom  14C    basis set group =>   1
Atom  15C    basis set group =>   1
Atom  16C    basis set group =>   1
Atom  17C    basis set group =>   1
Atom  18S    basis set group =>   3
Atom  19H    basis set group =>   4
Atom  20H    basis set group =>   4
Atom  21H    basis set group =>   4
Atom  22H    basis set group =>   4
Atom  23H    basis set group =>   4
Atom  24H    basis set group =>   4
Atom  25H    basis set group =>   4
Atom  26H    basis set group =>   4
Atom  27H    basis set group =>   4
Atom  28H    basis set group =>   4
Atom  29H    basis set group =>   4
Atom  30H    basis set group =>   4
Atom  31H    basis set group =>   4
Atom  32H    basis set group =>   4
Atom  33H    basis set group =>   4
---------------------------------
AUXILIARY/C BASIS SET INFORMATION
---------------------------------
There are 4 groups of distinct atoms

 Group   1 Type C   : 9s7p6d4f2g contracted to 9s7p6d4f2g pattern {111111111/1111111/111111/1111/11}
 Group   2 Type N   : 9s7p6d4f2g contracted to 9s7p6d4f2g pattern {111111111/1111111/111111/1111/11}
 Group   3 Type S   : 11s9p8d6f3g contracted to 11s9p8d6f3g pattern {11111111111/111111111/11111111/111111/111}
 Group   4 Type H   : 4s3p2d1f contracted to 4s3p2d1f pattern {1111/111/11/1}

Atom   0C    basis set group =>   1
Atom   1C    basis set group =>   1
Atom   2C    basis set group =>   1
Atom   3C    basis set group =>   1
Atom   4N    basis set group =>   2
Atom   5C    basis set group =>   1
Atom   6S    basis set group =>   3
Atom   7C    basis set group =>   1
Atom   8C    basis set group =>   1
Atom   9C    basis set group =>   1
Atom  10C    basis set group =>   1
Atom  11C    basis set group =>   1
Atom  12C    basis set group =>   1
Atom  13C    basis set group =>   1
Atom  14C    basis set group =>   1
Atom  15C    basis set group =>   1
Atom  16C    basis set group =>   1
Atom  17C    basis set group =>   1
Atom  18S    basis set group =>   3
Atom  19H    basis set group =>   4
Atom  20H    basis set group =>   4
Atom  21H    basis set group =>   4
Atom  22H    basis set group =>   4
Atom  23H    basis set group =>   4
Atom  24H    basis set group =>   4
Atom  25H    basis set group =>   4
Atom  26H    basis set group =>   4
Atom  27H    basis set group =>   4
Atom  28H    basis set group =>   4
Atom  29H    basis set group =>   4
Atom  30H    basis set group =>   4
Atom  31H    basis set group =>   4
Atom  32H    basis set group =>   4
Atom  33H    basis set group =>   4


           ************************************************************
           *        Program running with 4 parallel MPI-processes     *
           *              working on a common directory               *
           ************************************************************
------------------------------------------------------------------------------
                           ORCA GTO INTEGRAL CALCULATION
                           -- RI-GTO INTEGRALS CHOSEN --
------------------------------------------------------------------------------
------------------------------------------------------------------------------
                   ___                                                        
                  /   \      - P O W E R E D   B Y -                         
                 /     \                                                     
                 |  |  |   _    _      __       _____    __    __             
                 |  |  |  | |  | |    /  \     |  _  \  |  |  /  |          
                  \  \/   | |  | |   /    \    | | | |  |  | /  /          
                 / \  \   | |__| |  /  /\  \   | |_| |  |  |/  /          
                |  |  |   |  __  | /  /__\  \  |    /   |      \           
                |  |  |   | |  | | |   __   |  |    \   |  |\   \          
                \     /   | |  | | |  |  |  |  | |\  \  |  | \   \       
                 \___/    |_|  |_| |__|  |__|  |_| \__\ |__|  \__/        
                                                                              
                      - O R C A' S   B I G   F R I E N D -                    
                                      &                                       
                       - I N T E G R A L  F E E D E R -                       
                                                                              
 v1 FN, 2020, v2 2021                                                         
------------------------------------------------------------------------------


Reading SHARK input file x3lyp-train-13.SHARKINP.tmp ... ok
----------------------
SHARK INTEGRAL PACKAGE
----------------------

Number of atoms                             ...     34
Number of basis functions                   ...   1244
Number of shells                            ...    492
Maximum angular momentum                    ...      3
Integral batch strategy                     ... SHARK/LIBINT Hybrid
RI-J (if used) integral strategy            ... SPLIT-RIJ (Revised 2003 algorithm where possible)
Printlevel                                  ...      1
Contraction scheme used                     ... PARTIAL GENERAL contraction
Coulomb Range Separation                    ... NOT USED
Exchange Range Separation                   ... NOT USED
Finite Nucleus Model                        ... NOT USED
Auxiliary Coulomb fitting basis             ... AVAILABLE
   # of basis functions in Aux-J            ...   2035
   # of shells in Aux-J                     ...    649
   Maximum angular momentum in Aux-J        ...      4
Auxiliary J/K fitting basis                 ... NOT available
Auxiliary Correlation fitting basis         ... AVAILABLE
   # of basis functions in Aux-C            ...   2546
   # of shells in Aux-C                     ...    700
   Maximum angular momentum in Aux-C        ...      4
Auxiliary 'external' fitting basis          ... NOT available
Integral threshold                          ...     2.500000e-11
Primitive cut-off                           ...     2.500000e-12
Primitive pair pre-selection threshold      ...     2.500000e-12

Calculating pre-screening integrals         ... done (  0.2 sec) Dimension = 492
Calculating pre-screening integrals (ORCA)  ... done (  0.7 sec) Dimension = 360
Organizing shell pair data                  ... done (  1.0 sec)
Shell pair information
Total number of shell pairs                 ...    121278
Shell pairs after pre-screening             ...     80048
Total number of primitive shell pairs       ...    154942
Primitive shell pairs kept                  ...     92996
          la=0 lb=0:  18035 shell pairs
          la=1 lb=0:  20747 shell pairs
          la=1 lb=1:   5433 shell pairs
          la=2 lb=0:  13202 shell pairs
          la=2 lb=1:   6689 shell pairs
          la=2 lb=2:   2131 shell pairs
          la=3 lb=0:   7250 shell pairs
          la=3 lb=1:   3622 shell pairs
          la=3 lb=2:   2276 shell pairs
          la=3 lb=3:    663 shell pairs

Calculating one electron integrals          ... done (  0.3 sec)
Calculating RI/J V-Matrix + Cholesky decomp.... done (  0.4 sec)
Calculating RI/C V-Matrix + Cholesky decomp.... done (  0.6 sec)
Calculating Nuclear repulsion               ... done (  0.0 sec) ENN=   1634.601803829283 Eh

SHARK setup successfully completed in   5.4 seconds

Maximum memory used throughout the entire GTOINT-calculation: 120.8 MB


           ************************************************************
           *        Program running with 4 parallel MPI-processes     *
           *              working on a common directory               *
           ************************************************************
-------------------------------------------------------------------------------
                                 ORCA SCF
-------------------------------------------------------------------------------

------------
SCF SETTINGS
------------
Hamiltonian:
 Density Functional     Method          .... DFT(GTOs)
 Exchange Functional    Exchange        .... X
 Correlation Functional Correlation     .... LYP
 LDA part of GGA corr.  LDAOpt          .... VWN-5
 Gradients option       PostSCFGGA      .... off
 Hybrid DFT is turned on
   Fraction HF Exchange ScalHFX         ....  0.218000
   Scaling of DF-GGA-X  ScalDFX         ....  0.709000
   Scaling of DF-GGA-C  ScalDFC         ....  0.871000
   Scaling of DF-LDA-C  ScalLDAC        ....  1.000000
   Perturbative correction              ....  0.000000
   Density functional embedding theory  .... OFF
 RI-approximation to the Coulomb term is turned on
   Number of AuxJ basis functions       .... 2035
   RIJ-COSX (HFX calculated with COS-X)).... on


General Settings:
 Integral files         IntName         .... x3lyp-train-13
 Hartree-Fock type      HFTyp           .... RHF
 Total Charge           Charge          ....    0
 Multiplicity           Mult            ....    1
 Number of Electrons    NEL             ....  150
 Basis Dimension        Dim             .... 1092
 Nuclear Repulsion      ENuc            ....   1634.6018038293 Eh

Convergence Acceleration:
 DIIS                   CNVDIIS         .... on
   Start iteration      DIISMaxIt       ....    12
   Startup error        DIISStart       ....  0.200000
   # of expansion vecs  DIISMaxEq       ....     5
   Bias factor          DIISBfac        ....   1.050
   Max. coefficient     DIISMaxC        ....  10.000
 Trust-Rad. Augm. Hess. CNVTRAH         .... auto
   Auto Start mean grad. ratio tolernc. ....  1.125000
   Auto Start start iteration           ....    20
   Auto Start num. interpolation iter.  ....    10
   Max. Number of Micro iterations      ....    16
   Max. Number of Macro iterations      .... Maxiter - #DIIS iter
   Number of Davidson start vectors     ....     2
   Converg. threshold I  (grad. norm)   ....   1.000e-05
   Converg. threshold II (energy diff.) ....   1.000e-08
   Grad. Scal. Fac. for Micro threshold ....   0.100
   Minimum threshold for Micro iter.    ....   0.010
   NR start threshold (gradient norm)   ....   0.001
   Initial trust radius                 ....   0.400
   Minimum AH scaling param. (alpha)    ....   1.000
   Maximum AH scaling param. (alpha)    .... 1000.000
   Orbital update algorithm             .... Taylor
   White noise on init. David. guess    .... on
   Maximum white noise                  ....   0.010
   Quad. conv. algorithm                .... NR
 SOSCF                  CNVSOSCF        .... on
   Start iteration      SOSCFMaxIt      ....   150
   Startup grad/error   SOSCFStart      ....  0.003300
 Level Shifting         CNVShift        .... on
   Level shift para.    LevelShift      ....    0.2500
   Turn off err/grad.   ShiftErr        ....    0.0010
 Zerner damping         CNVZerner       .... off
 Static damping         CNVDamp         .... on
   Fraction old density DampFac         ....    0.7000
   Max. Damping (<1)    DampMax         ....    0.9800
   Min. Damping (>=0)   DampMin         ....    0.0000
   Turn off err/grad.   DampErr         ....    0.1000
 Fernandez-Rico         CNVRico         .... off

SCF Procedure:
 Maximum # iterations   MaxIter         ....   125
 SCF integral mode      SCFMode         .... Direct
   Integral package                     .... SHARK and LIBINT hybrid scheme
 Reset frequency        DirectResetFreq ....    20
 Integral Threshold     Thresh          ....  2.500e-11 Eh
 Primitive CutOff       TCut            ....  2.500e-12 Eh

Convergence Tolerance:
 Convergence Check Mode ConvCheckMode   .... Total+1el-Energy
 Convergence forced     ConvForced      .... 0
 Energy Change          TolE            ....  1.000e-08 Eh
 1-El. energy change                    ....  1.000e-05 Eh
 Orbital Gradient       TolG            ....  1.000e-05
 Orbital Rotation angle TolX            ....  1.000e-05
 DIIS Error             TolErr          ....  5.000e-07


Diagonalization of the overlap matrix:
Smallest eigenvalue                        ... 3.364e-07
Time for diagonalization                   ...    0.336 sec
Threshold for overlap eigenvalues          ... 1.000e-08
Number of eigenvalues below threshold      ... 0
Time for construction of square roots      ...    0.217 sec
Total time needed                          ...    0.560 sec

Time for model grid setup =    2.050 sec

------------------------------
INITIAL GUESS: MODEL POTENTIAL
------------------------------
Loading Hartree-Fock densities                     ... done
Calculating cut-offs                               ... done
Initializing the effective Hamiltonian             ... done
Setting up the integral package (SHARK)            ... done
Starting the Coulomb interaction                   ... done (   2.8 sec)
Reading the grid                                   ... done
Mapping shells                                     ... done
Starting the XC term evaluation                    ... done (   2.4 sec)
  promolecular density results
     # of electrons  =    149.994071584
     EX              =   -144.312023303
     EC              =     -5.300349545
     EX+EC           =   -149.612372848
Transforming the Hamiltonian                       ... done (   0.2 sec)
Diagonalizing the Hamiltonian                      ... done (   0.3 sec)
Back transforming the eigenvectors                 ... done (   0.1 sec)
Now organizing SCF variables                       ... done
                      ------------------
                      INITIAL GUESS DONE (   7.9 sec)
                      ------------------
-------------------
DFT GRID GENERATION
-------------------

General Integration Accuracy     IntAcc      ... 4.388
Radial Grid Type                 RadialGrid  ... OptM3 with GC (2021)
Angular Grid (max. ang.)         AngularGrid ... 4 (Lebedev-302)
Angular grid pruning method      GridPruning ... 4 (adaptive)
Weight generation scheme         WeightScheme... Becke
Basis function cutoff            BFCut       ... 1.0000e-11
Integration weight cutoff        WCut        ... 1.0000e-14
Angular grids for H and He will be reduced by one unit
Partially contracted basis set               ... off
Rotationally invariant grid construction     ... off

Total number of grid points                  ...   167654
Total number of batches                      ...     2638
Average number of points per batch           ...       63
Average number of grid points per atom       ...     4931
Time for grid setup =    2.801 sec

--------------------
COSX GRID GENERATION
--------------------

GRIDX 1
-------
General Integration Accuracy     IntAcc      ... 3.816
Radial Grid Type                 RadialGrid  ... OptM3 with GC (2021)
Angular Grid (max. ang.)         AngularGrid ... 1 (Lebedev-50)
Angular grid pruning method      GridPruning ... 4 (adaptive)
Weight generation scheme         WeightScheme... Becke
Basis function cutoff            BFCut       ... 1.0000e-11
Integration weight cutoff        WCut        ... 1.0000e-14
Angular grids for H and He will be reduced by one unit
Partially contracted basis set               ... on
Rotationally invariant grid construction     ... off

Total number of grid points                  ...    21188
Total number of batches                      ...      352
Average number of points per batch           ...       60
Average number of grid points per atom       ...      623
UseSFitting                                  ... on

GRIDX 2
-------
General Integration Accuracy     IntAcc      ... 4.020
Radial Grid Type                 RadialGrid  ... OptM3 with GC (2021)
Angular Grid (max. ang.)         AngularGrid ... 2 (Lebedev-110)
Angular grid pruning method      GridPruning ... 4 (adaptive)
Weight generation scheme         WeightScheme... Becke
Basis function cutoff            BFCut       ... 1.0000e-11
Integration weight cutoff        WCut        ... 1.0000e-14
Angular grids for H and He will be reduced by one unit
Partially contracted basis set               ... on
Rotationally invariant grid construction     ... off

Total number of grid points                  ...    49145
Total number of batches                      ...      786
Average number of points per batch           ...       62
Average number of grid points per atom       ...     1445
UseSFitting                                  ... on

GRIDX 3
-------
General Integration Accuracy     IntAcc      ... 4.338
Radial Grid Type                 RadialGrid  ... OptM3 with GC (2021)
Angular Grid (max. ang.)         AngularGrid ... 3 (Lebedev-194)
Angular grid pruning method      GridPruning ... 4 (adaptive)
Weight generation scheme         WeightScheme... Becke
Basis function cutoff            BFCut       ... 1.0000e-11
Integration weight cutoff        WCut        ... 1.0000e-14
Angular grids for H and He will be reduced by one unit
Partially contracted basis set               ... on
Rotationally invariant grid construction     ... off

Total number of grid points                  ...   107451
Total number of batches                      ...     1697
Average number of points per batch           ...       63
Average number of grid points per atom       ...     3160
UseSFitting                                  ... on

Time for X-Grid setup             =    7.875 sec


--------------------
CPCM SOLVATION MODEL
--------------------
CPCM parameters:
  Epsilon                                         ...      46.8260
  Refrac                                          ...       1.4170
  Rsolv                                           ...       1.3000
  Surface type                                    ... GAUSSIAN VDW
  Epsilon function type                           ...         CPCM
Solvent:                                     ... DIMETHYLSULFOXIDE
SMD-CDS solvent descriptors:
  Soln                                       ...    1.4170
  Soln25                                     ...    1.4773
  Sola                                       ...    0.0000
  Solb                                       ...    0.8800
  Solg                                       ...   61.7800
  Solc                                       ...    0.0000
  Solh                                       ...    0.0000
Radii:
 Radius for C  used is    3.4960 Bohr (=   1.8500 Ang.)
 Radius for N  used is    3.5716 Bohr (=   1.8900 Ang.)
 Radius for S  used is    4.7054 Bohr (=   2.4900 Ang.)
 Radius for H  used is    2.2677 Bohr (=   1.2000 Ang.)
Calculating surface                               ...        done! (  0.0s)
GEPOL surface points                              ...         1809
GEPOL Volume                                      ...    2135.3107
GEPOL Surface-area                                ...    1087.9349
Calculating surface distance matrix               ...        done! (  0.0s)
Performing Cholesky decomposition & store         ...        done! (  0.2s)
Overall time for CPCM initialization              ...                 0.3s
 re-compute Schwartz prescreening matrix in partically contracted basis (1) ...done (   0.249 sec)
--------------
SCF ITERATIONS
--------------
ITER       Energy         Delta-E        Max-DP      RMS-DP      [F,P]     Damp
               ***  Starting incremental Fock matrix formation  ***
  0  -1468.9988500828   0.000000000000 0.56814088  0.00190365  0.2047462 0.7000
  1  -1469.1777488087  -0.178898725860 0.41761783  0.00151391  0.1056748 0.7000
                               ***Turning on DIIS***
  2  -1469.2596205100  -0.081871701312 0.88634300  0.00352672  0.0395107 0.0000
  3  -1469.3777356949  -0.118115184931 0.08307378  0.00047616  0.0577881 0.0000
  4  -1469.4072497672  -0.029514072274 0.03241789  0.00022227  0.0088195 0.0000
  5  -1469.4084841848  -0.001234417554 0.01450692  0.00008684  0.0034669 0.0000
                      *** Initiating the SOSCF procedure ***
                           *** Shutting down DIIS ***
                      *** Re-Reading the Fockian *** 
                      *** Removing any level shift *** 
ITER      Energy       Delta-E        Grad      Rot      Max-DP    RMS-DP
  6  -1469.40860614  -0.0001219555  0.000491  0.000491  0.011910  0.000063
               *** Restarting incremental Fock matrix formation ***
  7  -1469.40860582   0.0000003155  0.000393  0.003436  0.074375  0.000712
  8  -1469.40861290  -0.0000070716  0.000149  0.001187  0.025503  0.000226
  9  -1469.40861383  -0.0000009308  0.000123  0.000531  0.025535  0.000217
 10  -1469.40861484  -0.0000010081  0.000063  0.000226  0.022169  0.000138
 11  -1469.40861485  -0.0000000166  0.000041  0.000107  0.014656  0.000088
 12  -1469.40861501  -0.0000001568  0.000010  0.000040  0.020014  0.000108
 13  -1469.40861502  -0.0000000141  0.000008  0.000024  0.009932  0.000052
 14  -1469.40861499   0.0000000376  0.000003  0.000030  0.032612  0.000150
 15  -1469.40861494   0.0000000484  0.000003  0.000019  0.017426  0.000079
                  ***Gradient check signals convergence***
              ***Rediagonalizing the Fockian in SOSCF/NRSCF***

               *****************************************************
               *                     SUCCESS                       *
               *           SCF CONVERGED AFTER  16 CYCLES          *
               *****************************************************

Old exchange energy                            =    -31.629814510 Eh
New exchange energy                            =    -31.629909077 Eh
Exchange energy change after final integration =     -0.000094567 Eh
Total energy after final integration           =  -1469.408709536 Eh
Final COS-X integration done in                =   153.039 sec

SMD CDS free energy correction energy :                -2.45464     Kcal/mol
Total Energy after SMD CDS correction =             -1469.412621258 Eh

----------------
TOTAL SCF ENERGY
----------------

Total Energy       :        -1469.41262126 Eh          -39984.75021 eV

Components:
Nuclear Repulsion  :         1634.60180383 Eh           44479.77639 eV
Electronic Energy  :        -3104.01442509 Eh          -84464.52660 eV
One Electron Energy:        -5259.90985061 Eh         -143129.42359 eV
Two Electron Energy:         2155.89542552 Eh           58664.89699 eV
Max COSX asymmetry :            0.00002546 Eh               0.00069 eV
CPCM Dielectric    :           -0.01562731 Eh              -0.42524 eV
SMD CDS (Gcds)     :           -0.00391172 Eh              -0.10644 eV

Virial components:
Potential Energy   :        -2933.38704501 Eh          -79821.51954 eV
Kinetic Energy     :         1463.97442375 Eh           39836.76933 eV
Virial Ratio       :            2.00371468


DFT components:
N(Alpha)           :       75.000112137085 electrons
N(Beta)            :       75.000112137085 electrons
N(Total)           :      150.000224274171 electrons
E(X)               :     -112.653600457337 Eh       
E(C)               :       -5.939378492782 Eh       
E(XC)              :     -118.592978950119 Eh       
DFET-embed. en.    :        0.000000000000 Eh       
CPCM Solvation Model Properties:
Surface-charge          :           -0.05384103
Charge-correction       :            0.00036923 Eh               0.01005 eV
Free-energy (cav+disp)  :           -0.00391172 Eh              -0.10644 eV

---------------
SCF CONVERGENCE
---------------

  Last Energy change         ...   -3.2955e-08  Tolerance :   1.0000e-08
  Last MAX-Density change    ...    5.3291e-15  Tolerance :   1.0000e-07
  Last RMS-Density change    ...    2.1518e-17  Tolerance :   5.0000e-09
  Last Orbital Gradient      ...    1.5427e-06  Tolerance :   1.0000e-05
  Last Orbital Rotation      ...    1.5424e-05  Tolerance :   1.0000e-05

             **** THE GBW FILE WAS UPDATED (x3lyp-train-13.gbw) ****
             **** DENSITY x3lyp-train-13.scfp WAS UPDATED ****
             **** ENERGY FILE WAS UPDATED (x3lyp-train-13.en.tmp) ****
             **** THE GBW FILE WAS UPDATED (x3lyp-train-13.gbw) ****
             **** DENSITY x3lyp-train-13.scfp WAS UPDATED ****
----------------
ORBITAL ENERGIES
----------------

  NO   OCC          E(Eh)            E(eV) 
   0   2.0000     -88.917375     -2419.5648 
   1   2.0000     -88.917081     -2419.5568 
   2   2.0000     -14.426769      -392.5723 
   3   2.0000     -10.298544      -280.2376 
   4   2.0000     -10.298355      -280.2325 
   5   2.0000     -10.226409      -278.2747 
   6   2.0000     -10.224908      -278.2339 
   7   2.0000     -10.224777      -278.2303 
   8   2.0000     -10.220547      -278.1152 
   9   2.0000     -10.218187      -278.0510 
  10   2.0000     -10.214930      -277.9624 
  11   2.0000     -10.214887      -277.9612 
  12   2.0000     -10.213983      -277.9366 
  13   2.0000     -10.213907      -277.9345 
  14   2.0000     -10.206202      -277.7249 
  15   2.0000     -10.206183      -277.7244 
  16   2.0000     -10.180763      -277.0327 
  17   2.0000     -10.179504      -276.9984 
  18   2.0000     -10.168529      -276.6997 
  19   2.0000      -7.924886      -215.6471 
  20   2.0000      -7.924601      -215.6394 
  21   2.0000      -5.882421      -160.0688 
  22   2.0000      -5.882138      -160.0611 
  23   2.0000      -5.879806      -159.9976 
  24   2.0000      -5.879537      -159.9903 
  25   2.0000      -5.874365      -159.8496 
  26   2.0000      -5.874057      -159.8412 
  27   2.0000      -1.024194       -27.8697 
  28   2.0000      -0.906683       -24.6721 
  29   2.0000      -0.864057       -23.5122 
  30   2.0000      -0.826488       -22.4899 
  31   2.0000      -0.820161       -22.3177 
  32   2.0000      -0.794447       -21.6180 
  33   2.0000      -0.769130       -20.9291 
  34   2.0000      -0.740412       -20.1476 
  35   2.0000      -0.733620       -19.9628 
  36   2.0000      -0.729239       -19.8436 
  37   2.0000      -0.668523       -18.1914 
  38   2.0000      -0.658033       -17.9060 
  39   2.0000      -0.629174       -17.1207 
  40   2.0000      -0.623217       -16.9586 
  41   2.0000      -0.622722       -16.9451 
  42   2.0000      -0.575369       -15.6566 
  43   2.0000      -0.564087       -15.3496 
  44   2.0000      -0.530832       -14.4447 
  45   2.0000      -0.524772       -14.2798 
  46   2.0000      -0.510255       -13.8847 
  47   2.0000      -0.481051       -13.0901 
  48   2.0000      -0.476585       -12.9685 
  49   2.0000      -0.470477       -12.8023 
  50   2.0000      -0.458881       -12.4868 
  51   2.0000      -0.450120       -12.2484 
  52   2.0000      -0.439530       -11.9602 
  53   2.0000      -0.430030       -11.7017 
  54   2.0000      -0.417233       -11.3535 
  55   2.0000      -0.409315       -11.1380 
  56   2.0000      -0.404886       -11.0175 
  57   2.0000      -0.400139       -10.8883 
  58   2.0000      -0.394601       -10.7376 
  59   2.0000      -0.381679       -10.3860 
  60   2.0000      -0.379314       -10.3216 
  61   2.0000      -0.370817       -10.0904 
  62   2.0000      -0.361788        -9.8447 
  63   2.0000      -0.349444        -9.5089 
  64   2.0000      -0.344310        -9.3691 
  65   2.0000      -0.331691        -9.0258 
  66   2.0000      -0.331028        -9.0077 
  67   2.0000      -0.326416        -8.8822 
  68   2.0000      -0.309873        -8.4321 
  69   2.0000      -0.296175        -8.0593 
  70   2.0000      -0.268046        -7.2939 
  71   2.0000      -0.242941        -6.6108 
  72   2.0000      -0.232503        -6.3267 
  73   2.0000      -0.226714        -6.1692 
  74   2.0000      -0.216926        -5.9029 
  75   0.0000      -0.112268        -3.0550 
  76   0.0000      -0.049752        -1.3538 
  77   0.0000      -0.025303        -0.6885 
  78   0.0000      -0.021231        -0.5777 
  79   0.0000      -0.002328        -0.0633 
  80   0.0000       0.005914         0.1609 
  81   0.0000       0.008291         0.2256 
  82   0.0000       0.017543         0.4774 
  83   0.0000       0.018782         0.5111 
  84   0.0000       0.020953         0.5702 
  85   0.0000       0.023584         0.6418 
  86   0.0000       0.034547         0.9401 
  87   0.0000       0.037897         1.0312 
  88   0.0000       0.039783         1.0825 
  89   0.0000       0.046235         1.2581 
  90   0.0000       0.048748         1.3265 
  91   0.0000       0.050747         1.3809 
  92   0.0000       0.051775         1.4089 
  93   0.0000       0.056895         1.5482 
  94   0.0000       0.058146         1.5822 
  95   0.0000       0.061170         1.6645 
  96   0.0000       0.064609         1.7581 
  97   0.0000       0.070844         1.9278 
  98   0.0000       0.075732         2.0608 
  99   0.0000       0.078269         2.1298 
 100   0.0000       0.079100         2.1524 
 101   0.0000       0.082884         2.2554 
 102   0.0000       0.086188         2.3453 
 103   0.0000       0.087049         2.3687 
 104   0.0000       0.093337         2.5398 
 105   0.0000       0.096966         2.6386 
 106   0.0000       0.102022         2.7762 
 107   0.0000       0.104645         2.8475 
 108   0.0000       0.107134         2.9153 
 109   0.0000       0.109322         2.9748 
 110   0.0000       0.110120         2.9965 
 111   0.0000       0.115899         3.1538 
 112   0.0000       0.117249         3.1905 
 113   0.0000       0.119766         3.2590 
 114   0.0000       0.122620         3.3367 
 115   0.0000       0.123512         3.3609 
 116   0.0000       0.125180         3.4063 
 117   0.0000       0.127024         3.4565 
[...]
B( 13-C , 14-C ) :   1.1636 B( 13-C , 16-C ) :  -0.1531 B( 13-C , 18-S ) :   0.1548 
B( 13-C , 32-H ) :   0.9048 B( 14-C , 15-C ) :   0.5057 B( 14-C , 16-C ) :  -0.2659 
B( 14-C , 18-S ) :   0.1981 B( 14-C , 33-H ) :   1.1784 B( 15-C , 16-C ) :   0.1376 
B( 15-C , 18-S ) :  -0.1474 B( 15-C , 33-H ) :  -0.2065 B( 16-C , 17-C ) :   0.7486 
B( 16-C , 18-S ) :  -0.1386 B( 17-C , 18-S ) :   1.0676 

-------
TIMINGS
-------

Total SCF time: 0 days 0 hours 6 min 1 sec 

Total time                  ....     361.543 sec
Sum of individual times     ....     353.263 sec  ( 97.7%)

Fock matrix formation       ....     339.094 sec  ( 93.8%)
  Split-RI-J                ....      19.262 sec  (  5.7% of F)
  Chain of spheres X        ....     292.871 sec  ( 86.4% of F)
  XC integration            ....      16.467 sec  (  4.9% of F)
    Basis function eval.    ....       2.355 sec  ( 14.3% of XC)
    Density eval.           ....       7.380 sec  ( 44.8% of XC)
    XC-Functional eval.     ....       0.200 sec  (  1.2% of XC)
    XC-Potential eval.      ....       5.996 sec  ( 36.4% of XC)
Diagonalization             ....       0.514 sec  (  0.1%)
Density matrix formation    ....       0.060 sec  (  0.0%)
Population analysis         ....       0.624 sec  (  0.2%)
Initial guess               ....       1.081 sec  (  0.3%)
Orbital Transformation      ....       0.000 sec  (  0.0%)
Orbital Orthonormalization  ....       1.003 sec  (  0.3%)
DIIS solution               ....       0.241 sec  (  0.1%)
SOSCF solution              ....       0.426 sec  (  0.1%)
Grid generation             ....      11.224 sec  (  3.1%)

Maximum memory used throughout the entire SCF-calculation: 321.4 MB


           ************************************************************
           *        Program running with 4 parallel MPI-processes     *
           *              working on a common directory               *
           ************************************************************
------------------------------------------------------------------------------
                        ORCA TD-DFT/TDA CALCULATION
------------------------------------------------------------------------------

Input orbitals are from        ... x3lyp-train-13_job2.gbw
CI-vector output               ... x3lyp-train-13_job2.cis
Tamm-Dancoff approximation     ... operative
CIS-Integral strategy          ... AO-integrals
Integral handling              ... AO integral Direct
Max. core memory used          ... 4000 MB
Reference state                ... RHF
Generation of triplets         ... off
Follow IRoot                   ... off
Number of operators            ... 1
Orbital ranges used for CIS calculation:
 Operator 0:  Orbitals  27... 74  to  75...1091
XAS localization array:
 Operator 0:  Orbitals  -1... -1

-------------------
XC-INTEGRATION GRID
-------------------

General Integration Accuracy     IntAcc      ... 3.467
Radial Grid Type                 RadialGrid  ... OptM3 with GC (2021)
Angular Grid (max. ang.)         AngularGrid ... 1 (Lebedev-50)
Angular grid pruning method      GridPruning ... 4 (adaptive)
Weight generation scheme         WeightScheme... Becke
Basis function cutoff            BFCut       ... 1.0000e-11
Integration weight cutoff        WCut        ... 1.0000e-14
Angular grids for H and He will be reduced by one unit
Partially contracted basis set               ... off
Rotationally invariant grid construction     ... off

Total number of grid points                  ...    24704
Total number of batches                      ...      398
Average number of points per batch           ...       62
Average number of grid points per atom       ...      727

---------------------
COSX-INTEGRATION GRID
---------------------

General Integration Accuracy     IntAcc      ... 3.067
Radial Grid Type                 RadialGrid  ... OptM3 with GC (2021)
Angular Grid (max. ang.)         AngularGrid ... 1 (Lebedev-50)
Angular grid pruning method      GridPruning ... 4 (adaptive)
Weight generation scheme         WeightScheme... Becke
Basis function cutoff            BFCut       ... 1.0000e-11
Integration weight cutoff        WCut        ... 1.0000e-14
Angular grids for H and He will be reduced by one unit
Partially contracted basis set               ... on
Rotationally invariant grid construction     ... off

Total number of grid points                  ...    11347
Total number of batches                      ...      197
Average number of points per batch           ...       57
Average number of grid points per atom       ...      334

---------------
TD-DFT XC SETUP
---------------

DFT calculation                         ... on
Name of the grid file                   ... x3lyp-train-13_job2.grid_cis.tmp
Exchange functional (TD-DFT)            ... X
Correlation functional (TD-DFT)         ... LYP
 LDA part of GGA corr.  LDAOpt (TD-DFT) ... VWN-5
Hybrid DFT                              ... on
   Exchange mixing (TD-DFT)             ...  0.218
   GGA exch. scaling (TD-DFT)           ...  0.709
   GGA corr. scaling (TD-DFT)           ...  0.871

Building densities             ... done
Calculating rho(r) on the grid ... done
Building xc-kernel on the grid ... done
                    *** TD-DFT CALCULATION INITIALIZED ***

---------------------------------
    LR-CPCM (non-equilibrium)
---------------------------------

Setting up LR-CPCM             ... done

------------------------
DAVIDSON-DIAGONALIZATION
------------------------

Dimension of the eigenvalue problem            ...  48816
Number of roots to be determined               ...     10
Maximum size of the expansion space            ...     70
Maximum number of iterations                   ...    100
Convergence tolerance for the residual         ...    1.000e-06
Convergence tolerance for the energies         ...    1.000e-06
Orthogonality tolerance                        ...    1.000e-14
Level Shift                                    ...    0.000e+00
Constructing the preconditioner                ... o.k.
Building the initial guess                     ... o.k.
Number of trial vectors determined             ...     70


                       ****Iteration    0****

   Memory handling for direct AO based CIS:
   Memory per vector needed      ...    54 MB
   Memory needed                 ...  1637 MB
   Memory available              ...  4000 MB
   Number of vectors per batch   ...    73
   Number of batches             ...     1
   Time for densities:            0.760
   Time for RI-J (Direct):       24.722
   Time for K (COSX):           145.641
   Time for XC-Integration:      67.226
   Time for LR-CPCM terms:       25.986
   Time for Sigma-Completion:     0.636
   Size of expansion space: 30
   Lowest Energy          :     0.071085063868
   Maximum Energy change  :     0.167531251049 (vector 9)
   Maximum residual norm  :     0.011564456092

                       ****Iteration    1****
   Time for densities:            0.263
   Time for RI-J (Direct):       13.982
   Time for K (COSX):            53.381
   Time for XC-Integration:      23.642
   Time for LR-CPCM terms:       12.046
   Time for Sigma-Completion:     0.197
   Size of expansion space: 40
   Lowest Energy          :     0.070404348366
   Maximum Energy change  :     0.014035894262 (vector 2)
   Maximum residual norm  :     0.000712457704

                       ****Iteration    2****
   Time for densities:            0.255
   Time for RI-J (Direct):       14.109
   Time for K (COSX):            54.683
   Time for XC-Integration:      22.598
   Time for LR-CPCM terms:       11.935
   Time for Sigma-Completion:     0.213
   Size of expansion space: 50
   Lowest Energy          :     0.070394498247
   Maximum Energy change  :     0.001681954173 (vector 8)
   Maximum residual norm  :     0.000043293058

                       ****Iteration    3****
   Time for densities:            0.247
   Time for RI-J (Direct):       14.006
   Time for K (COSX):            55.053
   Time for XC-Integration:      24.058
   Time for LR-CPCM terms:       12.129
   Time for Sigma-Completion:     0.196
   Size of expansion space: 60
   Lowest Energy          :     0.070393921487
   Maximum Energy change  :     0.000063076577 (vector 8)
   Maximum residual norm  :     0.000002898393

                       ****Iteration    4****
   Time for densities:            0.255
   Time for RI-J (Direct):       14.130
   Time for K (COSX):            52.895
   Time for XC-Integration:      23.841
   Time for LR-CPCM terms:       12.123
   Time for Sigma-Completion:     0.231
   Size of expansion space: 70
   Lowest Energy          :     0.070393895749
   Maximum Energy change  :     0.000005112233 (vector 8)
   Maximum residual norm  :     0.000000314952

      *** CONVERGENCE OF RESIDUAL NORM REACHED ***

Storing the converged CI vectors               ... x3lyp-train-13_job2.cis1

                 *** DAVIDSON DONE ***

Total time for solving the CIS problem:   683.913sec

------------------------------------
TD-DFT/TDA EXCITED STATES (SINGLETS)
------------------------------------

the weight of the individual excitations are printed if larger than 1.0e-02

STATE  1:  E=   0.070394 au      1.916 eV    15449.7 cm**-1 <S**2> =   0.000000
    72a ->  76a  :     0.012828 (c=  0.11326261)
    73a ->  75a  :     0.010791 (c=  0.10388130)
    74a ->  75a  :     0.966894 (c=  0.98330770)

STATE  2:  E=   0.084648 au      2.303 eV    18578.0 cm**-1 <S**2> =   0.000000
    71a ->  75a  :     0.054440 (c=  0.23332486)
    72a ->  75a  :     0.897695 (c= -0.94746770)
    74a ->  76a  :     0.036244 (c= -0.19037972)

STATE  3:  E=   0.105040 au      2.858 eV    23053.6 cm**-1 <S**2> =   0.000000
    73a ->  75a  :     0.943943 (c= -0.97156738)
    74a ->  75a  :     0.010813 (c=  0.10398396)

STATE  4:  E=   0.116608 au      3.173 eV    25592.6 cm**-1 <S**2> =   0.000000
    69a ->  75a  :     0.012036 (c= -0.10970739)
    70a ->  75a  :     0.048723 (c=  0.22073180)
    71a ->  75a  :     0.824977 (c=  0.90828233)
    72a ->  75a  :     0.044245 (c=  0.21034534)
    73a ->  76a  :     0.042637 (c= -0.20648660)

STATE  5:  E=   0.130704 au      3.557 eV    28686.1 cm**-1 <S**2> =   0.000000
    69a ->  75a  :     0.020012 (c= -0.14146405)
    70a ->  75a  :     0.781392 (c=  0.88396401)
    71a ->  75a  :     0.034394 (c= -0.18545585)
    73a ->  76a  :     0.016732 (c=  0.12935110)
    73a ->  77a  :     0.070351 (c= -0.26523809)
    74a ->  76a  :     0.062080 (c= -0.24915853)

STATE  6:  E=   0.133214 au      3.625 eV    29237.1 cm**-1 <S**2> =   0.000000
    70a ->  75a  :     0.041501 (c=  0.20371914)
    72a ->  75a  :     0.042542 (c= -0.20625658)
    73a ->  76a  :     0.025735 (c=  0.16042066)
    74a ->  76a  :     0.872729 (c=  0.93419951)

STATE  7:  E=   0.146839 au      3.996 eV    32227.4 cm**-1 <S**2> =   0.000000
    71a ->  76a  :     0.030085 (c=  0.17344977)
    72a ->  76a  :     0.909833 (c= -0.95385181)
    74a ->  75a  :     0.016727 (c=  0.12933248)
    74a ->  78a  :     0.028455 (c=  0.16868475)

STATE  8:  E=   0.149454 au      4.067 eV    32801.4 cm**-1 <S**2> =   0.000000
    69a ->  75a  :     0.030279 (c=  0.17400976)
    70a ->  75a  :     0.014966 (c=  0.12233607)
    71a ->  75a  :     0.038165 (c= -0.19535854)
    73a ->  76a  :     0.860109 (c= -0.92742049)
    74a ->  76a  :     0.011312 (c=  0.10635608)

STATE  9:  E=   0.156445 au      4.257 eV    34335.7 cm**-1 <S**2> =   0.000000
    69a ->  75a  :     0.869826 (c= -0.93264479)
    71a ->  75a  :     0.012768 (c= -0.11299394)
    73a ->  76a  :     0.022240 (c= -0.14912972)
    73a ->  77a  :     0.056793 (c=  0.23831218)

STATE 10:  E=   0.165783 au      4.511 eV    36385.1 cm**-1 <S**2> =   0.000000
    71a ->  76a  :     0.013272 (c= -0.11520352)
    72a ->  76a  :     0.042010 (c= -0.20496375)
    74a ->  78a  :     0.920867 (c= -0.95961802)


-----------------------------
TD-DFT/TDA-EXCITATION SPECTRA
-----------------------------

Center of mass = ( -0.6737, -0.0784,  0.2219)
Calculating the Dipole integrals                  ... done
Transforming integrals                            ... done
Calculating the Linear Momentum integrals         ... done
Transforming integrals                            ... done
Calculating angular momentum integrals            ... done
Transforming integrals                            ... done

-----------------------------------------------------------------------------
         ABSORPTION SPECTRUM VIA TRANSITION ELECTRIC DIPOLE MOMENTS
-----------------------------------------------------------------------------
State   Energy    Wavelength  fosc         T2        TX        TY        TZ  
        (cm-1)      (nm)                 (au**2)    (au)      (au)      (au) 
-----------------------------------------------------------------------------
   1   15449.7    647.3   0.000403641   0.00860   0.08073  -0.00769  -0.04500
   2   18578.0    538.3   0.001878904   0.03330  -0.02122   0.18073  -0.01344
   3   23053.6    433.8   0.500659590   7.14958   2.66788  -0.02023   0.17778
   4   25592.6    390.7   0.113676340   1.46229  -0.01368  -1.20593   0.08846
   5   28686.1    348.6   0.165289062   1.89691   0.01489   1.37464  -0.08397
   6   29237.1    342.0   0.023510282   0.26473   0.02768   0.51283  -0.03102
   7   32227.4    310.3   0.000759089   0.00775  -0.00881  -0.08723  -0.00817
   8   32801.4    304.9   0.168668561   1.69285   0.02387   1.29786  -0.08854
   9   34335.7    291.2   0.000015789   0.00015  -0.00174  -0.01123  -0.00472
  10   36385.1    274.8   0.001808125   0.01636   0.12713  -0.01380  -0.00260

-----------------------------------------------------------------------------
         ABSORPTION SPECTRUM VIA TRANSITION VELOCITY DIPOLE MOMENTS
-----------------------------------------------------------------------------
State   Energy    Wavelength   fosc        P2         PX        PY        PZ  
        (cm-1)      (nm)                 (au**2)     (au)      (au)      (au) 
-----------------------------------------------------------------------------
   1   15449.7    647.3   0.000285633   0.00003   0.00437  -0.00088  -0.00320
   2   18578.0    538.3   0.000719839   0.00009  -0.00008   0.00951  -0.00097
   3   23053.6    433.8   0.002365358   0.00037  -0.01884   0.00030   0.00422
   4   25592.6    390.7   0.000488170   0.00009   0.00054  -0.00918   0.00089
   5   28686.1    348.6   0.000462687   0.00009   0.00008   0.00952  -0.00032
   6   29237.1    342.0   0.000042000   0.00001  -0.00136   0.00256  -0.00001
   7   32227.4    310.3   0.000560682   0.00012  -0.00332   0.00227   0.01036
   8   32801.4    304.9   0.001779179   0.00040  -0.00143  -0.01982   0.00199
   9   34335.7    291.2   0.000382432   0.00009  -0.00022   0.00946  -0.00054
  10   36385.1    274.8   0.000435677   0.00011  -0.00783   0.00092   0.00679

-------------------------------------------------------------------
                             CD SPECTRUM
-------------------------------------------------------------------
State  Energy     Wavelength     R         MX        MY        MZ   
       (cm-1)       (nm)     (1e40*cgs)   (au)      (au)      (au)  
-------------------------------------------------------------------
   1   15449.7    647.3      0.30411  -0.00582  -0.28879   0.02457
   2   18578.0    538.3     -1.73135   0.13660  -0.00297   0.01766
   3   23053.6    433.8      3.14155   0.00271   0.02174  -0.00075
   4   25592.6    390.7     -3.77988   0.06581  -0.03337  -0.53531
   5   28686.1    348.6      0.02369   0.03002  -0.01755  -0.28262
   6   29237.1    342.0     -0.22061  -0.09000   0.00510   0.01901
   7   32227.4    310.3     -9.54008   0.00377   0.22948   0.02245
   8   32801.4    304.9     12.48714   0.02470  -0.02458  -0.65278
   9   34335.7    291.2      1.22950   0.03376  -0.02962  -0.49469
  10   36385.1    274.8      1.01896  -0.00182  -0.17644   0.01577

-------------------------------------------------------------------
         CD SPECTRUM VIA TRANSITION VELOCITY DIPOLE MOMENTS        
-------------------------------------------------------------------
State  Energy     Wavelength     R         MX        MY        MZ   
       (cm-1)       (nm)     (1e40*cgs)   (au)      (au)      (au)  
-------------------------------------------------------------------
   1   15449.7    647.3      0.99489  -0.00582  -0.28879   0.02457
   2   18578.0    538.3     -0.31264   0.13660  -0.00297   0.01766
   3   23053.6    433.8     -0.21390   0.00271   0.02174  -0.00075
   4   25592.6    390.7     -0.54577   0.06581  -0.03337  -0.53531
   5   28686.1    348.6     -0.27027   0.03002  -0.01755  -0.28262
   6   29237.1    342.0      0.47853  -0.09000   0.00510   0.01901
   7   32227.4    310.3      2.37572   0.00377   0.22948   0.02245
   8   32801.4    304.9     -2.68182   0.02470  -0.02458  -0.65278
   9   34335.7    291.2     -0.06493   0.03376  -0.02962  -0.49469
  10   36385.1    274.8     -0.11793  -0.00182  -0.17644   0.01577

Total run time:      692.248 sec

           *** ORCA-CIS/TD-DFT FINISHED WITHOUT ERROR ***

Maximum memory used throughout the entire CIS-calculation: 1555.8 MB

-----------------------
CIS/TD-DFT TOTAL ENERGY
-----------------------

    E(SCF)  =  -1469.416332632 Eh
    DE(CIS) =      0.070393896 Eh (Root  1)
    ----------------------------- ---------
    E(tot)  =  -1469.345938737 Eh


-------------------------   --------------------
FINAL SINGLE POINT ENERGY     -1469.345938736735
-------------------------   --------------------


                            ***************************************
                            *     ORCA property calculations      *
                            ***************************************

                                    ---------------------
                                    Active property flags
                                    ---------------------
   (+) Dipole Moment


------------------------------------------------------------------------------
                       ORCA ELECTRIC PROPERTIES CALCULATION
------------------------------------------------------------------------------

Dipole Moment Calculation                       ... on
Quadrupole Moment Calculation                   ... off
Polarizability Calculation                      ... off
GBWName                                         ... x3lyp-train-13_job2.gbw
Electron density                                ... x3lyp-train-13_job2.scfp
The origin for moment calculation is the CENTER OF MASS  = (-0.673681, -0.078378  0.221888)

-------------
DIPOLE MOMENT
-------------
                                X             Y             Z
Electronic contribution:    -19.26885      -1.28561       3.01220
Nuclear contribution   :     16.59666       1.28882      -3.25635
                        -----------------------------------------
Total Dipole Moment    :     -2.67219       0.00321      -0.24415
                        -----------------------------------------
Magnitude (a.u.)       :      2.68332
Magnitude (Debye)      :      6.82046



--------------------
Rotational spectrum 
--------------------
 
Rotational constants in cm-1:     0.017789     0.007946     0.005626 
Rotational constants in MHz :   533.296516   238.203252   168.664039 

 Dipole components along the rotational axes: 
x,y,z [a.u.] :    -2.662790    -0.127577    -0.305769 
x,y,z [Debye]:    -6.768273    -0.324276    -0.777204 

 

Timings for individual modules:

Sum of individual times         ...     1059.723 sec (=  17.662 min)
GTO integral calculation        ...        4.827 sec (=   0.080 min)   0.5 %
SCF iterations                  ...      362.106 sec (=   6.035 min)  34.2 %
CIS module                      ...      692.790 sec (=  11.546 min)  65.4 %



                             ****ORCA TERMINATED NORMALLY****
TOTAL RUN TIME: 0 days 3 hours 4 minutes 48 seconds 41 msec
