
                                 *****************
                                 * O   R   C   A *
                                 *****************

                                            #,                                       
                                            ###                                      
                                            ####                                     
                                            #####                                    
                                            ######                                   
                                           ########,                                 
                                     ,,################,,,,,                         
                               ,,#################################,,                 
                          ,,##########################################,,             
                       ,#########################################, ''#####,          
                    ,#############################################,,   '####,        
                  ,##################################################,,,,####,       
                ,###########''''           ''''###############################       
              ,#####''   ,,,,##########,,,,          '''####'''          '####       
            ,##' ,,,,###########################,,,                        '##       
           ' ,,###''''                  '''############,,,                           
         ,,##''                                '''############,,,,        ,,,,,,###''
      ,#''                                            '''#######################'''  
     '                                                          ''''####''''         
             ,#######,   #######,   ,#######,      ##                                
            ,#'     '#,  ##    ##  ,#'     '#,    #''#        ######   ,####,        
            ##       ##  ##   ,#'  ##            #'  '#       #        #'  '#        
            ##       ##  #######   ##           ,######,      #####,   #    #        
            '#,     ,#'  ##    ##  '#,     ,#' ,#      #,         ##   #,  ,#        
             '#######'   ##     ##  '#######'  #'      '#     #####' # '####'        



                  #######################################################
                  #                        -***-                        #
                  #          Department of theory and spectroscopy      #
                  #    Directorship and core code : Frank Neese         #
                  #        Max Planck Institute fuer Kohlenforschung    #
                  #                Kaiser Wilhelm Platz 1               #
                  #                 D-45470 Muelheim/Ruhr               #
                  #                      Germany                        #
                  #                                                     #
                  #                  All rights reserved                #
                  #                        -***-                        #
                  #######################################################


                         Program Version 5.0.2 -  RELEASE  -


 With contributions from (in alphabetic order):
   Daniel Aravena         : Magnetic Suceptibility
   Michael Atanasov       : Ab Initio Ligand Field Theory (pilot matlab implementation)
   Alexander A. Auer      : GIAO ZORA, VPT2 properties, NMR spectrum
   Ute Becker             : Parallelization
   Giovanni Bistoni       : ED, misc. LED, open-shell LED, HFLD
   Martin Brehm           : Molecular dynamics
   Dmytro Bykov           : SCF Hessian
   Vijay G. Chilkuri      : MRCI spin determinant printing, contributions to CSF-ICE
   Dipayan Datta          : RHF DLPNO-CCSD density
   Achintya Kumar Dutta   : EOM-CC, STEOM-CC
   Dmitry Ganyushin       : Spin-Orbit,Spin-Spin,Magnetic field MRCI
   Miquel Garcia          : C-PCM and meta-GGA Hessian, CC/C-PCM, Gaussian charge scheme
   Yang Guo               : DLPNO-NEVPT2, F12-NEVPT2, CIM, IAO-localization
   Andreas Hansen         : Spin unrestricted coupled pair/coupled cluster methods
   Benjamin Helmich-Paris : MC-RPA, TRAH-SCF, COSX integrals
   Lee Huntington         : MR-EOM, pCC
   Robert Izsak           : Overlap fitted RIJCOSX, COSX-SCS-MP3, EOM
   Marcus Kettner         : VPT2
   Christian Kollmar      : KDIIS, OOCD, Brueckner-CCSD(T), CCSD density, CASPT2, CASPT2-K
   Simone Kossmann        : Meta GGA functionals, TD-DFT gradient, OOMP2, MP2 Hessian
   Martin Krupicka        : Initial AUTO-CI
   Lucas Lang             : DCDCAS
   Marvin Lechner         : AUTO-CI (C++ implementation), FIC-MRCC
   Dagmar Lenk            : GEPOL surface, SMD
   Dimitrios Liakos       : Extrapolation schemes; Compound Job, initial MDCI parallelization
   Dimitrios Manganas     : Further ROCIS development; embedding schemes
   Dimitrios Pantazis     : SARC Basis sets
   Anastasios Papadopoulos: AUTO-CI, single reference methods and gradients
   Taras Petrenko         : DFT Hessian,TD-DFT gradient, ASA, ECA, R-Raman, ABS, FL, XAS/XES, NRVS
   Peter Pinski           : DLPNO-MP2, DLPNO-MP2 Gradient
   Christoph Reimann      : Effective Core Potentials
   Marius Retegan         : Local ZFS, SOC
   Christoph Riplinger    : Optimizer, TS searches, QM/MM, DLPNO-CCSD(T), (RO)-DLPNO pert. Triples
   Tobias Risthaus        : Range-separated hybrids, TD-DFT gradient, RPA, STAB
   Michael Roemelt        : Original ROCIS implementation
   Masaaki Saitow         : Open-shell DLPNO-CCSD energy and density
   Barbara Sandhoefer     : DKH picture change effects
   Avijit Sen             : IP-ROCIS
   Kantharuban Sivalingam : CASSCF convergence, NEVPT2, FIC-MRCI
   Bernardo de Souza      : ESD, SOC TD-DFT
   Georgi Stoychev        : AutoAux, RI-MP2 NMR, DLPNO-MP2 response
   Willem Van den Heuvel  : Paramagnetic NMR
   Boris Wezisla          : Elementary symmetry handling
   Frank Wennmohs         : Technical directorship


 We gratefully acknowledge several colleagues who have allowed us to
 interface, adapt or use parts of their codes:
   Stefan Grimme, W. Hujo, H. Kruse, P. Pracht,  : VdW corrections, initial TS optimization,
                  C. Bannwarth, S. Ehlert          DFT functionals, gCP, sTDA/sTD-DF
   Ed Valeev, F. Pavosevic, A. Kumar             : LibInt (2-el integral package), F12 methods
   Garnet Chan, S. Sharma, J. Yang, R. Olivares  : DMRG
   Ulf Ekstrom                                   : XCFun DFT Library
   Mihaly Kallay                                 : mrcc  (arbitrary order and MRCC methods)
   Jiri Pittner, Ondrej Demel                    : Mk-CCSD
   Frank Weinhold                                : gennbo (NPA and NBO analysis)
   Christopher J. Cramer and Donald G. Truhlar   : smd solvation model
   Lars Goerigk                                  : TD-DFT with DH, B97 family of functionals
   V. Asgeirsson, H. Jonsson                     : NEB implementation
   FAccTs GmbH                                   : IRC, NEB, NEB-TS, DLPNO-Multilevel, CI-OPT
                                                   MM, QMMM, 2- and 3-layer-ONIOM, Crystal-QMMM,
                                                   LR-CPCM, SF, NACMEs, symmetry and pop. for TD-DFT,
                                                   nearIR, NL-DFT gradient (VV10), updates on ESD,
                                                   ML-optimized integration grids
   S Lehtola, MJT Oliveira, MAL Marques          : LibXC Library
   Liviu Ungur et al                             : ANISO software


 Your calculation uses the libint2 library for the computation of 2-el integrals
 For citations please refer to: http://libint.valeyev.net

 Your ORCA version has been built with support for libXC version: 5.1.0
 For citations please refer to: https://tddft.org/programs/libxc/

 This ORCA versions uses:
   CBLAS   interface :  Fast vector & matrix operations
   LAPACKE interface :  Fast linear algebra routines
   SCALAPACK package :  Parallel linear algebra routines
   Shared memory     :  Shared parallel matrices
   BLAS/LAPACK       :  OpenBLAS 0.3.15  USE64BITINT DYNAMIC_ARCH NO_AFFINITY Sandybridge SINGLE_THREADED
        Core in use  :  Sandybridge
   Copyright (c) 2011-2014, The OpenBLAS Project


Your calculation utilizes the SMD solvation module
Please cite in your paper:
A.V. Marenich, C.J. Cramer, D.G. Truhlar J. Phys. Chem. B, 113, (2009), 6378 

================================================================================

----- Orbital basis set information -----
Your calculation utilizes the basis: aug-cc-pVTZ 
    H, B-Ne : Obtained from the ccRepo (grant-hill.group.shef.ac.uk/ccrepo) Feb. 2017
              R. A. Kendall, T. H. Dunning, Jr., R. J. Harrison, J. Chem. Phys. 96, 6796 (1992)
         He : Obtained from the ccRepo (grant-hill.group.shef.ac.uk/ccrepo) Feb. 2017
              D. E. Woon, T. H. Dunning, Jr., J. Chem. Phys. 100, 2975 (1994)
  Li-Be, Na : Obtained from the ccRepo (grant-hill.group.shef.ac.uk/ccrepo) Feb. 2017
              B. P. Prascher, D. E. Woon, K. A. Peterson, T. H. Dunning, Jr., A. K. Wilson, Theor. Chem. Acc. 128, 69 (2011)
         Mg : Obtained from the Peterson Research Group Website (tyr0.chem.wsu.edu/~kipeters) Feb. 2017
              B. P. Prascher, D. E. Woon, K. A. Peterson, T. H. Dunning, Jr., A. K. Wilson, Theor. Chem. Acc. 128, 69 (2011)
      Al-Ar : Obtained from the ccRepo (grant-hill.group.shef.ac.uk/ccrepo) Feb. 2017
              D. E. Woon, T. H. Dunning, Jr., J. Chem. Phys. 98, 1358 (1993)
      Sc-Zn : Obtained from the ccRepo (grant-hill.group.shef.ac.uk/ccrepo) Feb. 2017
              N. B. Balabanov, K. A. Peterson, J. Chem. Phys. 123, 064107 (2005)
              N. B. Balabanov, K. A. Peterson, J. Chem. Phys. 125, 074110 (2006)
      Ga-Kr : Obtained from the ccRepo (grant-hill.group.shef.ac.uk/ccrepo) Feb. 2017
              A. K. Wilson, D. E. Woon, K. A. Peterson, T. H. Dunning, Jr., J. Chem. Phys. 110, 7667 (1999)
     Ag, Au : Obtained from the Peterson Research Group Website (tyr0.chem.wsu.edu/~kipeters) Feb. 2017
              K. A. Peterson, C. Puzzarini, Theor. Chem. Acc. 114, 283 (2005)

The basis set includes element-specific modifications.

Your calculation utilizes the basis: cc-pVTZ 
       H, B-Ne : Obtained from the ccRepo (grant-hill.group.shef.ac.uk/ccrepo) Feb. 2017
                 T. H. Dunning, Jr., J. Chem. Phys. 90, 1007 (1989)
            He : Obtained from the ccRepo (grant-hill.group.shef.ac.uk/ccrepo) Feb. 2017
                 D. E. Woon, T. H. Dunning, Jr., J. Chem. Phys. 100, 2975 (1994)
  Li-Be, Na-Mg : Obtained from the ccRepo (grant-hill.group.shef.ac.uk/ccrepo) Feb. 2017
                 B. P. Prascher, D. E. Woon, K. A. Peterson, T. H. Dunning, Jr., A. K. Wilson, Theor. Chem. Acc. 128, 69 (2011)
         Al-Ar : Obtained from the ccRepo (grant-hill.group.shef.ac.uk/ccrepo) Feb. 2017
                 D. E. Woon, T. H. Dunning, Jr., J. Chem. Phys. 98, 1358 (1993)
            Ca : Obtained from the Peterson Research Group Website (tyr0.chem.wsu.edu/~kipeters) Feb. 2017
                 J. Koput, K. A. Peterson, J. Phys. Chem. 106, 9595 (2002)
         Sc-Zn : Obtained from the ccRepo (grant-hill.group.shef.ac.uk/ccrepo) Feb. 2017
                 N. B. Balabanov, K. A. Peterson, J. Chem. Phys. 123, 064107 (2005)
                 N. B. Balabanov, K. A. Peterson, J. Chem. Phys. 125, 074110 (2006)
         Ga-Kr : Obtained from the ccRepo (grant-hill.group.shef.ac.uk/ccrepo) Feb. 2017
                 A. K. Wilson, D. E. Woon, K. A. Peterson, T. H. Dunning, Jr., J. Chem. Phys. 110, 7667 (1999)
             Y : Obtained from the ccRepo (grant-hill.group.shef.ac.uk/ccrepo) Feb. 2017
                 K. A. Peterson, D. Figgen, M. Dolg, H. Stoll, J. Chem. Phys. 126, 124101 (2007)
        Ag, Au : Obtained from the Peterson Research Group Website (tyr0.chem.wsu.edu/~kipeters) Feb. 2017
                 K. A. Peterson, C. Puzzarini, Theor. Chem. Acc. 114, 283 (2005)

----- AuxJ basis set information -----
Your calculation utilizes the auxiliary basis: aug-cc-pVTZ/JK 
  H, B-F, Al-Cl, Ga-Br : Obtained from the TURBOMOLE 7.0 basis set library

The basis set includes element-specific modifications.

Your calculation utilizes the auxiliary basis: cc-pVTZ/JK 
  H, B-F, Al-Cl, Ga-Br : Obtained from the TURBOMOLE 7.0 basis set library

----- AuxC basis set information -----
Your calculation utilizes the auxiliary basis: aug-cc-pVTZ/C 
  H-He, B-F, Al-Ar, Ga-Kr : Obtained from the EMSL Basis Set Exchange (bse.pnl.gov) Feb. 2017
                            F. Weigend, A. Kohn, C. Hattig, J. Chem. Phys. 116, 3175 (2002)
                   Be, Mg : Obtained from the TURBOMOLE 7.0 basis set library
                            C. Haettig, Phys. Chem. Chem. Phys. 7, 59 (2005)
                       Ne : Obtained from the EMSL Basis Set Exchange (bse.pnl.gov) Feb. 2017
                            C. Haettig, Phys. Chem. Chem. Phys. 7, 59 (2005)
                            F. Weigend, A. Kohn, C. Hattig, J. Chem. Phys. 116, 3175 (2002)
                    Sc-Zn : Obtained from the EMSL Basis Set Exchange (bse.pnl.gov) Feb. 2017
                            J. G. Hill, J. A. Platts, J. Chem. Phys. 128, 044104 (2008)

The basis set includes element-specific modifications.

Your calculation utilizes the auxiliary basis: cc-pVTZ/C 
  Obtained from the EMSL Basis Set Exchange (bse.pnl.gov) Feb. 2017
  H-He, B-F, Al-Ar, Ga-Kr : F. Weigend, A. Kohn, C. Hattig, J. Chem. Phys. 116, 3175 (2002)
             Li-Be, Na-Mg : C. Haettig, Phys. Chem. Chem. Phys. 7, 59 (2005)
                       Ne : C. Haettig, Phys. Chem. Chem. Phys. 7, 59 (2005)
                            F. Weigend, A. Kohn, C. Hattig, J. Chem. Phys. 116, 3175 (2002)
                    Sc-Zn : J. G. Hill, J. A. Platts, J. Chem. Phys. 128, 044104 (2008)

================================================================================
                                        WARNINGS
                       Please study these warnings very carefully!
================================================================================


WARNING: Geometry Optimization
  ===> : Switching off AutoStart
         For restart on a previous wavefunction, please use MOREAD

INFO   : the flag for use of the SHARK integral package has been found!



***************************************
The coordinates will be read from file: 
***************************************


Your calculation utilizes the SMD solvation module
Please cite in your paper:
A.V. Marenich, C.J. Cramer, D.G. Truhlar J. Phys. Chem. B, 113, (2009), 6378 

================================================================================

----- Orbital basis set information -----
Your calculation utilizes the basis: aug-cc-pVTZ 
    H, B-Ne : Obtained from the ccRepo (grant-hill.group.shef.ac.uk/ccrepo) Feb. 2017
              R. A. Kendall, T. H. Dunning, Jr., R. J. Harrison, J. Chem. Phys. 96, 6796 (1992)
         He : Obtained from the ccRepo (grant-hill.group.shef.ac.uk/ccrepo) Feb. 2017
              D. E. Woon, T. H. Dunning, Jr., J. Chem. Phys. 100, 2975 (1994)
  Li-Be, Na : Obtained from the ccRepo (grant-hill.group.shef.ac.uk/ccrepo) Feb. 2017
              B. P. Prascher, D. E. Woon, K. A. Peterson, T. H. Dunning, Jr., A. K. Wilson, Theor. Chem. Acc. 128, 69 (2011)
         Mg : Obtained from the Peterson Research Group Website (tyr0.chem.wsu.edu/~kipeters) Feb. 2017
              B. P. Prascher, D. E. Woon, K. A. Peterson, T. H. Dunning, Jr., A. K. Wilson, Theor. Chem. Acc. 128, 69 (2011)
      Al-Ar : Obtained from the ccRepo (grant-hill.group.shef.ac.uk/ccrepo) Feb. 2017
              D. E. Woon, T. H. Dunning, Jr., J. Chem. Phys. 98, 1358 (1993)
      Sc-Zn : Obtained from the ccRepo (grant-hill.group.shef.ac.uk/ccrepo) Feb. 2017
              N. B. Balabanov, K. A. Peterson, J. Chem. Phys. 123, 064107 (2005)
              N. B. Balabanov, K. A. Peterson, J. Chem. Phys. 125, 074110 (2006)
      Ga-Kr : Obtained from the ccRepo (grant-hill.group.shef.ac.uk/ccrepo) Feb. 2017
              A. K. Wilson, D. E. Woon, K. A. Peterson, T. H. Dunning, Jr., J. Chem. Phys. 110, 7667 (1999)
     Ag, Au : Obtained from the Peterson Research Group Website (tyr0.chem.wsu.edu/~kipeters) Feb. 2017
              K. A. Peterson, C. Puzzarini, Theor. Chem. Acc. 114, 283 (2005)

The basis set includes element-specific modifications.

Your calculation utilizes the basis: cc-pVTZ 
       H, B-Ne : Obtained from the ccRepo (grant-hill.group.shef.ac.uk/ccrepo) Feb. 2017
                 T. H. Dunning, Jr., J. Chem. Phys. 90, 1007 (1989)
            He : Obtained from the ccRepo (grant-hill.group.shef.ac.uk/ccrepo) Feb. 2017
                 D. E. Woon, T. H. Dunning, Jr., J. Chem. Phys. 100, 2975 (1994)
  Li-Be, Na-Mg : Obtained from the ccRepo (grant-hill.group.shef.ac.uk/ccrepo) Feb. 2017
                 B. P. Prascher, D. E. Woon, K. A. Peterson, T. H. Dunning, Jr., A. K. Wilson, Theor. Chem. Acc. 128, 69 (2011)
         Al-Ar : Obtained from the ccRepo (grant-hill.group.shef.ac.uk/ccrepo) Feb. 2017
                 D. E. Woon, T. H. Dunning, Jr., J. Chem. Phys. 98, 1358 (1993)
            Ca : Obtained from the Peterson Research Group Website (tyr0.chem.wsu.edu/~kipeters) Feb. 2017
                 J. Koput, K. A. Peterson, J. Phys. Chem. 106, 9595 (2002)
         Sc-Zn : Obtained from the ccRepo (grant-hill.group.shef.ac.uk/ccrepo) Feb. 2017
                 N. B. Balabanov, K. A. Peterson, J. Chem. Phys. 123, 064107 (2005)
                 N. B. Balabanov, K. A. Peterson, J. Chem. Phys. 125, 074110 (2006)
         Ga-Kr : Obtained from the ccRepo (grant-hill.group.shef.ac.uk/ccrepo) Feb. 2017
                 A. K. Wilson, D. E. Woon, K. A. Peterson, T. H. Dunning, Jr., J. Chem. Phys. 110, 7667 (1999)
             Y : Obtained from the ccRepo (grant-hill.group.shef.ac.uk/ccrepo) Feb. 2017
                 K. A. Peterson, D. Figgen, M. Dolg, H. Stoll, J. Chem. Phys. 126, 124101 (2007)
        Ag, Au : Obtained from the Peterson Research Group Website (tyr0.chem.wsu.edu/~kipeters) Feb. 2017
                 K. A. Peterson, C. Puzzarini, Theor. Chem. Acc. 114, 283 (2005)

----- AuxJ basis set information -----
Your calculation utilizes the auxiliary basis: aug-cc-pVTZ/JK 
  H, B-F, Al-Cl, Ga-Br : Obtained from the TURBOMOLE 7.0 basis set library

The basis set includes element-specific modifications.

Your calculation utilizes the auxiliary basis: cc-pVTZ/JK 
  H, B-F, Al-Cl, Ga-Br : Obtained from the TURBOMOLE 7.0 basis set library

----- AuxC basis set information -----
Your calculation utilizes the auxiliary basis: aug-cc-pVTZ/C 
  H-He, B-F, Al-Ar, Ga-Kr : Obtained from the EMSL Basis Set Exchange (bse.pnl.gov) Feb. 2017
                            F. Weigend, A. Kohn, C. Hattig, J. Chem. Phys. 116, 3175 (2002)
                   Be, Mg : Obtained from the TURBOMOLE 7.0 basis set library
                            C. Haettig, Phys. Chem. Chem. Phys. 7, 59 (2005)
                       Ne : Obtained from the EMSL Basis Set Exchange (bse.pnl.gov) Feb. 2017
                            C. Haettig, Phys. Chem. Chem. Phys. 7, 59 (2005)
                            F. Weigend, A. Kohn, C. Hattig, J. Chem. Phys. 116, 3175 (2002)
                    Sc-Zn : Obtained from the EMSL Basis Set Exchange (bse.pnl.gov) Feb. 2017
                            J. G. Hill, J. A. Platts, J. Chem. Phys. 128, 044104 (2008)

The basis set includes element-specific modifications.

Your calculation utilizes the auxiliary basis: cc-pVTZ/C 
  Obtained from the EMSL Basis Set Exchange (bse.pnl.gov) Feb. 2017
  H-He, B-F, Al-Ar, Ga-Kr : F. Weigend, A. Kohn, C. Hattig, J. Chem. Phys. 116, 3175 (2002)
             Li-Be, Na-Mg : C. Haettig, Phys. Chem. Chem. Phys. 7, 59 (2005)
                       Ne : C. Haettig, Phys. Chem. Chem. Phys. 7, 59 (2005)
                            F. Weigend, A. Kohn, C. Hattig, J. Chem. Phys. 116, 3175 (2002)
                    Sc-Zn : J. G. Hill, J. A. Platts, J. Chem. Phys. 128, 044104 (2008)

================================================================================
                                        WARNINGS
                       Please study these warnings very carefully!
================================================================================

INFO   : Checking CIS options ...

INFO   : the flag for use of the SHARK integral package has been found!

================================================================================
                                       INPUT FILE
================================================================================
NAME = b3lyp-train-7.inp
|  1> ! b3lyp aug-cc-PVTZ RIJCOSX Opt
|  2> %maxcore 4000
|  3> %basis
|  4>  AuxJ "aug-cc-PVTZ/JK"
|  5>  AuxC "aug-cc-PVTZ/C"
|  6>  newGTO H "cc-PVTZ" end
|  7>  newAuxJGTO H "cc-PVTZ/JK" end
|  8>  newAuxCGTO H "cc-PVTZ/C" end
|  9> end
| 10> %cpcm
| 11>  SMD true
| 12>  SMDsolvent "cyclohexane"
| 13> end
| 14> %pal nprocs 4 end
| 15> * xyz 0 1
| 16> C          4.01170        0.00820        0.34860
| 17> C          2.89560        0.69840        0.14290
| 18> C          1.53670        0.17630        0.10890
| 19> C          1.22560       -1.15920        0.32570
| 20> C         -0.08660       -1.60060        0.28110
| 21> C         -1.12440       -0.72160        0.01880
| 22> O         -2.44290       -1.05420       -0.04620
| 23> C         -2.80490       -2.39380        0.17280
| 24> C         -0.82610        0.64180       -0.20400
| 25> O         -1.90170        1.44160       -0.45490
| 26> C         -1.67710        2.80980       -0.67860
| 27> C          0.48660        1.06530       -0.15530
| 28> H          4.97400        0.49070        0.35540
| 29> H          4.01730       -1.05460        0.51790
| 30> H          2.96990        1.76700       -0.02210
| 31> H          2.00590       -1.87320        0.53430
| 32> H         -0.28990       -2.64540        0.45520
| 33> H         -3.88920       -2.42410        0.07670
| 34> H         -2.52200       -2.73030        1.17610
| 35> H         -2.35790       -3.06090       -0.57230
| 36> H         -2.66080        3.24430       -0.85090
| 37> H         -1.04920        2.97840       -1.56040
| 38> H         -1.21720        3.29190        0.19110
| 39> H          0.72640        2.10400       -0.32380
| 40> *
| 41> 
| 42> 
| 43> $new_job
| 44> ! b3lyp aug-cc-PVTZ RIJCOSX SP
| 45> %maxcore 4000
| 46> %basis
| 47>  AuxJ "aug-cc-PVTZ/JK"
| 48>  AuxC "aug-cc-PVTZ/C"
| 49>  newGTO H "cc-PVTZ" end
| 50>  newAuxJGTO H "cc-PVTZ/JK" end
| 51>  newAuxCGTO H "cc-PVTZ/C" end
| 52> end
| 53> %cpcm
| 54>  SMD true
| 55>  SMDsolvent "cyclohexane"
| 56> end
| 57> %pal nprocs 4 end
| 58> %tddft
| 59>  nroots 10
| 60>  maxdim 7
| 61> end
| 62> * xyzfile 0 1
| 63> 
| 64>                          ****END OF INPUT****
================================================================================


                 $$$$$$$$$$$$$$$$$$$$$$$$$$$$$$$$$$$$$$$$$$$$$$ 
                 $ THERE ARE  2 JOBS TO BE PROCESSED THIS RUN $
                 $$$$$$$$$$$$$$$$$$$$$$$$$$$$$$$$$$$$$$$$$$$$$$ 




                 $$$$$$$$$$$$$$$$  JOB NUMBER  1 $$$$$$$$$$$$$$


                       *****************************
                       * Geometry Optimization Run *
                       *****************************

Geometry optimization settings:
Update method            Update   .... BFGS
Choice of coordinates    CoordSys .... Z-matrix Internals
Initial Hessian          InHess   .... Almoef's Model

Convergence Tolerances:
Energy Change            TolE     ....  5.0000e-06 Eh
Max. Gradient            TolMAXG  ....  3.0000e-04 Eh/bohr
RMS Gradient             TolRMSG  ....  1.0000e-04 Eh/bohr
Max. Displacement        TolMAXD  ....  4.0000e-03 bohr
RMS Displacement         TolRMSD  ....  2.0000e-03 bohr
Strict Convergence                ....  False
------------------------------------------------------------------------------
                        ORCA OPTIMIZATION COORDINATE SETUP
------------------------------------------------------------------------------

The optimization will be done in new redundant internal coordinates
Making redundant internal coordinates   ...  (new redundants) done
Evaluating the initial hessian          ...  (Almloef) done
Evaluating the coordinates              ...  done
Calculating the B-matrix                .... done
Calculating the G-matrix                .... done
Diagonalizing the G-matrix              .... done
Small eigenvalue found = 1.125e-02
Small eigenvalue found = 1.336e-02
The first mode is                       ....   38
The number of degrees of freedom        ....   66

    -----------------------------------------------------------------
                    Redundant Internal Coordinates


    -----------------------------------------------------------------
         Definition                    Initial Value    Approx d2E/dq
    -----------------------------------------------------------------
      1. B(C   1,C   0)                  1.3283         0.783763   
      2. B(C   2,C   1)                  1.4561         0.490017   
      3. B(C   3,C   2)                  1.3883         0.628737   
      4. B(C   4,C   3)                  1.3852         0.635985   
      5. B(C   5,C   4)                  1.3851         0.636171   
      6. B(O   6,C   5)                  1.3614         0.621692   
      7. B(C   7,O   6)                  1.4048         0.529936   
      8. B(C   8,C   5)                  1.4133         0.573493   
      9. B(O   9,C   8)                  1.3637         0.616471   
     10. B(C  10,O   9)                  1.4044         0.530681   
     11. B(C  11,C   8)                  1.3802         0.647740   
     12. B(C  11,C   2)                  1.4010         0.600027   
     13. B(H  12,C   0)                  1.0765         0.378395   
     14. B(H  13,C   0)                  1.0762         0.378806   
     15. B(H  14,C   1)                  1.0838         0.368378   
     16. B(H  15,C   3)                  1.0780         0.376269   
     17. B(H  16,C   4)                  1.0785         0.375584   
     18. B(H  17,C   7)                  1.0890         0.361463   
     19. B(H  18,C   7)                  1.0954         0.353042   
     20. B(H  19,C   7)                  1.0954         0.352965   
     21. B(H  20,C  10)                  1.0891         0.361290   
     22. B(H  21,C  10)                  1.0956         0.352817   
     23. B(H  22,C  10)                  1.0956         0.352787   
     24. B(H  23,C  11)                  1.0793         0.374597   
     25. A(C   1,C   0,H  12)          121.2779         0.370427   
     26. A(H  12,C   0,H  13)          115.9111         0.295469   
     27. A(C   1,C   0,H  13)          122.8110         0.370496   
     28. A(C   0,C   1,C   2)          126.9735         0.433996   
     29. A(C   0,C   1,H  14)          118.5740         0.368723   
     30. A(C   2,C   1,H  14)          114.4525         0.340513   
     31. A(C   3,C   2,C  11)          118.1578         0.432605   
     32. A(C   1,C   2,C   3)          123.3940         0.417209   
     33. A(C   1,C   2,C  11)          118.4482         0.413755   
     34. A(C   4,C   3,H  15)          118.7415         0.357086   
     35. A(C   2,C   3,H  15)          120.3411         0.356391   
     36. A(C   2,C   3,C   4)          120.9173         0.437161   
     37. A(C   5,C   4,H  16)          120.2716         0.356993   
     38. A(C   3,C   4,H  16)          118.8201         0.356975   
     39. A(C   3,C   4,C   5)          120.9083         0.438088   
     40. A(C   4,C   5,C   8)          118.9411         0.430011   
     41. A(C   4,C   5,O   6)          125.4276         0.433439   
     42. A(O   6,C   5,C   8)          115.6312         0.425447   
     43. A(C   5,O   6,C   7)          118.3659         0.416766   
     44. A(H  18,C   7,H  19)          109.3013         0.289029   
     45. A(O   6,C   7,H  19)          111.6859         0.340460   
     46. A(O   6,C   7,H  18)          111.6644         0.340473   
     47. A(O   6,C   7,H  17)          105.6258         0.341818   
     48. A(H  17,C   7,H  18)          109.2347         0.290109   
     49. A(H  17,C   7,H  19)          109.2283         0.290099   
     50. A(O   9,C   8,C  11)          125.2204         0.434188   
     51. A(C   5,C   8,C  11)          119.4185         0.431405   
     52. A(C   5,C   8,O   9)          115.3611         0.424806   
     53. A(C   8,O   9,C  10)          118.3297         0.416245   
     54. A(O   9,C  10,H  20)          105.6293         0.341871   
     55. A(H  21,C  10,H  22)          109.3070         0.288977   
     56. A(H  20,C  10,H  22)          109.2191         0.290054   
     57. A(O   9,C  10,H  22)          111.6770         0.340512   
     58. A(H  20,C  10,H  21)          109.2040         0.290058   
     59. A(O   9,C  10,H  21)          111.7021         0.340516   
     60. A(C   2,C  11,C   8)          121.6569         0.434928   
     61. A(C   8,C  11,H  23)          120.0748         0.357928   
     62. A(C   2,C  11,H  23)          118.2683         0.353311   
     63. D(H  14,C   1,C   0,H  12)      0.1357         0.044197   
     64. D(H  14,C   1,C   0,H  13)   -179.9019         0.044197   
     65. D(C   2,C   1,C   0,H  12)   -179.9608         0.044197   
     66. D(C   2,C   1,C   0,H  13)      0.0016         0.044197   
     67. D(C   3,C   2,C   1,H  14)   -178.5652         0.016350   
     68. D(C   3,C   2,C   1,C   0)      1.5279         0.016350   
     69. D(C  11,C   2,C   1,C   0)   -178.5078         0.016350   
     70. D(C  11,C   2,C   1,H  14)      1.3991         0.016350   
     71. D(H  15,C   3,C   2,C  11)   -179.8539         0.027402   
     72. D(C   4,C   3,C   2,C   1)   -179.9916         0.027402   
     73. D(H  15,C   3,C   2,C   1)      0.1106         0.027402   
     74. D(C   4,C   3,C   2,C  11)      0.0440         0.027402   
     75. D(H  16,C   4,C   3,C   2)   -179.9621         0.028079   
     76. D(C   5,C   4,C   3,H  15)    179.9071         0.028079   
     77. D(C   5,C   4,C   3,C   2)      0.0076         0.028079   
     78. D(H  16,C   4,C   3,H  15)     -0.0627         0.028079   
     79. D(C   8,C   5,C   4,H  16)    179.9443         0.028097   
     80. D(C   8,C   5,C   4,C   3)     -0.0250         0.028097   
     81. D(O   6,C   5,C   4,H  16)     -0.0146         0.028097   
     82. D(O   6,C   5,C   4,C   3)   -179.9839         0.028097   
     83. D(C   7,O   6,C   5,C   8)   -179.6963         0.028368   
     84. D(C   7,O   6,C   5,C   4)      0.2638         0.028368   
     85. D(H  19,C   7,O   6,C   5)    -61.5513         0.022301   
     86. D(H  18,C   7,O   6,C   5)     61.1808         0.022301   
     87. D(H  17,C   7,O   6,C   5)    179.8128         0.022301   
     88. D(C  11,C   8,C   5,O   6)    179.9526         0.022573   
     89. D(C  11,C   8,C   5,C   4)     -0.0103         0.022573   
     90. D(O   9,C   8,C   5,O   6)     -0.0175         0.022573   
     91. D(O   9,C   8,C   5,C   4)   -179.9803         0.022573   
     92. D(C  10,O   9,C   8,C  11)     -0.2888         0.027859   
     93. D(C  10,O   9,C   8,C   5)    179.6792         0.027859   
     94. D(H  22,C  10,O   9,C   8)    -61.1768         0.022367   
     95. D(H  21,C  10,O   9,C   8)     61.5837         0.022367   
     96. D(H  20,C  10,O   9,C   8)   -179.7990         0.022367   
     97. D(H  23,C  11,C   8,O   9)     -0.0315         0.029199   
     98. D(H  23,C  11,C   8,C   5)   -179.9984         0.029199   
     99. D(C   2,C  11,C   8,O   9)   -179.9693         0.029199   
    100. D(C   2,C  11,C   8,C   5)      0.0638         0.029199   
    101. D(H  23,C  11,C   2,C   3)    179.9808         0.024820   
    102. D(H  23,C  11,C   2,C   1)      0.0146         0.024820   
    103. D(C   8,C  11,C   2,C   3)     -0.0802         0.024820   
    104. D(C   8,C  11,C   2,C   1)    179.9536         0.024820   
    -----------------------------------------------------------------

Number of atoms                         .... 24
Number of degrees of freedom            .... 104

         *************************************************************
         *                GEOMETRY OPTIMIZATION CYCLE   1            *
         *************************************************************
---------------------------------
CARTESIAN COORDINATES (ANGSTROEM)
---------------------------------
  C      4.011700    0.008200    0.348600
  C      2.895600    0.698400    0.142900
  C      1.536700    0.176300    0.108900
  C      1.225600   -1.159200    0.325700
  C     -0.086600   -1.600600    0.281100
  C     -1.124400   -0.721600    0.018800
  O     -2.442900   -1.054200   -0.046200
  C     -2.804900   -2.393800    0.172800
  C     -0.826100    0.641800   -0.204000
  O     -1.901700    1.441600   -0.454900
  C     -1.677100    2.809800   -0.678600
  C      0.486600    1.065300   -0.155300
  H      4.974000    0.490700    0.355400
  H      4.017300   -1.054600    0.517900
  H      2.969900    1.767000   -0.022100
  H      2.005900   -1.873200    0.534300
  H     -0.289900   -2.645400    0.455200
  H     -3.889200   -2.424100    0.076700
  H     -2.522000   -2.730300    1.176100
  H     -2.357900   -3.060900   -0.572300
  H     -2.660800    3.244300   -0.850900
  H     -1.049200    2.978400   -1.560400
  H     -1.217200    3.291900    0.191100
  H      0.726400    2.104000   -0.323800

----------------------------
CARTESIAN COORDINATES (A.U.)
----------------------------
  NO LB      ZA    FRAG     MASS         X           Y           Z
   0 C     6.0000    0    12.011    7.581014    0.015496    0.658759
   1 C     6.0000    0    12.011    5.471891    1.319785    0.270042
   2 C     6.0000    0    12.011    2.903942    0.333159    0.205791
   3 C     6.0000    0    12.011    2.316048   -2.190571    0.615484
   4 C     6.0000    0    12.011   -0.163650   -3.024696    0.531202
   5 C     6.0000    0    12.011   -2.124808   -1.363626    0.035527
   6 O     8.0000    0    15.999   -4.616412   -1.992149   -0.087305
   7 C     6.0000    0    12.011   -5.300493   -4.523626    0.326545
   8 C     6.0000    0    12.011   -1.561103    1.212826   -0.385504
   9 O     8.0000    0    15.999   -3.593692    2.724229   -0.859636
  10 C     6.0000    0    12.011   -3.169260    5.309752   -1.282368
  11 C     6.0000    0    12.011    0.919541    2.013125   -0.293474
  12 H     1.0000    0     1.008    9.399498    0.927289    0.671609
  13 H     1.0000    0     1.008    7.591597   -1.992905    0.978689
  14 H     1.0000    0     1.008    5.612298    3.339146   -0.041763
  15 H     1.0000    0     1.008    3.790602   -3.539835    1.009681
  16 H     1.0000    0     1.008   -0.547832   -4.999082    0.860203
  17 H     1.0000    0     1.008   -7.349523   -4.580885    0.144942
  18 H     1.0000    0     1.008   -4.765889   -5.159519    2.222507
  19 H     1.0000    0     1.008   -4.455785   -5.784263   -1.081490
  20 H     1.0000    0     1.008   -5.028183    6.130838   -1.607968
  21 H     1.0000    0     1.008   -1.982701    5.628360   -2.948729
  22 H     1.0000    0     1.008   -2.300175    6.220789    0.361127
  23 H     1.0000    0     1.008    1.372697    3.975984   -0.611893

--------------------------------
INTERNAL COORDINATES (ANGSTROEM)
--------------------------------
 C      0   0   0     0.000000000000     0.00000000     0.00000000
 C      1   0   0     1.328295050055     0.00000000     0.00000000
 C      2   1   0     1.456143406399   126.97349254     0.00000000
 C      3   2   1     1.388288766792   123.39403046     1.52786448
 C      4   3   2     1.385168567359   120.91732298   180.00837693
 C      5   4   3     1.385088852746   120.90829656     0.00000000
 O      6   5   4     1.361355945372   125.42764356   180.01611483
 C      7   6   5     1.404824957068   118.36586053     0.26378068
 C      6   5   4     1.413323137149   118.94113911   359.97503537
 O      9   6   5     1.363651792064   115.36110612   180.01967677
 C     10   9   6     1.404442270084   118.32967745   179.67923443
 C      9   6   5     1.380183042209   119.41851716     0.00000000
 H      1   2   3     1.076509999954   121.27786915   180.03919548
 H      1   2   3     1.076214518579   122.81103274     0.00000000
 H      2   1   3     1.083813383383   118.57397126   180.09646392
 H      4   3   2     1.078043621566   120.34106847     0.11055351
 H      5   4   3     1.078540096612   118.82011102   180.03787671
 H      8   7   6     1.088971895872   105.62578376   179.81284788
 H      8   7   6     1.095388310144   111.66439242    61.18081332
 H      8   7   6     1.095447588888   111.68591558   298.44870372
 H     11  10   9     1.089102029197   105.62927784   180.20103317
 H     11  10   9     1.095561778267   111.70206252    61.58365478
 H     11  10   9     1.095585008112   111.67702769   298.82320303
 H     12   9   6     1.079256216104   120.07479644   180.00162908

---------------------------
INTERNAL COORDINATES (A.U.)
---------------------------
 C      0   0   0     0.000000000000     0.00000000     0.00000000
 C      1   0   0     2.510113869647     0.00000000     0.00000000
 C      2   1   0     2.751712249810   126.97349254     0.00000000
 C      3   2   1     2.623485564036   123.39403046     1.52786448
 C      4   3   2     2.617589241625   120.91732298   180.00837693
 C      5   4   3     2.617438602836   120.90829656     0.00000000
 O      6   5   4     2.572589907539   125.42764356   180.01611483
 C      7   6   5     2.654734434955   118.36586053     0.26378068
 C      6   5   4     2.670793667946   118.94113911   359.97503537
 O      9   6   5     2.576928429032   115.36110612   180.01967677
 C     10   9   6     2.654011261362   118.32967745   179.67923443
 C      9   6   5     2.608167964456   119.41851716     0.00000000
 H      1   2   3     2.034309080340   121.27786915   180.03919548
 H      1   2   3     2.033750701464   122.81103274     0.00000000
 H      2   1   3     2.048110474872   118.57397126   180.09646392
 H      4   3   2     2.037207205181   120.34106847     0.11055351
 H      5   4   3     2.038145407050   118.82011102   180.03787671
 H      8   7   6     2.057858650736   105.62578376   179.81284788
 H      8   7   6     2.069983916471   111.66439242    61.18081332
 H      8   7   6     2.070095937062   111.68591558   298.44870372
 H     11  10   9     2.058104567079   105.62927784   180.20103317
 H     11  10   9     2.070311723717   111.70206252    61.58365478
 H     11  10   9     2.070355621762   111.67702769   298.82320303
 H     12   9   6     2.039498676769   120.07479644   180.00162908

---------------------
BASIS SET INFORMATION
---------------------
There are 3 groups of distinct atoms

 Group   1 Type C   : 19s6p3d2f contracted to 5s4p3d2f pattern {88111/3111/111/11}
 Group   2 Type O   : 19s6p3d2f contracted to 5s4p3d2f pattern {88111/3111/111/11}
 Group   3 Type H   : 5s2p1d contracted to 3s2p1d pattern {311/11/1}

Atom   0C    basis set group =>   1
Atom   1C    basis set group =>   1
Atom   2C    basis set group =>   1
Atom   3C    basis set group =>   1
Atom   4C    basis set group =>   1
Atom   5C    basis set group =>   1
Atom   6O    basis set group =>   2
Atom   7C    basis set group =>   1
Atom   8C    basis set group =>   1
Atom   9O    basis set group =>   2
Atom  10C    basis set group =>   1
Atom  11C    basis set group =>   1
Atom  12H    basis set group =>   3
Atom  13H    basis set group =>   3
Atom  14H    basis set group =>   3
Atom  15H    basis set group =>   3
Atom  16H    basis set group =>   3
Atom  17H    basis set group =>   3
Atom  18H    basis set group =>   3
Atom  19H    basis set group =>   3
Atom  20H    basis set group =>   3
Atom  21H    basis set group =>   3
Atom  22H    basis set group =>   3
Atom  23H    basis set group =>   3
---------------------------------
AUXILIARY/J BASIS SET INFORMATION
---------------------------------
There are 3 groups of distinct atoms

 Group   1 Type C   : 10s7p5d2f1g contracted to 10s7p5d2f1g pattern {1111111111/1111111/11111/11/1}
 Group   2 Type O   : 10s7p5d2f1g contracted to 10s7p5d2f1g pattern {1111111111/1111111/11111/11/1}
 Group   3 Type H   : 4s3p2d1f contracted to 4s3p2d1f pattern {1111/111/11/1}

Atom   0C    basis set group =>   1
Atom   1C    basis set group =>   1
Atom   2C    basis set group =>   1
Atom   3C    basis set group =>   1
Atom   4C    basis set group =>   1
Atom   5C    basis set group =>   1
Atom   6O    basis set group =>   2
Atom   7C    basis set group =>   1
Atom   8C    basis set group =>   1
Atom   9O    basis set group =>   2
Atom  10C    basis set group =>   1
Atom  11C    basis set group =>   1
Atom  12H    basis set group =>   3
Atom  13H    basis set group =>   3
Atom  14H    basis set group =>   3
Atom  15H    basis set group =>   3
Atom  16H    basis set group =>   3
Atom  17H    basis set group =>   3
Atom  18H    basis set group =>   3
Atom  19H    basis set group =>   3
Atom  20H    basis set group =>   3
Atom  21H    basis set group =>   3
Atom  22H    basis set group =>   3
Atom  23H    basis set group =>   3
---------------------------------
AUXILIARY/C BASIS SET INFORMATION
---------------------------------
There are 3 groups of distinct atoms

 Group   1 Type C   : 9s7p6d4f2g contracted to 9s7p6d4f2g pattern {111111111/1111111/111111/1111/11}
 Group   2 Type O   : 9s7p6d4f2g contracted to 9s7p6d4f2g pattern {111111111/1111111/111111/1111/11}
 Group   3 Type H   : 4s3p2d1f contracted to 4s3p2d1f pattern {1111/111/11/1}

Atom   0C    basis set group =>   1
Atom   1C    basis set group =>   1
Atom   2C    basis set group =>   1
Atom   3C    basis set group =>   1
Atom   4C    basis set group =>   1
Atom   5C    basis set group =>   1
Atom   6O    basis set group =>   2
Atom   7C    basis set group =>   1
Atom   8C    basis set group =>   1
Atom   9O    basis set group =>   2
Atom  10C    basis set group =>   1
Atom  11C    basis set group =>   1
Atom  12H    basis set group =>   3
Atom  13H    basis set group =>   3
Atom  14H    basis set group =>   3
Atom  15H    basis set group =>   3
Atom  16H    basis set group =>   3
Atom  17H    basis set group =>   3
Atom  18H    basis set group =>   3
Atom  19H    basis set group =>   3
Atom  20H    basis set group =>   3
Atom  21H    basis set group =>   3
Atom  22H    basis set group =>   3
Atom  23H    basis set group =>   3


           ************************************************************
           *        Program running with 4 parallel MPI-processes     *
           *              working on a common directory               *
           ************************************************************
------------------------------------------------------------------------------
                           ORCA GTO INTEGRAL CALCULATION
                           -- RI-GTO INTEGRALS CHOSEN --
------------------------------------------------------------------------------
------------------------------------------------------------------------------
                   ___                                                        
                  /   \      - P O W E R E D   B Y -                         
                 /     \                                                     
                 |  |  |   _    _      __       _____    __    __             
                 |  |  |  | |  | |    /  \     |  _  \  |  |  /  |          
                  \  \/   | |  | |   /    \    | | | |  |  | /  /          
                 / \  \   | |__| |  /  /\  \   | |_| |  |  |/  /          
                |  |  |   |  __  | /  /__\  \  |    /   |      \           
                |  |  |   | |  | | |   __   |  |    \   |  |\   \          
                \     /   | |  | | |  |  |  |  | |\  \  |  | \   \       
                 \___/    |_|  |_| |__|  |__|  |_| \__\ |__|  \__/        
                                                                              
                      - O R C A' S   B I G   F R I E N D -                    
                                      &                                       
                       - I N T E G R A L  F E E D E R -                       
                                                                              
 v1 FN, 2020, v2 2021                                                         
------------------------------------------------------------------------------


Reading SHARK input file b3lyp-train-7.SHARKINP.tmp ... ok
----------------------
SHARK INTEGRAL PACKAGE
----------------------

Number of atoms                             ...     24
Number of basis functions                   ...    792
Number of shells                            ...    312
Maximum angular momentum                    ...      3
Integral batch strategy                     ... SHARK/LIBINT Hybrid
RI-J (if used) integral strategy            ... SPLIT-RIJ (Revised 2003 algorithm where possible)
Printlevel                                  ...      1
Contraction scheme used                     ... PARTIAL GENERAL contraction
Coulomb Range Separation                    ... NOT USED
Exchange Range Separation                   ... NOT USED
Finite Nucleus Model                        ... NOT USED
Auxiliary Coulomb fitting basis             ... AVAILABLE
   # of basis functions in Aux-J            ...   1308
   # of shells in Aux-J                     ...    420
   Maximum angular momentum in Aux-J        ...      4
Auxiliary J/K fitting basis                 ... NOT available
Auxiliary Correlation fitting basis         ... AVAILABLE
   # of basis functions in Aux-C            ...   1632
   # of shells in Aux-C                     ...    456
   Maximum angular momentum in Aux-C        ...      4
Auxiliary 'external' fitting basis          ... NOT available
Integral threshold                          ...     2.500000e-11
Primitive cut-off                           ...     2.500000e-12
Primitive pair pre-selection threshold      ...     2.500000e-12

Calculating pre-screening integrals         ... done (  0.1 sec) Dimension = 312
Calculating pre-screening integrals (ORCA)  ... done (  0.3 sec) Dimension = 240
Organizing shell pair data                  ... done (  0.4 sec)
Shell pair information
Total number of shell pairs                 ...     48828
Shell pairs after pre-screening             ...     36287
Total number of primitive shell pairs       ...     65052
Primitive shell pairs kept                  ...     43818
          la=0 lb=0:   8646 shell pairs
          la=1 lb=0:   9236 shell pairs
          la=1 lb=1:   2254 shell pairs
          la=2 lb=0:   6058 shell pairs
          la=2 lb=1:   2915 shell pairs
          la=2 lb=2:    995 shell pairs
          la=3 lb=0:   3316 shell pairs
          la=3 lb=1:   1558 shell pairs
          la=3 lb=2:   1023 shell pairs
          la=3 lb=3:    286 shell pairs

Calculating one electron integrals          ... done (  0.1 sec)
Calculating RI/J V-Matrix + Cholesky decomp.... done (  0.2 sec)
Calculating RI/C V-Matrix + Cholesky decomp.... done (  0.2 sec)
Calculating Nuclear repulsion               ... done (  0.0 sec) ENN=    678.477881099406 Eh

SHARK setup successfully completed in   3.2 seconds

Maximum memory used throughout the entire GTOINT-calculation: 55.2 MB


           ************************************************************
           *        Program running with 4 parallel MPI-processes     *
           *              working on a common directory               *
           ************************************************************
-------------------------------------------------------------------------------
                                 ORCA SCF
-------------------------------------------------------------------------------

------------
SCF SETTINGS
------------
Hamiltonian:
 Density Functional     Method          .... DFT(GTOs)
 Exchange Functional    Exchange        .... B88
   X-Alpha parameter    XAlpha          ....  0.666667
   Becke's b parameter  XBeta           ....  0.004200
 Correlation Functional Correlation     .... LYP
 LDA part of GGA corr.  LDAOpt          .... VWN-5
 Gradients option       PostSCFGGA      .... off
 Hybrid DFT is turned on
   Fraction HF Exchange ScalHFX         ....  0.200000
   Scaling of DF-GGA-X  ScalDFX         ....  0.720000
   Scaling of DF-GGA-C  ScalDFC         ....  0.810000
   Scaling of DF-LDA-C  ScalLDAC        ....  1.000000
   Perturbative correction              ....  0.000000
   Density functional embedding theory  .... OFF
   NL short-range parameter             ....  4.800000
 RI-approximation to the Coulomb term is turned on
   Number of AuxJ basis functions       .... 1308
   RIJ-COSX (HFX calculated with COS-X)).... on


General Settings:
 Integral files         IntName         .... b3lyp-train-7
 Hartree-Fock type      HFTyp           .... RHF
 Total Charge           Charge          ....    0
 Multiplicity           Mult            ....    1
 Number of Electrons    NEL             ....   88
 Basis Dimension        Dim             ....  720
 Nuclear Repulsion      ENuc            ....    678.4778810994 Eh

Convergence Acceleration:
 DIIS                   CNVDIIS         .... on
   Start iteration      DIISMaxIt       ....    12
   Startup error        DIISStart       ....  0.200000
   # of expansion vecs  DIISMaxEq       ....     5
   Bias factor          DIISBfac        ....   1.050
   Max. coefficient     DIISMaxC        ....  10.000
 Trust-Rad. Augm. Hess. CNVTRAH         .... auto
   Auto Start mean grad. ratio tolernc. ....  1.125000
   Auto Start start iteration           ....    20
   Auto Start num. interpolation iter.  ....    10
   Max. Number of Micro iterations      ....    16
   Max. Number of Macro iterations      .... Maxiter - #DIIS iter
   Number of Davidson start vectors     ....     2
   Converg. threshold I  (grad. norm)   ....   1.000e-05
   Converg. threshold II (energy diff.) ....   1.000e-08
   Grad. Scal. Fac. for Micro threshold ....   0.100
   Minimum threshold for Micro iter.    ....   0.010
   NR start threshold (gradient norm)   ....   0.001
   Initial trust radius                 ....   0.400
   Minimum AH scaling param. (alpha)    ....   1.000
   Maximum AH scaling param. (alpha)    .... 1000.000
   Orbital update algorithm             .... Taylor
   White noise on init. David. guess    .... on
   Maximum white noise                  ....   0.010
   Quad. conv. algorithm                .... NR
 SOSCF                  CNVSOSCF        .... on
   Start iteration      SOSCFMaxIt      ....   150
   Startup grad/error   SOSCFStart      ....  0.003300
 Level Shifting         CNVShift        .... on
   Level shift para.    LevelShift      ....    0.2500
   Turn off err/grad.   ShiftErr        ....    0.0010
 Zerner damping         CNVZerner       .... off
 Static damping         CNVDamp         .... on
   Fraction old density DampFac         ....    0.7000
   Max. Damping (<1)    DampMax         ....    0.9800
   Min. Damping (>=0)   DampMin         ....    0.0000
   Turn off err/grad.   DampErr         ....    0.1000
 Fernandez-Rico         CNVRico         .... off

SCF Procedure:
 Maximum # iterations   MaxIter         ....   125
 SCF integral mode      SCFMode         .... Direct
   Integral package                     .... SHARK and LIBINT hybrid scheme
 Reset frequency        DirectResetFreq ....    20
 Integral Threshold     Thresh          ....  2.500e-11 Eh
 Primitive CutOff       TCut            ....  2.500e-12 Eh

Convergence Tolerance:
 Convergence Check Mode ConvCheckMode   .... Total+1el-Energy
 Convergence forced     ConvForced      .... 0
 Energy Change          TolE            ....  1.000e-08 Eh
 1-El. energy change                    ....  1.000e-05 Eh
 Orbital Gradient       TolG            ....  1.000e-05
 Orbital Rotation angle TolX            ....  1.000e-05
 DIIS Error             TolErr          ....  5.000e-07


Diagonalization of the overlap matrix:
Smallest eigenvalue                        ... 7.034e-07
Time for diagonalization                   ...    0.166 sec
Threshold for overlap eigenvalues          ... 1.000e-08
Number of eigenvalues below threshold      ... 0
Time for construction of square roots      ...    0.110 sec
Total time needed                          ...    0.280 sec

Time for model grid setup =    0.333 sec

------------------------------
INITIAL GUESS: MODEL POTENTIAL
------------------------------
Loading Hartree-Fock densities                     ... done
Calculating cut-offs                               ... done
Initializing the effective Hamiltonian             ... done
Setting up the integral package (SHARK)            ... done
Starting the Coulomb interaction                   ... done (   0.9 sec)
Reading the grid                                   ... done
Mapping shells                                     ... done
Starting the XC term evaluation                    ... done (   0.8 sec)
  promolecular density results
     # of electrons  =     87.996040858
     EX              =    -71.417049837
     EC              =     -2.966047392
     EX+EC           =    -74.383097229
Transforming the Hamiltonian                       ... done (   0.1 sec)
Diagonalizing the Hamiltonian                      ... done (   0.2 sec)
Back transforming the eigenvectors                 ... done (   0.0 sec)
Now organizing SCF variables                       ... done
                      ------------------
                      INITIAL GUESS DONE (   2.4 sec)
                      ------------------
-------------------
DFT GRID GENERATION
-------------------

General Integration Accuracy     IntAcc      ... 4.388
Radial Grid Type                 RadialGrid  ... OptM3 with GC (2021)
Angular Grid (max. ang.)         AngularGrid ... 4 (Lebedev-302)
Angular grid pruning method      GridPruning ... 4 (adaptive)
Weight generation scheme         WeightScheme... Becke
Basis function cutoff            BFCut       ... 1.0000e-11
Integration weight cutoff        WCut        ... 1.0000e-14
Angular grids for H and He will be reduced by one unit
Partially contracted basis set               ... off
Rotationally invariant grid construction     ... off

Total number of grid points                  ...   113677
Total number of batches                      ...     1790
Average number of points per batch           ...       63
Average number of grid points per atom       ...     4737
Time for grid setup =    1.524 sec

--------------------
COSX GRID GENERATION
--------------------

GRIDX 1
-------
General Integration Accuracy     IntAcc      ... 3.816
Radial Grid Type                 RadialGrid  ... OptM3 with GC (2021)
Angular Grid (max. ang.)         AngularGrid ... 1 (Lebedev-50)
Angular grid pruning method      GridPruning ... 4 (adaptive)
Weight generation scheme         WeightScheme... Becke
Basis function cutoff            BFCut       ... 1.0000e-11
Integration weight cutoff        WCut        ... 1.0000e-14
Angular grids for H and He will be reduced by one unit
Partially contracted basis set               ... on
Rotationally invariant grid construction     ... off

Total number of grid points                  ...    14556
Total number of batches                      ...      237
Average number of points per batch           ...       61
Average number of grid points per atom       ...      606
UseSFitting                                  ... on

GRIDX 2
-------
General Integration Accuracy     IntAcc      ... 4.020
Radial Grid Type                 RadialGrid  ... OptM3 with GC (2021)
Angular Grid (max. ang.)         AngularGrid ... 2 (Lebedev-110)
Angular grid pruning method      GridPruning ... 4 (adaptive)
Weight generation scheme         WeightScheme... Becke
Basis function cutoff            BFCut       ... 1.0000e-11
Integration weight cutoff        WCut        ... 1.0000e-14
Angular grids for H and He will be reduced by one unit
Partially contracted basis set               ... on
Rotationally invariant grid construction     ... off

Total number of grid points                  ...    33856
Total number of batches                      ...      543
Average number of points per batch           ...       62
Average number of grid points per atom       ...     1411
UseSFitting                                  ... on

GRIDX 3
-------
General Integration Accuracy     IntAcc      ... 4.338
Radial Grid Type                 RadialGrid  ... OptM3 with GC (2021)
Angular Grid (max. ang.)         AngularGrid ... 3 (Lebedev-194)
Angular grid pruning method      GridPruning ... 4 (adaptive)
Weight generation scheme         WeightScheme... Becke
Basis function cutoff            BFCut       ... 1.0000e-11
Integration weight cutoff        WCut        ... 1.0000e-14
Angular grids for H and He will be reduced by one unit
Partially contracted basis set               ... on
Rotationally invariant grid construction     ... off

Total number of grid points                  ...    73054
Total number of batches                      ...     1153
Average number of points per batch           ...       63
Average number of grid points per atom       ...     3044
UseSFitting                                  ... on

Time for X-Grid setup             =    2.659 sec


--------------------
CPCM SOLVATION MODEL
--------------------
CPCM parameters:
  Epsilon                                         ...       2.0165
  Refrac                                          ...       1.4266
  Rsolv                                           ...       1.3000
  Surface type                                    ... GAUSSIAN VDW
  Epsilon function type                           ...         CPCM
Solvent:                                     ... CYCLOHEXANE
SMD-CDS solvent descriptors:
  Soln                                       ...    1.4266
  Soln25                                     ...    1.4235
  Sola                                       ...    0.0000
  Solb                                       ...    0.0000
  Solg                                       ...   35.4800
  Solc                                       ...    0.0000
  Solh                                       ...    0.0000
Radii:
 Radius for C  used is    3.4960 Bohr (=   1.8500 Ang.)
 Radius for O  used is    4.3350 Bohr (=   2.2940 Ang.)
 Radius for H  used is    2.2677 Bohr (=   1.2000 Ang.)
Calculating surface                               ...        done! (  0.0s)
GEPOL surface points                              ...         1353
GEPOL Volume                                      ...    1335.3336
GEPOL Surface-area                                ...     750.0000
Calculating surface distance matrix               ...        done! (  0.0s)
Performing Cholesky decomposition & store         ...        done! (  0.1s)
Overall time for CPCM initialization              ...                 0.1s
 re-compute Schwartz prescreening matrix in partically contracted basis (1) ...done (   0.174 sec)
--------------
SCF ITERATIONS
--------------
ITER       Energy         Delta-E        Max-DP      RMS-DP      [F,P]     Damp
               ***  Starting incremental Fock matrix formation  ***
  0   -538.2710684284   0.000000000000 0.07431585  0.00105672  0.1893635 0.7000
  1   -538.4061641722  -0.135095743755 0.05031099  0.00070474  0.0945528 0.7000
                               ***Turning on DIIS***
  2   -538.4654787017  -0.059314529482 0.10179213  0.00131191  0.0396873 0.0000
  3   -538.5506364842  -0.085157782535 0.03539697  0.00041008  0.0527904 0.0000
  4   -538.5723419162  -0.021705431969 0.00694468  0.00010661  0.0086910 0.0000
  5   -538.5733093352  -0.000967418999 0.00496823  0.00004370  0.0055789 0.0000
                      *** Initiating the SOSCF procedure ***
                           *** Shutting down DIIS ***
                      *** Re-Reading the Fockian *** 
                      *** Removing any level shift *** 
ITER      Energy       Delta-E        Grad      Rot      Max-DP    RMS-DP
  6   -538.57342673  -0.0001173993  0.000366  0.000366  0.003253  0.000035
               *** Restarting incremental Fock matrix formation ***
  7   -538.57344085  -0.0000141111  0.000606  0.003043  0.003248  0.000052
  8   -538.57341696   0.0000238817  0.001246  0.002047  0.001520  0.000016
  9   -538.57344844  -0.0000314750  0.000031  0.000125  0.001369  0.000013
 10   -538.57344840   0.0000000388  0.000053  0.000076  0.002020  0.000018
                  ***Gradient check signals convergence***
              ***Rediagonalizing the Fockian in SOSCF/NRSCF***

               *****************************************************
               *                     SUCCESS                       *
               *           SCF CONVERGED AFTER  11 CYCLES          *
               *****************************************************

Old exchange energy                            =    -14.519902946 Eh
New exchange energy                            =    -14.519878264 Eh
Exchange energy change after final integration =      0.000024681 Eh
Total energy after final integration           =   -538.573423804 Eh
Final COS-X integration done in                =    49.526 sec

SMD CDS free energy correction energy :                -2.58603     Kcal/mol
Total Energy after SMD CDS correction =              -538.577544900 Eh

----------------
TOTAL SCF ENERGY
----------------

Total Energy       :         -538.57754490 Eh          -14655.44006 eV

Components:
Nuclear Repulsion  :          678.47788110 Eh           18462.32175 eV
Electronic Energy  :        -1217.05542600 Eh          -33117.76182 eV
One Electron Energy:        -2076.44863618 Eh          -56503.03995 eV
Two Electron Energy:          859.39321018 Eh           23385.27813 eV
Max COSX asymmetry :            0.00002926 Eh               0.00080 eV
CPCM Dielectric    :           -0.00615950 Eh              -0.16761 eV
SMD CDS (Gcds)     :           -0.00412110 Eh              -0.11214 eV

Virial components:
Potential Energy   :        -1074.22950967 Eh          -29231.27105 eV
Kinetic Energy     :          535.65196477 Eh           14575.83098 eV
Virial Ratio       :            2.00546172


DFT components:
N(Alpha)           :       44.000001476938 electrons
N(Beta)            :       44.000001476938 electrons
N(Total)           :       88.000002953876 electrons
E(X)               :      -57.703813336221 Eh       
E(C)               :       -3.501766856670 Eh       
E(XC)              :      -61.205580192891 Eh       
DFET-embed. en.    :        0.000000000000 Eh       
CPCM Solvation Model Properties:
Surface-charge          :           -0.05112427
Charge-correction       :            0.00010125 Eh               0.00276 eV
Free-energy (cav+disp)  :           -0.00412110 Eh              -0.11214 eV

---------------
SCF CONVERGENCE
---------------

  Last Energy change         ...   -8.5112e-08  Tolerance :   1.0000e-08
  Last MAX-Density change    ...    1.5331e-15  Tolerance :   1.0000e-07
  Last RMS-Density change    ...    1.2628e-17  Tolerance :   5.0000e-09
  Last Orbital Gradient      ...    1.9418e-06  Tolerance :   1.0000e-05
  Last Orbital Rotation      ...    8.2586e-06  Tolerance :   1.0000e-05

             **** THE GBW FILE WAS UPDATED (b3lyp-train-7.gbw) ****
             **** DENSITY b3lyp-train-7.scfp WAS UPDATED ****
             **** ENERGY FILE WAS UPDATED (b3lyp-train-7.en.tmp) ****
             **** THE GBW FILE WAS UPDATED (b3lyp-train-7.gbw) ****
             **** DENSITY b3lyp-train-7.scfp WAS UPDATED ****
----------------
ORBITAL ENERGIES
----------------

  NO   OCC          E(Eh)            E(eV) 
   0   2.0000     -19.158221      -521.3217 
   1   2.0000     -19.156567      -521.2767 
   2   2.0000     -10.232190      -278.4320 
   3   2.0000     -10.231337      -278.4088 
   4   2.0000     -10.217248      -278.0255 
   5   2.0000     -10.216535      -278.0061 
   6   2.0000     -10.176137      -276.9068 
   7   2.0000     -10.173031      -276.8223 
   8   2.0000     -10.171332      -276.7760 
   9   2.0000     -10.169929      -276.7378 
  10   2.0000     -10.166314      -276.6395 
  11   2.0000     -10.157719      -276.4056 
  12   2.0000      -1.077878       -29.3306 
  13   2.0000      -1.058149       -28.7937 
  14   2.0000      -0.859802       -23.3964 
  15   2.0000      -0.792136       -21.5551 
  16   2.0000      -0.755227       -20.5508 
  17   2.0000      -0.739725       -20.1289 
  18   2.0000      -0.702263       -19.1095 
  19   2.0000      -0.682960       -18.5843 
  20   2.0000      -0.616758       -16.7828 
  21   2.0000      -0.600232       -16.3331 
  22   2.0000      -0.558749       -15.2043 
  23   2.0000      -0.534741       -14.5510 
  24   2.0000      -0.507151       -13.8003 
  25   2.0000      -0.498714       -13.5707 
  26   2.0000      -0.475149       -12.9294 
  27   2.0000      -0.469341       -12.7714 
  28   2.0000      -0.460102       -12.5200 
  29   2.0000      -0.447858       -12.1868 
  30   2.0000      -0.436444       -11.8762 
  31   2.0000      -0.424534       -11.5522 
  32   2.0000      -0.408048       -11.1035 
  33   2.0000      -0.389440       -10.5972 
  34   2.0000      -0.387298       -10.5389 
  35   2.0000      -0.368991       -10.0407 
  36   2.0000      -0.351578        -9.5669 
  37   2.0000      -0.340644        -9.2694 
  38   2.0000      -0.331298        -9.0151 
  39   2.0000      -0.324570        -8.8320 
  40   2.0000      -0.323494        -8.8027 
  41   2.0000      -0.278367        -7.5747 
  42   2.0000      -0.239648        -6.5212 
  43   2.0000      -0.201009        -5.4697 
  44   0.0000      -0.034235        -0.9316 
  45   0.0000      -0.001802        -0.0490 
  46   0.0000       0.001910         0.0520 
  47   0.0000       0.004494         0.1223 
  48   0.0000       0.010402         0.2830 
  49   0.0000       0.021552         0.5865 
  50   0.0000       0.024075         0.6551 
  51   0.0000       0.031156         0.8478 
  52   0.0000       0.032529         0.8852 
  53   0.0000       0.043842         1.1930 
  54   0.0000       0.049858         1.3567 
  55   0.0000       0.052530         1.4294 
  56   0.0000       0.053921         1.4673 
  57   0.0000       0.056421         1.5353 
  58   0.0000       0.056786         1.5452 
  59   0.0000       0.064313         1.7500 
  60   0.0000       0.079035         2.1507 
  61   0.0000       0.079434         2.1615 
  62   0.0000       0.084480         2.2988 
  63   0.0000       0.092631         2.5206 
  64   0.0000       0.093098         2.5333 
  65   0.0000       0.099427         2.7055 
  66   0.0000       0.104216         2.8359 
  67   0.0000       0.109661         2.9840 
  68   0.0000       0.111371         3.0306 
  69   0.0000       0.117474         3.1966 
  70   0.0000       0.120794         3.2870 
  71   0.0000       0.122321         3.3285 
  72   0.0000       0.123107         3.3499 
  73   0.0000       0.130709         3.5568 
  74   0.0000       0.134586         3.6623 
  75   0.0000       0.139466         3.7951 
  76   0.0000       0.141387         3.8473 
  77   0.0000       0.148073         4.0293 
  78   0.0000       0.149378         4.0648 
  79   0.0000       0.151443         4.1210 
  80   0.0000       0.156058         4.2465 
  81   0.0000       0.160035         4.3548 
  82   0.0000       0.166658         4.5350 
  83   0.0000       0.170207         4.6316 
  84   0.0000       0.177669         4.8346 
  85   0.0000       0.178868         4.8672 
  86   0.0000       0.181674         4.9436 
  87   0.0000       0.182680         4.9710 
  88   0.0000       0.185451         5.0464 
  89   0.0000       0.188304         5.1240 
  90   0.0000       0.191050         5.1987 
  91   0.0000       0.192639         5.2420 
  92   0.0000       0.193147         5.2558 
  93   0.0000       0.197811         5.3827 
  94   0.0000       0.207770         5.6537 
  95   0.0000       0.216979         5.9043 
  96   0.0000       0.222816         6.0631 
  97   0.0000       0.226564         6.1651 
  98   0.0000       0.232652         6.3308 
  99   0.0000       0.236734         6.4419 
 100   0.0000       0.237943         6.4747 
 101   0.0000       0.242015         6.5856 
 102   0.0000       0.250028         6.8036 
 103   0.0000       0.260202         7.0805 
 104   0.0000       0.260613         7.0916 
 105   0.0000       0.266269         7.2456 
 106   0.0000       0.268014         7.2930 
 107   0.0000       0.268709         7.3120 
 108   0.0000       0.273303         7.4369 
 109   0.0000       0.275112         7.4862 
 110   0.0000       0.277401         7.5485 
 111   0.0000       0.280645         7.6367 
 112   0.0000       0.286170         7.7871 
 113   0.0000       0.293840         7.9958 
 114   0.0000       0.295888         8.0515 
 115   0.0000       0.304685         8.2909 
 116   0.0000       0.307190         8.3591 
 117   0.0000       0.310074         8.4376 
 118   0.0000       0.313450         8.5294 
 119   0.0000       0.323117         8.7924 
 120   0.0000       0.328687         8.9440 
 121   0.0000       0.336863         9.1665 
 122   0.0000       0.342621         9.3232 
 123   0.0000       0.344119         9.3640 
 124   0.0000       0.346481         9.4282 
 125   0.0000       0.354776         9.6540 
 126   0.0000       0.357267         9.7217 
 127   0.0000       0.364693         9.9238 
 128   0.0000       0.372333        10.1317 
 129   0.0000       0.375167        10.2088 
 130   0.0000       0.375721        10.2239 
 131   0.0000       0.383485        10.4352 
 132   0.0000       0.389162        10.5896 
 133   0.0000       0.393984        10.7208 
 134   0.0000       0.398832        10.8528 
 135   0.0000       0.401980        10.9384 
 136   0.0000       0.403807        10.9881 
 137   0.0000       0.404899        11.0179 
 138   0.0000       0.408315        11.1108 
 139   0.0000       0.409370        11.1395 
 140   0.0000       0.417209        11.3528 
 141   0.0000       0.420384        11.4392 
 142   0.0000       0.425955        11.5908 
 143   0.0000       0.428314        11.6550 
 144   0.0000       0.438165        11.9231 
 145   0.0000       0.444321        12.0906 
 146   0.0000       0.450860        12.2685 
 147   0.0000       0.452157        12.3038 
 148   0.0000       0.456823        12.4308 
 149   0.0000       0.458745        12.4831 
 150   0.0000       0.463992        12.6259 
 151   0.0000       0.473539        12.8856 
 152   0.0000       0.483421        13.1546 
 153   0.0000       0.491806        13.3827 
 154   0.0000       0.495121        13.4729 
 155   0.0000       0.496279        13.5044 
 156   0.0000       0.500800        13.6275 
 157   0.0000       0.504071        13.7165 
 158   0.0000       0.506128        13.7724 
 159   0.0000       0.512565        13.9476 
 160   0.0000       0.518895        14.1199 
 161   0.0000       0.530598        14.4383 
 162   0.0000       0.531636        14.4666 
 163   0.0000       0.544082        14.8052 
 164   0.0000       0.557460        15.1693 
 165   0.0000       0.560451        15.2507 
 166   0.0000       0.568827        15.4786 
 167   0.0000       0.579772        15.7764 
 168   0.0000       0.585614        15.9354 
 169   0.0000       0.588847        16.0234 
 170   0.0000       0.597077        16.2473 
 171   0.0000       0.601791        16.3756 
 172   0.0000       0.610614        16.6157 
 173   0.0000       0.612691        16.6722 
 174   0.0000       0.621840        16.9211 
 175   0.0000       0.625285        17.0149 
 176   0.0000       0.632709        17.2169 
 177   0.0000       0.635811        17.3013 
 178   0.0000       0.654246        17.8029 
 179   0.0000       0.661100        17.9894 
 180   0.0000       0.666111        18.1258 
 181   0.0000       0.671731        18.2787 
 182   0.0000       0.672831        18.3087 
 183   0.0000       0.678872        18.4731 
 184   0.0000       0.681668        18.5491 
 185   0.0000       0.687981        18.7209 
 186   0.0000       0.688620        18.7383 
 187   0.0000       0.692482        18.8434 
 188   0.0000       0.704540        19.1715 
 189   0.0000       0.709595        19.3091 
 190   0.0000       0.711886        19.3714 
 191   0.0000       0.720331        19.6012 
 192   0.0000       0.728374        19.8201 
 193   0.0000       0.730142        19.8682 
 194   0.0000       0.735175        20.0051 
 195   0.0000       0.744470        20.2580 
 196   0.0000       0.749308        20.3897 
 197   0.0000       0.755127        20.5480 
 198   0.0000       0.756885        20.5959 
 199   0.0000       0.761528        20.7222 
 200   0.0000       0.765905        20.8413 
 201   0.0000       0.768371        20.9084 
 202   0.0000       0.775819        21.1111 
 203   0.0000       0.781036        21.2531 
 204   0.0000       0.788121        21.4459 
 205   0.0000       0.801841        21.8192 
 206   0.0000       0.803741        21.8709 
 207   0.0000       0.812889        22.1198 
 208   0.0000       0.816924        22.2296 
 209   0.0000       0.824012        22.4225 
 210   0.0000       0.824503        22.4359 
 211   0.0000       0.826607        22.4931 
 212   0.0000       0.840836        22.8803 
 213   0.0000       0.841465        22.8974 
 214   0.0000       0.845895        23.0180 
 215   0.0000       0.853866        23.2349 
 216   0.0000       0.854787        23.2599 
 217   0.0000       0.867200        23.5977 
 218   0.0000       0.874290        23.7906 
 219   0.0000       0.880611        23.9626 
 220   0.0000       0.886709        24.1286 
 221   0.0000       0.897762        24.4293 
 222   0.0000       0.909162        24.7395 
 223   0.0000       0.911642        24.8070 
 224   0.0000       0.919267        25.0145 
 225   0.0000       0.921627        25.0788 
 226   0.0000       0.935089        25.4451 
 227   0.0000       0.938421        25.5357 
 228   0.0000       0.949046        25.8248 
 229   0.0000       0.951420        25.8895 
 230   0.0000       0.953686        25.9511 
 231   0.0000       0.959526        26.1100 
 232   0.0000       0.967694        26.3323 
 233   0.0000       0.970915        26.4199 
 234   0.0000       0.976885        26.5824 
 235   0.0000       0.986622        26.8473 
 236   0.0000       0.990733        26.9592 
 237   0.0000       0.997772        27.1507 
 238   0.0000       1.008560        27.4443 
 239   0.0000       1.009736        27.4763 
 240   0.0000       1.015890        27.6438 
 241   0.0000       1.031104        28.0578 
 242   0.0000       1.036860        28.2144 
 243   0.0000       1.038084        28.2477 
 244   0.0000       1.043113        28.3846 
 245   0.0000       1.052139        28.6302 
 246   0.0000       1.060992        28.8711 
 247   0.0000       1.077304        29.3149 
 248   0.0000       1.089511        29.6471 
 249   0.0000       1.090773        29.6815 
 250   0.0000       1.105776        30.0897 
 251   0.0000       1.117086        30.3975 
 252   0.0000       1.119019        30.4501 
 253   0.0000       1.122543        30.5460 
 254   0.0000       1.125410        30.6240 
 255   0.0000       1.140618        31.0378 
 256   0.0000       1.149670        31.2841 
 257   0.0000       1.159823        31.5604 
 258   0.0000       1.164684        31.6927 
 259   0.0000       1.170301        31.8455 
 260   0.0000       1.176518        32.0147 
 261   0.0000       1.189276        32.3619 
 262   0.0000       1.200931        32.6790 
 263   0.0000       1.210705        32.9450 
 264   0.0000       1.216794        33.1107 
 265   0.0000       1.233340        33.5609 
 266   0.0000       1.233818        33.5739 
 267   0.0000       1.237802        33.6823 
 268   0.0000       1.254276        34.1306 
 269   0.0000       1.261391        34.3242 
 270   0.0000       1.265826        34.4449 
 271   0.0000       1.270161        34.5628 
 272   0.0000       1.275425        34.7061 
 273   0.0000       1.281546        34.8726 
 274   0.0000       1.284183        34.9444 
 275   0.0000       1.291144        35.1338 
 276   0.0000       1.292584        35.1730 
 277   0.0000       1.301198        35.4074 
 278   0.0000       1.307076        35.5674 
 279   0.0000       1.313678        35.7470 
 280   0.0000       1.323762        36.0214 
 281   0.0000       1.328688        36.1554 
 282   0.0000       1.336183        36.3594 
 283   0.0000       1.337905        36.4063 
 284   0.0000       1.345129        36.6028 
 285   0.0000       1.356290        36.9065 
 286   0.0000       1.367365        37.2079 
 287   0.0000       1.368782        37.2464 
 288   0.0000       1.383178        37.6382 
 289   0.0000       1.387044        37.7434 
 290   0.0000       1.391883        37.8751 
 291   0.0000       1.401289        38.1310 
 292   0.0000       1.407882        38.3104 
 293   0.0000       1.409687        38.3595 
 294   0.0000       1.419731        38.6328 
 295   0.0000       1.422261        38.7017 
 296   0.0000       1.433020        38.9945 
 297   0.0000       1.433587        39.0099 
 298   0.0000       1.448508        39.4159 
 299   0.0000       1.458289        39.6821 
 300   0.0000       1.467682        39.9377 
 301   0.0000       1.469115        39.9766 
 302   0.0000       1.482662        40.3453 
 303   0.0000       1.483712        40.3739 
 304   0.0000       1.485633        40.4261 
 305   0.0000       1.496624        40.7252 
 306   0.0000       1.498546        40.7775 
 307   0.0000       1.501166        40.8488 
 308   0.0000       1.508425        41.0463 
 309   0.0000       1.511008        41.1166 
 310   0.0000       1.516022        41.2531 
 311   0.0000       1.519771        41.3551 
 312   0.0000       1.529742        41.6264 
 313   0.0000       1.533250        41.7219 
 314   0.0000       1.552404        42.2431 
 315   0.0000       1.555492        42.3271 
 316   0.0000       1.570096        42.7245 
 317   0.0000       1.575525        42.8722 
 318   0.0000       1.582710        43.0677 
 319   0.0000       1.585194        43.1353 
 320   0.0000       1.596002        43.4294 
 321   0.0000       1.598720        43.5034 
 322   0.0000       1.614691        43.9380 
 323   0.0000       1.616906        43.9983 
 324   0.0000       1.624352        44.2009 
 325   0.0000       1.625670        44.2367 
 326   0.0000       1.635490        44.5039 
 327   0.0000       1.659255        45.1506 
 328   0.0000       1.663956        45.2786 
 329   0.0000       1.669480        45.4288 
 330   0.0000       1.673929        45.5499 
 331   0.0000       1.677661        45.6515 
 332   0.0000       1.684365        45.8339 
 333   0.0000       1.685269        45.8585 
 334   0.0000       1.695965        46.1496 
 335   0.0000       1.705380        46.4058 
 336   0.0000       1.710727        46.5513 
 337   0.0000       1.717053        46.7234 
 338   0.0000       1.725883        46.9637 
 339   0.0000       1.733913        47.1822 
 340   0.0000       1.750827        47.6424 
 341   0.0000       1.756149        47.7872 
 342   0.0000       1.756402        47.7941 
 343   0.0000       1.764655        48.0187 
 344   0.0000       1.771875        48.2152 
 345   0.0000       1.780934        48.4617 
 346   0.0000       1.789609        48.6977 
 347   0.0000       1.802169        49.0395 
 348   0.0000       1.811506        49.2936 
 349   0.0000       1.827228        49.7214 
 350   0.0000       1.835716        49.9524 
 351   0.0000       1.858566        50.5741 
 352   0.0000       1.861376        50.6506 
 353   0.0000       1.869644        50.8756 
 354   0.0000       1.879065        51.1320 
 355   0.0000       1.882063        51.2135 
[...]
B( 10-C , 22-H ) :   0.9570 B( 11-C , 23-H ) :   1.1995 

-------
TIMINGS
-------

Total SCF time: 0 days 0 hours 1 min 58 sec 

Total time                  ....     118.751 sec
Sum of individual times     ....     116.778 sec  ( 98.3%)

Fock matrix formation       ....     111.433 sec  ( 93.8%)
  Split-RI-J                ....       5.895 sec  (  5.3% of F)
  Chain of spheres X        ....      95.843 sec  ( 86.0% of F)
  XC integration            ....       5.658 sec  (  5.1% of F)
    Basis function eval.    ....       1.008 sec  ( 17.8% of XC)
    Density eval.           ....       2.091 sec  ( 37.0% of XC)
    XC-Functional eval.     ....       0.075 sec  (  1.3% of XC)
    XC-Potential eval.      ....       2.137 sec  ( 37.8% of XC)
Diagonalization             ....       0.308 sec  (  0.3%)
Density matrix formation    ....       0.019 sec  (  0.0%)
Population analysis         ....       0.200 sec  (  0.2%)
Initial guess               ....       0.319 sec  (  0.3%)
Orbital Transformation      ....       0.000 sec  (  0.0%)
Orbital Orthonormalization  ....       0.285 sec  (  0.2%)
DIIS solution               ....       0.099 sec  (  0.1%)
SOSCF solution              ....       0.213 sec  (  0.2%)
Grid generation             ....       4.187 sec  (  3.5%)

Maximum memory used throughout the entire SCF-calculation: 166.2 MB


           ************************************************************
           *        Program running with 4 parallel MPI-processes     *
           *              working on a common directory               *
           ************************************************************
------------------------------------------------------------------------------
                        ORCA TD-DFT/TDA CALCULATION
------------------------------------------------------------------------------

Input orbitals are from        ... b3lyp-train-7_job2.gbw
CI-vector output               ... b3lyp-train-7_job2.cis
Tamm-Dancoff approximation     ... operative
CIS-Integral strategy          ... AO-integrals
Integral handling              ... AO integral Direct
Max. core memory used          ... 4000 MB
Reference state                ... RHF
Generation of triplets         ... off
Follow IRoot                   ... off
Number of operators            ... 1
Orbital ranges used for CIS calculation:
 Operator 0:  Orbitals  12... 43  to  44...719
XAS localization array:
 Operator 0:  Orbitals  -1... -1

-------------------
XC-INTEGRATION GRID
-------------------

General Integration Accuracy     IntAcc      ... 3.467
Radial Grid Type                 RadialGrid  ... OptM3 with GC (2021)
Angular Grid (max. ang.)         AngularGrid ... 1 (Lebedev-50)
Angular grid pruning method      GridPruning ... 4 (adaptive)
Weight generation scheme         WeightScheme... Becke
Basis function cutoff            BFCut       ... 1.0000e-11
Integration weight cutoff        WCut        ... 1.0000e-14
Angular grids for H and He will be reduced by one unit
Partially contracted basis set               ... off
Rotationally invariant grid construction     ... off

Total number of grid points                  ...    16623
Total number of batches                      ...      270
Average number of points per batch           ...       61
Average number of grid points per atom       ...      693

---------------------
COSX-INTEGRATION GRID
---------------------

General Integration Accuracy     IntAcc      ... 3.067
Radial Grid Type                 RadialGrid  ... OptM3 with GC (2021)
Angular Grid (max. ang.)         AngularGrid ... 1 (Lebedev-50)
Angular grid pruning method      GridPruning ... 4 (adaptive)
Weight generation scheme         WeightScheme... Becke
Basis function cutoff            BFCut       ... 1.0000e-11
Integration weight cutoff        WCut        ... 1.0000e-14
Angular grids for H and He will be reduced by one unit
Partially contracted basis set               ... on
Rotationally invariant grid construction     ... off

Total number of grid points                  ...     7645
Total number of batches                      ...      136
Average number of points per batch           ...       56
Average number of grid points per atom       ...      319

---------------
TD-DFT XC SETUP
---------------

DFT calculation                         ... on
Name of the grid file                   ... b3lyp-train-7_job2.grid_cis.tmp
Exchange functional (TD-DFT)            ... B88
   X-Alpha parameter    XAlpha (TD-DFT) ...  0.666667
   Becke's b parameter  XBeta (TD-DFT)  ...  0.004200
Correlation functional (TD-DFT)         ... LYP
 LDA part of GGA corr.  LDAOpt (TD-DFT) ... VWN-5
Hybrid DFT                              ... on
   Exchange mixing (TD-DFT)             ...  0.200
   GGA exch. scaling (TD-DFT)           ...  0.720
   GGA corr. scaling (TD-DFT)           ...  0.810

Building densities             ... done
Calculating rho(r) on the grid ... done
Building xc-kernel on the grid ... done
                    *** TD-DFT CALCULATION INITIALIZED ***

---------------------------------
    LR-CPCM (non-equilibrium)
---------------------------------

Setting up LR-CPCM             ... done

------------------------
DAVIDSON-DIAGONALIZATION
------------------------

Dimension of the eigenvalue problem            ...  21632
Number of roots to be determined               ...     10
Maximum size of the expansion space            ...     70
Maximum number of iterations                   ...    100
Convergence tolerance for the residual         ...    1.000e-06
Convergence tolerance for the energies         ...    1.000e-06
Orthogonality tolerance                        ...    1.000e-14
Level Shift                                    ...    0.000e+00
Constructing the preconditioner                ... o.k.
Building the initial guess                     ... o.k.
Number of trial vectors determined             ...     70


                       ****Iteration    0****

   Memory handling for direct AO based CIS:
   Memory per vector needed      ...    23 MB
   Memory needed                 ...   711 MB
   Memory available              ...  4000 MB
   Number of vectors per batch   ...   168
   Number of batches             ...     1
   Time for densities:            0.240
   Time for RI-J (Direct):        7.629
   Time for K (COSX):            37.600
   Time for XC-Integration:      21.285
   Time for LR-CPCM terms:        9.812
   Time for Sigma-Completion:     0.225
   Size of expansion space: 30
   Lowest Energy          :     0.169392147352
   Maximum Energy change  :     0.215093334527 (vector 9)
   Maximum residual norm  :     0.009678798244

                       ****Iteration    1****
   Time for densities:            0.085
   Time for RI-J (Direct):        4.645
   Time for K (COSX):            15.080
   Time for XC-Integration:       8.077
   Time for LR-CPCM terms:        4.571
   Time for Sigma-Completion:     0.068
   Size of expansion space: 40
   Lowest Energy          :     0.158040161412
   Maximum Energy change  :     0.011351985941 (vector 0)
   Maximum residual norm  :     0.001858823387

                       ****Iteration    2****
   Time for densities:            0.080
   Time for RI-J (Direct):        4.557
   Time for K (COSX):            14.278
   Time for XC-Integration:       7.499
   Time for LR-CPCM terms:        4.556
   Time for Sigma-Completion:     0.072
   Size of expansion space: 50
   Lowest Energy          :     0.157678615419
   Maximum Energy change  :     0.004100846860 (vector 9)
   Maximum residual norm  :     0.000614535736

                       ****Iteration    3****
   Time for densities:            0.079
   Time for RI-J (Direct):        4.557
   Time for K (COSX):            14.469
   Time for XC-Integration:       7.614
   Time for LR-CPCM terms:        4.550
   Time for Sigma-Completion:     0.062
   Size of expansion space: 60
   Lowest Energy          :     0.157635993955
   Maximum Energy change  :     0.000988979028 (vector 6)
   Maximum residual norm  :     0.000054131815

                       ****Iteration    4****
   Time for densities:            0.079
   Time for RI-J (Direct):        4.611
   Time for K (COSX):            15.074
   Time for XC-Integration:       7.980
   Time for LR-CPCM terms:        4.590
   Time for Sigma-Completion:     0.065
   Size of expansion space: 70
   Lowest Energy          :     0.157634826792
   Maximum Energy change  :     0.000064418021 (vector 6)
   Maximum residual norm  :     0.000001305055
   Rebuilding the expansion space

                       ****Iteration    5****
   Time for densities:            0.162
   Time for RI-J (Direct):        6.094
   Time for K (COSX):            26.057
   Time for XC-Integration:      15.511
   Time for LR-CPCM terms:        7.214
   Time for Sigma-Completion:     0.118
   Size of expansion space: 20
   Lowest Energy          :     0.157634311236
   Maximum Energy change  :     0.000002384384 (vector 6)
   Maximum residual norm  :     0.000000107811

      *** CONVERGENCE OF RESIDUAL NORM REACHED ***

Storing the converged CI vectors               ... b3lyp-train-7_job2.cis1

                 *** DAVIDSON DONE ***

Total time for solving the CIS problem:   260.365sec

------------------------------------
TD-DFT/TDA EXCITED STATES (SINGLETS)
------------------------------------

the weight of the individual excitations are printed if larger than 1.0e-02

STATE  1:  E=   0.157634 au      4.289 eV    34596.7 cm**-1 <S**2> =   0.000000
    42a ->  44a  :     0.027692 (c= -0.16640784)
    42a ->  45a  :     0.011708 (c=  0.10820282)
    43a ->  44a  :     0.919060 (c= -0.95867633)
    43a ->  55a  :     0.011514 (c= -0.10730527)

STATE  2:  E=   0.168087 au      4.574 eV    36890.9 cm**-1 <S**2> =   0.000000
    41a ->  44a  :     0.013925 (c=  0.11800525)
    42a ->  44a  :     0.387177 (c=  0.62223536)
    43a ->  44a  :     0.021386 (c= -0.14624037)
    43a ->  45a  :     0.553566 (c=  0.74402038)

STATE  3:  E=   0.177769 au      4.837 eV    39015.7 cm**-1 <S**2> =   0.000000
    43a ->  46a  :     0.945746 (c=  0.97249449)
    43a ->  49a  :     0.022313 (c=  0.14937465)
    43a ->  51a  :     0.016573 (c=  0.12873559)

STATE  4:  E=   0.183209 au      4.985 eV    40209.8 cm**-1 <S**2> =   0.000000
    43a ->  47a  :     0.976839 (c= -0.98835156)

STATE  5:  E=   0.187460 au      5.101 eV    41142.6 cm**-1 <S**2> =   0.000000
    43a ->  48a  :     0.908791 (c= -0.95330544)
    43a ->  49a  :     0.058292 (c=  0.24143683)
    43a ->  50a  :     0.010502 (c=  0.10247778)

STATE  6:  E=   0.195259 au      5.313 eV    42854.3 cm**-1 <S**2> =   0.000000
    43a ->  46a  :     0.032338 (c= -0.17982829)
    43a ->  48a  :     0.064135 (c=  0.25324934)
    43a ->  49a  :     0.845796 (c=  0.91967190)
    43a ->  50a  :     0.016757 (c=  0.12945050)
    43a ->  51a  :     0.019852 (c=  0.14089782)

STATE  7:  E=   0.199571 au      5.431 eV    43800.8 cm**-1 <S**2> =   0.000000
    41a ->  44a  :     0.015369 (c=  0.12397151)
    42a ->  44a  :     0.505839 (c= -0.71122354)
    42a ->  55a  :     0.015637 (c= -0.12504908)
    43a ->  45a  :     0.337887 (c=  0.58128015)
    43a ->  52a  :     0.041436 (c=  0.20355756)

STATE  8:  E=   0.202463 au      5.509 eV    44435.5 cm**-1 <S**2> =   0.000000
    43a ->  49a  :     0.024956 (c= -0.15797340)
    43a ->  50a  :     0.932865 (c=  0.96584947)

STATE  9:  E=   0.208730 au      5.680 eV    45811.0 cm**-1 <S**2> =   0.000000
    42a ->  44a  :     0.013226 (c=  0.11500585)
    43a ->  49a  :     0.016528 (c=  0.12855966)
    43a ->  51a  :     0.709121 (c= -0.84209328)
    43a ->  52a  :     0.218902 (c=  0.46786935)

STATE 10:  E=   0.209349 au      5.697 eV    45946.8 cm**-1 <S**2> =   0.000000
    42a ->  44a  :     0.014574 (c=  0.12072479)
    43a ->  49a  :     0.011984 (c= -0.10946990)
    43a ->  51a  :     0.222714 (c=  0.47192572)
    43a ->  52a  :     0.708781 (c=  0.84189147)


-----------------------------
TD-DFT/TDA-EXCITATION SPECTRA
-----------------------------

Center of mass = ( -0.2966,  0.0060, -0.0367)
Calculating the Dipole integrals                  ... done
Transforming integrals                            ... done
Calculating the Linear Momentum integrals         ... done
Transforming integrals                            ... done
Calculating angular momentum integrals            ... done
Transforming integrals                            ... done

-----------------------------------------------------------------------------
         ABSORPTION SPECTRUM VIA TRANSITION ELECTRIC DIPOLE MOMENTS
-----------------------------------------------------------------------------
State   Energy    Wavelength  fosc         T2        TX        TY        TZ  
        (cm-1)      (nm)                 (au**2)    (au)      (au)      (au) 
-----------------------------------------------------------------------------
   1   34596.7    289.0   0.435844157   4.14736  -1.84122  -0.87020   0.00287
   2   36890.9    271.1   0.023031621   0.20553  -0.38397  -0.24056   0.01501
   3   39015.7    256.3   0.010983547   0.09268   0.02232  -0.04892  -0.29965
   4   40209.8    248.7   0.000619698   0.00507  -0.00407   0.01205   0.07008
   5   41142.6    243.1   0.000229941   0.00184   0.00457  -0.00665   0.04213
   6   42854.3    233.3   0.000763224   0.00586   0.00011  -0.02181  -0.07340
   7   43800.8    228.3   0.756389062   5.68510   2.23927  -0.74520   0.33981
   8   44435.5    225.0   0.005798148   0.04296   0.14973  -0.08650  -0.11426
   9   45811.0    218.3   0.066884387   0.48065  -0.65631   0.19407  -0.11064
  10   45946.8    217.6   0.075859798   0.54354  -0.70339   0.19710  -0.09970

-----------------------------------------------------------------------------
         ABSORPTION SPECTRUM VIA TRANSITION VELOCITY DIPOLE MOMENTS
-----------------------------------------------------------------------------
State   Energy    Wavelength   fosc        P2         PX        PY        PZ  
        (cm-1)      (nm)                 (au**2)     (au)      (au)      (au) 
-----------------------------------------------------------------------------
   1   34596.7    289.0   0.130846537   0.03094   0.16131   0.07011   0.00186
   2   36890.9    271.1   0.020492262   0.00517   0.06979   0.01690   0.00333
   3   39015.7    256.3   0.006581620   0.00176  -0.00284   0.00665   0.04126
   4   40209.8    248.7   0.000689288   0.00019   0.00107  -0.00240  -0.01351
   5   41142.6    243.1   0.003754769   0.00106   0.00158  -0.00380  -0.03223
   6   42854.3    233.3   0.000908256   0.00027   0.00323  -0.00269  -0.01576
   7   43800.8    228.3   0.192457382   0.05761  -0.23788   0.01960  -0.02533
   8   44435.5    225.0   0.002486956   0.00076  -0.01689   0.00749   0.02035
   9   45811.0    218.3   0.022785472   0.00713   0.08152  -0.01049   0.01946
  10   45946.8    217.6   0.025580268   0.00803   0.08874  -0.01198   0.00374

-------------------------------------------------------------------
                             CD SPECTRUM
-------------------------------------------------------------------
State  Energy     Wavelength     R         MX        MY        MZ   
       (cm-1)       (nm)     (1e40*cgs)   (au)      (au)      (au)  
-------------------------------------------------------------------
   1   34596.7    289.0     -1.50631  -0.01032   0.02609   0.17548
   2   36890.9    271.1      0.18239  -0.01244   0.02849   0.16411
   3   39015.7    256.3     -0.48943   0.00092   0.03783  -0.00264
   4   40209.8    248.7      0.13990   0.11447  -0.10261   0.02854
   5   41142.6    243.1      0.50324   0.03683  -0.07695   0.00919
   6   42854.3    233.3     -1.20661  -0.00365   0.25359  -0.04048
   7   43800.8    228.3     -5.28062  -0.00816   0.00415   0.02994
   8   44435.5    225.0     -0.32840   0.07259   0.16333  -0.02242
   9   45811.0    218.3     11.35025   0.00741   0.12812  -0.03680
  10   45946.8    217.6    -10.67968  -0.00032  -0.11656  -0.00093

-------------------------------------------------------------------
         CD SPECTRUM VIA TRANSITION VELOCITY DIPOLE MOMENTS        
-------------------------------------------------------------------
State  Energy     Wavelength     R         MX        MY        MZ   
       (cm-1)       (nm)     (1e40*cgs)   (au)      (au)      (au)  
-------------------------------------------------------------------
   1   34596.7    289.0      1.47006  -0.01032   0.02609   0.17548
   2   36890.9    271.1      0.45002  -0.01244   0.02849   0.16411
   3   39015.7    256.3      0.37150   0.00092   0.03783  -0.00264
   4   40209.8    248.7     -0.04311   0.11447  -0.10261   0.02854
   5   41142.6    243.1      0.13703   0.03683  -0.07695   0.00919
   6   42854.3    233.3     -0.13317  -0.00365   0.25359  -0.04048
   7   43800.8    228.3      2.98793  -0.00816   0.00415   0.02994
   8   44435.5    225.0     -1.06838   0.07259   0.16333  -0.02242
   9   45811.0    218.3     -3.28814   0.00741   0.12812  -0.03680
  10   45946.8    217.6      3.07143  -0.00032  -0.11656  -0.00093

Total run time:      263.254 sec

           *** ORCA-CIS/TD-DFT FINISHED WITHOUT ERROR ***

Maximum memory used throughout the entire CIS-calculation: 678.0 MB

-----------------------
CIS/TD-DFT TOTAL ENERGY
-----------------------

    E(SCF)  =   -538.578396166 Eh
    DE(CIS) =      0.157634311 Eh (Root  1)
    ----------------------------- ---------
    E(tot)  =   -538.420761855 Eh


-------------------------   --------------------
FINAL SINGLE POINT ENERGY      -538.420761854777
-------------------------   --------------------


                            ***************************************
                            *     ORCA property calculations      *
                            ***************************************

                                    ---------------------
                                    Active property flags
                                    ---------------------
   (+) Dipole Moment


------------------------------------------------------------------------------
                       ORCA ELECTRIC PROPERTIES CALCULATION
------------------------------------------------------------------------------

Dipole Moment Calculation                       ... on
Quadrupole Moment Calculation                   ... off
Polarizability Calculation                      ... off
GBWName                                         ... b3lyp-train-7_job2.gbw
Electron density                                ... b3lyp-train-7_job2.scfp
The origin for moment calculation is the CENTER OF MASS  = (-0.296577,  0.005952 -0.036688)

-------------
DIPOLE MOMENT
-------------
                                X             Y             Z
Electronic contribution:     -2.62429      -0.12462      -0.16103
Nuclear contribution   :      2.42144       0.05898       0.15015
                        -----------------------------------------
Total Dipole Moment    :     -0.20286      -0.06564      -0.01088
                        -----------------------------------------
Magnitude (a.u.)       :      0.21349
Magnitude (Debye)      :      0.54265



--------------------
Rotational spectrum 
--------------------
 
Rotational constants in cm-1:     0.044470     0.022315     0.014944 
Rotational constants in MHz :  1333.169603   668.995185   448.022809 

 Dipole components along the rotational axes: 
x,y,z [a.u.] :    -0.210092    -0.037707    -0.004131 
x,y,z [Debye]:    -0.534012    -0.095844    -0.010500 

 

Timings for individual modules:

Sum of individual times         ...      385.892 sec (=   6.432 min)
GTO integral calculation        ...        2.662 sec (=   0.044 min)   0.7 %
SCF iterations                  ...      119.238 sec (=   1.987 min)  30.9 %
CIS module                      ...      263.991 sec (=   4.400 min)  68.4 %



                             ****ORCA TERMINATED NORMALLY****
TOTAL RUN TIME: 0 days 0 hours 43 minutes 8 seconds 431 msec
