
                                 *****************
                                 * O   R   C   A *
                                 *****************

                                            #,                                       
                                            ###                                      
                                            ####                                     
                                            #####                                    
                                            ######                                   
                                           ########,                                 
                                     ,,################,,,,,                         
                               ,,#################################,,                 
                          ,,##########################################,,             
                       ,#########################################, ''#####,          
                    ,#############################################,,   '####,        
                  ,##################################################,,,,####,       
                ,###########''''           ''''###############################       
              ,#####''   ,,,,##########,,,,          '''####'''          '####       
            ,##' ,,,,###########################,,,                        '##       
           ' ,,###''''                  '''############,,,                           
         ,,##''                                '''############,,,,        ,,,,,,###''
      ,#''                                            '''#######################'''  
     '                                                          ''''####''''         
             ,#######,   #######,   ,#######,      ##                                
            ,#'     '#,  ##    ##  ,#'     '#,    #''#        ######   ,####,        
            ##       ##  ##   ,#'  ##            #'  '#       #        #'  '#        
            ##       ##  #######   ##           ,######,      #####,   #    #        
            '#,     ,#'  ##    ##  '#,     ,#' ,#      #,         ##   #,  ,#        
             '#######'   ##     ##  '#######'  #'      '#     #####' # '####'        



                  #######################################################
                  #                        -***-                        #
                  #          Department of theory and spectroscopy      #
                  #    Directorship and core code : Frank Neese         #
                  #        Max Planck Institute fuer Kohlenforschung    #
                  #                Kaiser Wilhelm Platz 1               #
                  #                 D-45470 Muelheim/Ruhr               #
                  #                      Germany                        #
                  #                                                     #
                  #                  All rights reserved                #
                  #                        -***-                        #
                  #######################################################


                         Program Version 5.0.2 -  RELEASE  -


 With contributions from (in alphabetic order):
   Daniel Aravena         : Magnetic Suceptibility
   Michael Atanasov       : Ab Initio Ligand Field Theory (pilot matlab implementation)
   Alexander A. Auer      : GIAO ZORA, VPT2 properties, NMR spectrum
   Ute Becker             : Parallelization
   Giovanni Bistoni       : ED, misc. LED, open-shell LED, HFLD
   Martin Brehm           : Molecular dynamics
   Dmytro Bykov           : SCF Hessian
   Vijay G. Chilkuri      : MRCI spin determinant printing, contributions to CSF-ICE
   Dipayan Datta          : RHF DLPNO-CCSD density
   Achintya Kumar Dutta   : EOM-CC, STEOM-CC
   Dmitry Ganyushin       : Spin-Orbit,Spin-Spin,Magnetic field MRCI
   Miquel Garcia          : C-PCM and meta-GGA Hessian, CC/C-PCM, Gaussian charge scheme
   Yang Guo               : DLPNO-NEVPT2, F12-NEVPT2, CIM, IAO-localization
   Andreas Hansen         : Spin unrestricted coupled pair/coupled cluster methods
   Benjamin Helmich-Paris : MC-RPA, TRAH-SCF, COSX integrals
   Lee Huntington         : MR-EOM, pCC
   Robert Izsak           : Overlap fitted RIJCOSX, COSX-SCS-MP3, EOM
   Marcus Kettner         : VPT2
   Christian Kollmar      : KDIIS, OOCD, Brueckner-CCSD(T), CCSD density, CASPT2, CASPT2-K
   Simone Kossmann        : Meta GGA functionals, TD-DFT gradient, OOMP2, MP2 Hessian
   Martin Krupicka        : Initial AUTO-CI
   Lucas Lang             : DCDCAS
   Marvin Lechner         : AUTO-CI (C++ implementation), FIC-MRCC
   Dagmar Lenk            : GEPOL surface, SMD
   Dimitrios Liakos       : Extrapolation schemes; Compound Job, initial MDCI parallelization
   Dimitrios Manganas     : Further ROCIS development; embedding schemes
   Dimitrios Pantazis     : SARC Basis sets
   Anastasios Papadopoulos: AUTO-CI, single reference methods and gradients
   Taras Petrenko         : DFT Hessian,TD-DFT gradient, ASA, ECA, R-Raman, ABS, FL, XAS/XES, NRVS
   Peter Pinski           : DLPNO-MP2, DLPNO-MP2 Gradient
   Christoph Reimann      : Effective Core Potentials
   Marius Retegan         : Local ZFS, SOC
   Christoph Riplinger    : Optimizer, TS searches, QM/MM, DLPNO-CCSD(T), (RO)-DLPNO pert. Triples
   Tobias Risthaus        : Range-separated hybrids, TD-DFT gradient, RPA, STAB
   Michael Roemelt        : Original ROCIS implementation
   Masaaki Saitow         : Open-shell DLPNO-CCSD energy and density
   Barbara Sandhoefer     : DKH picture change effects
   Avijit Sen             : IP-ROCIS
   Kantharuban Sivalingam : CASSCF convergence, NEVPT2, FIC-MRCI
   Bernardo de Souza      : ESD, SOC TD-DFT
   Georgi Stoychev        : AutoAux, RI-MP2 NMR, DLPNO-MP2 response
   Willem Van den Heuvel  : Paramagnetic NMR
   Boris Wezisla          : Elementary symmetry handling
   Frank Wennmohs         : Technical directorship


 We gratefully acknowledge several colleagues who have allowed us to
 interface, adapt or use parts of their codes:
   Stefan Grimme, W. Hujo, H. Kruse, P. Pracht,  : VdW corrections, initial TS optimization,
                  C. Bannwarth, S. Ehlert          DFT functionals, gCP, sTDA/sTD-DF
   Ed Valeev, F. Pavosevic, A. Kumar             : LibInt (2-el integral package), F12 methods
   Garnet Chan, S. Sharma, J. Yang, R. Olivares  : DMRG
   Ulf Ekstrom                                   : XCFun DFT Library
   Mihaly Kallay                                 : mrcc  (arbitrary order and MRCC methods)
   Jiri Pittner, Ondrej Demel                    : Mk-CCSD
   Frank Weinhold                                : gennbo (NPA and NBO analysis)
   Christopher J. Cramer and Donald G. Truhlar   : smd solvation model
   Lars Goerigk                                  : TD-DFT with DH, B97 family of functionals
   V. Asgeirsson, H. Jonsson                     : NEB implementation
   FAccTs GmbH                                   : IRC, NEB, NEB-TS, DLPNO-Multilevel, CI-OPT
                                                   MM, QMMM, 2- and 3-layer-ONIOM, Crystal-QMMM,
                                                   LR-CPCM, SF, NACMEs, symmetry and pop. for TD-DFT,
                                                   nearIR, NL-DFT gradient (VV10), updates on ESD,
                                                   ML-optimized integration grids
   S Lehtola, MJT Oliveira, MAL Marques          : LibXC Library
   Liviu Ungur et al                             : ANISO software


 Your calculation uses the libint2 library for the computation of 2-el integrals
 For citations please refer to: http://libint.valeyev.net

 Your ORCA version has been built with support for libXC version: 5.1.0
 For citations please refer to: https://tddft.org/programs/libxc/

 This ORCA versions uses:
   CBLAS   interface :  Fast vector & matrix operations
   LAPACKE interface :  Fast linear algebra routines
   SCALAPACK package :  Parallel linear algebra routines
   Shared memory     :  Shared parallel matrices
   BLAS/LAPACK       :  OpenBLAS 0.3.15  USE64BITINT DYNAMIC_ARCH NO_AFFINITY Haswell SINGLE_THREADED
        Core in use  :  Haswell
   Copyright (c) 2011-2014, The OpenBLAS Project


Your calculation utilizes the SMD solvation module
Please cite in your paper:
A.V. Marenich, C.J. Cramer, D.G. Truhlar J. Phys. Chem. B, 113, (2009), 6378 

XCFun DFT library Copyright 2009-2010 Ulf Ekstrom and contributors.
See http://admol.org/xcfun for more information.
This is free software; see the source code for copying conditions.
There is ABSOLUTELY NO WARRANTY; not even for MERCHANTABILITY or FITNESS FOR A PARTICULAR PURPOSE.
For details see the documentation.
Scientific users of this library should cite U. Ekstrom, L. Visscher, R. Bast, A. J. Thorvaldsen and K. Ruud;
J.Chem.Theor.Comp. 2010, DOI: 10.1021/ct100117s
XCFun Version 0.99 

================================================================================

----- Orbital basis set information -----
Your calculation utilizes the basis: aug-cc-pVTZ 
    H, B-Ne : Obtained from the ccRepo (grant-hill.group.shef.ac.uk/ccrepo) Feb. 2017
              R. A. Kendall, T. H. Dunning, Jr., R. J. Harrison, J. Chem. Phys. 96, 6796 (1992)
         He : Obtained from the ccRepo (grant-hill.group.shef.ac.uk/ccrepo) Feb. 2017
              D. E. Woon, T. H. Dunning, Jr., J. Chem. Phys. 100, 2975 (1994)
  Li-Be, Na : Obtained from the ccRepo (grant-hill.group.shef.ac.uk/ccrepo) Feb. 2017
              B. P. Prascher, D. E. Woon, K. A. Peterson, T. H. Dunning, Jr., A. K. Wilson, Theor. Chem. Acc. 128, 69 (2011)
         Mg : Obtained from the Peterson Research Group Website (tyr0.chem.wsu.edu/~kipeters) Feb. 2017
              B. P. Prascher, D. E. Woon, K. A. Peterson, T. H. Dunning, Jr., A. K. Wilson, Theor. Chem. Acc. 128, 69 (2011)
      Al-Ar : Obtained from the ccRepo (grant-hill.group.shef.ac.uk/ccrepo) Feb. 2017
              D. E. Woon, T. H. Dunning, Jr., J. Chem. Phys. 98, 1358 (1993)
      Sc-Zn : Obtained from the ccRepo (grant-hill.group.shef.ac.uk/ccrepo) Feb. 2017
              N. B. Balabanov, K. A. Peterson, J. Chem. Phys. 123, 064107 (2005)
              N. B. Balabanov, K. A. Peterson, J. Chem. Phys. 125, 074110 (2006)
      Ga-Kr : Obtained from the ccRepo (grant-hill.group.shef.ac.uk/ccrepo) Feb. 2017
              A. K. Wilson, D. E. Woon, K. A. Peterson, T. H. Dunning, Jr., J. Chem. Phys. 110, 7667 (1999)
     Ag, Au : Obtained from the Peterson Research Group Website (tyr0.chem.wsu.edu/~kipeters) Feb. 2017
              K. A. Peterson, C. Puzzarini, Theor. Chem. Acc. 114, 283 (2005)

The basis set includes element-specific modifications.

Your calculation utilizes the basis: cc-pVTZ 
       H, B-Ne : Obtained from the ccRepo (grant-hill.group.shef.ac.uk/ccrepo) Feb. 2017
                 T. H. Dunning, Jr., J. Chem. Phys. 90, 1007 (1989)
            He : Obtained from the ccRepo (grant-hill.group.shef.ac.uk/ccrepo) Feb. 2017
                 D. E. Woon, T. H. Dunning, Jr., J. Chem. Phys. 100, 2975 (1994)
  Li-Be, Na-Mg : Obtained from the ccRepo (grant-hill.group.shef.ac.uk/ccrepo) Feb. 2017
                 B. P. Prascher, D. E. Woon, K. A. Peterson, T. H. Dunning, Jr., A. K. Wilson, Theor. Chem. Acc. 128, 69 (2011)
         Al-Ar : Obtained from the ccRepo (grant-hill.group.shef.ac.uk/ccrepo) Feb. 2017
                 D. E. Woon, T. H. Dunning, Jr., J. Chem. Phys. 98, 1358 (1993)
            Ca : Obtained from the Peterson Research Group Website (tyr0.chem.wsu.edu/~kipeters) Feb. 2017
                 J. Koput, K. A. Peterson, J. Phys. Chem. 106, 9595 (2002)
         Sc-Zn : Obtained from the ccRepo (grant-hill.group.shef.ac.uk/ccrepo) Feb. 2017
                 N. B. Balabanov, K. A. Peterson, J. Chem. Phys. 123, 064107 (2005)
                 N. B. Balabanov, K. A. Peterson, J. Chem. Phys. 125, 074110 (2006)
         Ga-Kr : Obtained from the ccRepo (grant-hill.group.shef.ac.uk/ccrepo) Feb. 2017
                 A. K. Wilson, D. E. Woon, K. A. Peterson, T. H. Dunning, Jr., J. Chem. Phys. 110, 7667 (1999)
             Y : Obtained from the ccRepo (grant-hill.group.shef.ac.uk/ccrepo) Feb. 2017
                 K. A. Peterson, D. Figgen, M. Dolg, H. Stoll, J. Chem. Phys. 126, 124101 (2007)
        Ag, Au : Obtained from the Peterson Research Group Website (tyr0.chem.wsu.edu/~kipeters) Feb. 2017
                 K. A. Peterson, C. Puzzarini, Theor. Chem. Acc. 114, 283 (2005)

----- AuxJ basis set information -----
Your calculation utilizes the auxiliary basis: aug-cc-pVTZ/JK 
  H, B-F, Al-Cl, Ga-Br : Obtained from the TURBOMOLE 7.0 basis set library

The basis set includes element-specific modifications.

Your calculation utilizes the auxiliary basis: cc-pVTZ/JK 
  H, B-F, Al-Cl, Ga-Br : Obtained from the TURBOMOLE 7.0 basis set library

----- AuxC basis set information -----
Your calculation utilizes the auxiliary basis: aug-cc-pVTZ/C 
  H-He, B-F, Al-Ar, Ga-Kr : Obtained from the EMSL Basis Set Exchange (bse.pnl.gov) Feb. 2017
                            F. Weigend, A. Kohn, C. Hattig, J. Chem. Phys. 116, 3175 (2002)
                   Be, Mg : Obtained from the TURBOMOLE 7.0 basis set library
                            C. Haettig, Phys. Chem. Chem. Phys. 7, 59 (2005)
                       Ne : Obtained from the EMSL Basis Set Exchange (bse.pnl.gov) Feb. 2017
                            C. Haettig, Phys. Chem. Chem. Phys. 7, 59 (2005)
                            F. Weigend, A. Kohn, C. Hattig, J. Chem. Phys. 116, 3175 (2002)
                    Sc-Zn : Obtained from the EMSL Basis Set Exchange (bse.pnl.gov) Feb. 2017
                            J. G. Hill, J. A. Platts, J. Chem. Phys. 128, 044104 (2008)

The basis set includes element-specific modifications.

Your calculation utilizes the auxiliary basis: cc-pVTZ/C 
  Obtained from the EMSL Basis Set Exchange (bse.pnl.gov) Feb. 2017
  H-He, B-F, Al-Ar, Ga-Kr : F. Weigend, A. Kohn, C. Hattig, J. Chem. Phys. 116, 3175 (2002)
             Li-Be, Na-Mg : C. Haettig, Phys. Chem. Chem. Phys. 7, 59 (2005)
                       Ne : C. Haettig, Phys. Chem. Chem. Phys. 7, 59 (2005)
                            F. Weigend, A. Kohn, C. Hattig, J. Chem. Phys. 116, 3175 (2002)
                    Sc-Zn : J. G. Hill, J. A. Platts, J. Chem. Phys. 128, 044104 (2008)

================================================================================
                                        WARNINGS
                       Please study these warnings very carefully!
================================================================================


WARNING: Geometry Optimization
  ===> : Switching off AutoStart
         For restart on a previous wavefunction, please use MOREAD

INFO   : the flag for use of the SHARK integral package has been found!



***************************************
The coordinates will be read from file: 
***************************************


Your calculation utilizes the SMD solvation module
Please cite in your paper:
A.V. Marenich, C.J. Cramer, D.G. Truhlar J. Phys. Chem. B, 113, (2009), 6378 

XCFun DFT library Copyright 2009-2010 Ulf Ekstrom and contributors.
See http://admol.org/xcfun for more information.
This is free software; see the source code for copying conditions.
There is ABSOLUTELY NO WARRANTY; not even for MERCHANTABILITY or FITNESS FOR A PARTICULAR PURPOSE.
For details see the documentation.
Scientific users of this library should cite U. Ekstrom, L. Visscher, R. Bast, A. J. Thorvaldsen and K. Ruud;
J.Chem.Theor.Comp. 2010, DOI: 10.1021/ct100117s
XCFun Version 0.99 

================================================================================

----- Orbital basis set information -----
Your calculation utilizes the basis: aug-cc-pVTZ 
    H, B-Ne : Obtained from the ccRepo (grant-hill.group.shef.ac.uk/ccrepo) Feb. 2017
              R. A. Kendall, T. H. Dunning, Jr., R. J. Harrison, J. Chem. Phys. 96, 6796 (1992)
         He : Obtained from the ccRepo (grant-hill.group.shef.ac.uk/ccrepo) Feb. 2017
              D. E. Woon, T. H. Dunning, Jr., J. Chem. Phys. 100, 2975 (1994)
  Li-Be, Na : Obtained from the ccRepo (grant-hill.group.shef.ac.uk/ccrepo) Feb. 2017
              B. P. Prascher, D. E. Woon, K. A. Peterson, T. H. Dunning, Jr., A. K. Wilson, Theor. Chem. Acc. 128, 69 (2011)
         Mg : Obtained from the Peterson Research Group Website (tyr0.chem.wsu.edu/~kipeters) Feb. 2017
              B. P. Prascher, D. E. Woon, K. A. Peterson, T. H. Dunning, Jr., A. K. Wilson, Theor. Chem. Acc. 128, 69 (2011)
      Al-Ar : Obtained from the ccRepo (grant-hill.group.shef.ac.uk/ccrepo) Feb. 2017
              D. E. Woon, T. H. Dunning, Jr., J. Chem. Phys. 98, 1358 (1993)
      Sc-Zn : Obtained from the ccRepo (grant-hill.group.shef.ac.uk/ccrepo) Feb. 2017
              N. B. Balabanov, K. A. Peterson, J. Chem. Phys. 123, 064107 (2005)
              N. B. Balabanov, K. A. Peterson, J. Chem. Phys. 125, 074110 (2006)
      Ga-Kr : Obtained from the ccRepo (grant-hill.group.shef.ac.uk/ccrepo) Feb. 2017
              A. K. Wilson, D. E. Woon, K. A. Peterson, T. H. Dunning, Jr., J. Chem. Phys. 110, 7667 (1999)
     Ag, Au : Obtained from the Peterson Research Group Website (tyr0.chem.wsu.edu/~kipeters) Feb. 2017
              K. A. Peterson, C. Puzzarini, Theor. Chem. Acc. 114, 283 (2005)

The basis set includes element-specific modifications.

Your calculation utilizes the basis: cc-pVTZ 
       H, B-Ne : Obtained from the ccRepo (grant-hill.group.shef.ac.uk/ccrepo) Feb. 2017
                 T. H. Dunning, Jr., J. Chem. Phys. 90, 1007 (1989)
            He : Obtained from the ccRepo (grant-hill.group.shef.ac.uk/ccrepo) Feb. 2017
                 D. E. Woon, T. H. Dunning, Jr., J. Chem. Phys. 100, 2975 (1994)
  Li-Be, Na-Mg : Obtained from the ccRepo (grant-hill.group.shef.ac.uk/ccrepo) Feb. 2017
                 B. P. Prascher, D. E. Woon, K. A. Peterson, T. H. Dunning, Jr., A. K. Wilson, Theor. Chem. Acc. 128, 69 (2011)
         Al-Ar : Obtained from the ccRepo (grant-hill.group.shef.ac.uk/ccrepo) Feb. 2017
                 D. E. Woon, T. H. Dunning, Jr., J. Chem. Phys. 98, 1358 (1993)
            Ca : Obtained from the Peterson Research Group Website (tyr0.chem.wsu.edu/~kipeters) Feb. 2017
                 J. Koput, K. A. Peterson, J. Phys. Chem. 106, 9595 (2002)
         Sc-Zn : Obtained from the ccRepo (grant-hill.group.shef.ac.uk/ccrepo) Feb. 2017
                 N. B. Balabanov, K. A. Peterson, J. Chem. Phys. 123, 064107 (2005)
                 N. B. Balabanov, K. A. Peterson, J. Chem. Phys. 125, 074110 (2006)
         Ga-Kr : Obtained from the ccRepo (grant-hill.group.shef.ac.uk/ccrepo) Feb. 2017
                 A. K. Wilson, D. E. Woon, K. A. Peterson, T. H. Dunning, Jr., J. Chem. Phys. 110, 7667 (1999)
             Y : Obtained from the ccRepo (grant-hill.group.shef.ac.uk/ccrepo) Feb. 2017
                 K. A. Peterson, D. Figgen, M. Dolg, H. Stoll, J. Chem. Phys. 126, 124101 (2007)
        Ag, Au : Obtained from the Peterson Research Group Website (tyr0.chem.wsu.edu/~kipeters) Feb. 2017
                 K. A. Peterson, C. Puzzarini, Theor. Chem. Acc. 114, 283 (2005)

----- AuxJ basis set information -----
Your calculation utilizes the auxiliary basis: aug-cc-pVTZ/JK 
  H, B-F, Al-Cl, Ga-Br : Obtained from the TURBOMOLE 7.0 basis set library

The basis set includes element-specific modifications.

Your calculation utilizes the auxiliary basis: cc-pVTZ/JK 
  H, B-F, Al-Cl, Ga-Br : Obtained from the TURBOMOLE 7.0 basis set library

----- AuxC basis set information -----
Your calculation utilizes the auxiliary basis: aug-cc-pVTZ/C 
  H-He, B-F, Al-Ar, Ga-Kr : Obtained from the EMSL Basis Set Exchange (bse.pnl.gov) Feb. 2017
                            F. Weigend, A. Kohn, C. Hattig, J. Chem. Phys. 116, 3175 (2002)
                   Be, Mg : Obtained from the TURBOMOLE 7.0 basis set library
                            C. Haettig, Phys. Chem. Chem. Phys. 7, 59 (2005)
                       Ne : Obtained from the EMSL Basis Set Exchange (bse.pnl.gov) Feb. 2017
                            C. Haettig, Phys. Chem. Chem. Phys. 7, 59 (2005)
                            F. Weigend, A. Kohn, C. Hattig, J. Chem. Phys. 116, 3175 (2002)
                    Sc-Zn : Obtained from the EMSL Basis Set Exchange (bse.pnl.gov) Feb. 2017
                            J. G. Hill, J. A. Platts, J. Chem. Phys. 128, 044104 (2008)

The basis set includes element-specific modifications.

Your calculation utilizes the auxiliary basis: cc-pVTZ/C 
  Obtained from the EMSL Basis Set Exchange (bse.pnl.gov) Feb. 2017
  H-He, B-F, Al-Ar, Ga-Kr : F. Weigend, A. Kohn, C. Hattig, J. Chem. Phys. 116, 3175 (2002)
             Li-Be, Na-Mg : C. Haettig, Phys. Chem. Chem. Phys. 7, 59 (2005)
                       Ne : C. Haettig, Phys. Chem. Chem. Phys. 7, 59 (2005)
                            F. Weigend, A. Kohn, C. Hattig, J. Chem. Phys. 116, 3175 (2002)
                    Sc-Zn : J. G. Hill, J. A. Platts, J. Chem. Phys. 128, 044104 (2008)

================================================================================
                                        WARNINGS
                       Please study these warnings very carefully!
================================================================================

INFO   : Checking CIS options ...

INFO   : the flag for use of the SHARK integral package has been found!

================================================================================
                                       INPUT FILE
================================================================================
NAME = m062x-train-7.inp
|  1> ! m062x defgrid3 aug-cc-PVTZ RIJCOSX Opt
|  2> %maxcore 4000
|  3> %basis
|  4>  AuxJ "aug-cc-PVTZ/JK"
|  5>  AuxC "aug-cc-PVTZ/C"
|  6>  newGTO H "cc-PVTZ" end
|  7>  newAuxJGTO H "cc-PVTZ/JK" end
|  8>  newAuxCGTO H "cc-PVTZ/C" end
|  9> end
| 10> %cpcm
| 11>  SMD true
| 12>  SMDsolvent "cyclohexane"
| 13> end
| 14> %pal nprocs 4 end
| 15> * xyz 0 1
| 16> C          4.01170        0.00820        0.34860
| 17> C          2.89560        0.69840        0.14290
| 18> C          1.53670        0.17630        0.10890
| 19> C          1.22560       -1.15920        0.32570
| 20> C         -0.08660       -1.60060        0.28110
| 21> C         -1.12440       -0.72160        0.01880
| 22> O         -2.44290       -1.05420       -0.04620
| 23> C         -2.80490       -2.39380        0.17280
| 24> C         -0.82610        0.64180       -0.20400
| 25> O         -1.90170        1.44160       -0.45490
| 26> C         -1.67710        2.80980       -0.67860
| 27> C          0.48660        1.06530       -0.15530
| 28> H          4.97400        0.49070        0.35540
| 29> H          4.01730       -1.05460        0.51790
| 30> H          2.96990        1.76700       -0.02210
| 31> H          2.00590       -1.87320        0.53430
| 32> H         -0.28990       -2.64540        0.45520
| 33> H         -3.88920       -2.42410        0.07670
| 34> H         -2.52200       -2.73030        1.17610
| 35> H         -2.35790       -3.06090       -0.57230
| 36> H         -2.66080        3.24430       -0.85090
| 37> H         -1.04920        2.97840       -1.56040
| 38> H         -1.21720        3.29190        0.19110
| 39> H          0.72640        2.10400       -0.32380
| 40> *
| 41> 
| 42> 
| 43> $new_job
| 44> ! m062x defgrid3 aug-cc-PVTZ RIJCOSX SP
| 45> %maxcore 4000
| 46> %basis
| 47>  AuxJ "aug-cc-PVTZ/JK"
| 48>  AuxC "aug-cc-PVTZ/C"
| 49>  newGTO H "cc-PVTZ" end
| 50>  newAuxJGTO H "cc-PVTZ/JK" end
| 51>  newAuxCGTO H "cc-PVTZ/C" end
| 52> end
| 53> %cpcm
| 54>  SMD true
| 55>  SMDsolvent "cyclohexane"
| 56> end
| 57> %pal nprocs 4 end
| 58> %tddft
| 59>  nroots 10
| 60>  maxdim 7
| 61> end
| 62> * xyzfile 0 1
| 63> 
| 64>                          ****END OF INPUT****
================================================================================


                 $$$$$$$$$$$$$$$$$$$$$$$$$$$$$$$$$$$$$$$$$$$$$$ 
                 $ THERE ARE  2 JOBS TO BE PROCESSED THIS RUN $
                 $$$$$$$$$$$$$$$$$$$$$$$$$$$$$$$$$$$$$$$$$$$$$$ 




                 $$$$$$$$$$$$$$$$  JOB NUMBER  1 $$$$$$$$$$$$$$


                       *****************************
                       * Geometry Optimization Run *
                       *****************************

Geometry optimization settings:
Update method            Update   .... BFGS
Choice of coordinates    CoordSys .... Z-matrix Internals
Initial Hessian          InHess   .... Almoef's Model

Convergence Tolerances:
Energy Change            TolE     ....  5.0000e-06 Eh
Max. Gradient            TolMAXG  ....  3.0000e-04 Eh/bohr
RMS Gradient             TolRMSG  ....  1.0000e-04 Eh/bohr
Max. Displacement        TolMAXD  ....  4.0000e-03 bohr
RMS Displacement         TolRMSD  ....  2.0000e-03 bohr
Strict Convergence                ....  False
------------------------------------------------------------------------------
                        ORCA OPTIMIZATION COORDINATE SETUP
------------------------------------------------------------------------------

The optimization will be done in new redundant internal coordinates
Making redundant internal coordinates   ...  (new redundants) done
Evaluating the initial hessian          ...  (Almloef) done
Evaluating the coordinates              ...  done
Calculating the B-matrix                .... done
Calculating the G-matrix                .... done
Diagonalizing the G-matrix              .... done
Small eigenvalue found = 1.125e-02
Small eigenvalue found = 1.336e-02
The first mode is                       ....   38
The number of degrees of freedom        ....   66

    -----------------------------------------------------------------
                    Redundant Internal Coordinates


    -----------------------------------------------------------------
         Definition                    Initial Value    Approx d2E/dq
    -----------------------------------------------------------------
      1. B(C   1,C   0)                  1.3283         0.783763   
      2. B(C   2,C   1)                  1.4561         0.490017   
      3. B(C   3,C   2)                  1.3883         0.628737   
      4. B(C   4,C   3)                  1.3852         0.635985   
      5. B(C   5,C   4)                  1.3851         0.636171   
      6. B(O   6,C   5)                  1.3614         0.621692   
      7. B(C   7,O   6)                  1.4048         0.529936   
      8. B(C   8,C   5)                  1.4133         0.573493   
      9. B(O   9,C   8)                  1.3637         0.616471   
     10. B(C  10,O   9)                  1.4044         0.530681   
     11. B(C  11,C   8)                  1.3802         0.647740   
     12. B(C  11,C   2)                  1.4010         0.600027   
     13. B(H  12,C   0)                  1.0765         0.378395   
     14. B(H  13,C   0)                  1.0762         0.378806   
     15. B(H  14,C   1)                  1.0838         0.368378   
     16. B(H  15,C   3)                  1.0780         0.376269   
     17. B(H  16,C   4)                  1.0785         0.375584   
     18. B(H  17,C   7)                  1.0890         0.361463   
     19. B(H  18,C   7)                  1.0954         0.353042   
     20. B(H  19,C   7)                  1.0954         0.352965   
     21. B(H  20,C  10)                  1.0891         0.361290   
     22. B(H  21,C  10)                  1.0956         0.352817   
     23. B(H  22,C  10)                  1.0956         0.352787   
     24. B(H  23,C  11)                  1.0793         0.374597   
     25. A(C   1,C   0,H  12)          121.2779         0.370427   
     26. A(H  12,C   0,H  13)          115.9111         0.295469   
     27. A(C   1,C   0,H  13)          122.8110         0.370496   
     28. A(C   0,C   1,C   2)          126.9735         0.433996   
     29. A(C   0,C   1,H  14)          118.5740         0.368723   
     30. A(C   2,C   1,H  14)          114.4525         0.340513   
     31. A(C   3,C   2,C  11)          118.1578         0.432605   
     32. A(C   1,C   2,C   3)          123.3940         0.417209   
     33. A(C   1,C   2,C  11)          118.4482         0.413755   
     34. A(C   4,C   3,H  15)          118.7415         0.357086   
     35. A(C   2,C   3,H  15)          120.3411         0.356391   
     36. A(C   2,C   3,C   4)          120.9173         0.437161   
     37. A(C   5,C   4,H  16)          120.2716         0.356993   
     38. A(C   3,C   4,H  16)          118.8201         0.356975   
     39. A(C   3,C   4,C   5)          120.9083         0.438088   
     40. A(C   4,C   5,C   8)          118.9411         0.430011   
     41. A(C   4,C   5,O   6)          125.4276         0.433439   
     42. A(O   6,C   5,C   8)          115.6312         0.425447   
     43. A(C   5,O   6,C   7)          118.3659         0.416766   
     44. A(H  18,C   7,H  19)          109.3013         0.289029   
     45. A(O   6,C   7,H  19)          111.6859         0.340460   
     46. A(O   6,C   7,H  18)          111.6644         0.340473   
     47. A(O   6,C   7,H  17)          105.6258         0.341818   
     48. A(H  17,C   7,H  18)          109.2347         0.290109   
     49. A(H  17,C   7,H  19)          109.2283         0.290099   
     50. A(O   9,C   8,C  11)          125.2204         0.434188   
     51. A(C   5,C   8,C  11)          119.4185         0.431405   
     52. A(C   5,C   8,O   9)          115.3611         0.424806   
     53. A(C   8,O   9,C  10)          118.3297         0.416245   
     54. A(O   9,C  10,H  20)          105.6293         0.341871   
     55. A(H  21,C  10,H  22)          109.3070         0.288977   
     56. A(H  20,C  10,H  22)          109.2191         0.290054   
     57. A(O   9,C  10,H  22)          111.6770         0.340512   
     58. A(H  20,C  10,H  21)          109.2040         0.290058   
     59. A(O   9,C  10,H  21)          111.7021         0.340516   
     60. A(C   2,C  11,C   8)          121.6569         0.434928   
     61. A(C   8,C  11,H  23)          120.0748         0.357928   
     62. A(C   2,C  11,H  23)          118.2683         0.353311   
     63. D(H  14,C   1,C   0,H  12)      0.1357         0.044197   
     64. D(H  14,C   1,C   0,H  13)   -179.9019         0.044197   
     65. D(C   2,C   1,C   0,H  12)   -179.9608         0.044197   
     66. D(C   2,C   1,C   0,H  13)      0.0016         0.044197   
     67. D(C   3,C   2,C   1,H  14)   -178.5652         0.016350   
     68. D(C   3,C   2,C   1,C   0)      1.5279         0.016350   
     69. D(C  11,C   2,C   1,C   0)   -178.5078         0.016350   
     70. D(C  11,C   2,C   1,H  14)      1.3991         0.016350   
     71. D(H  15,C   3,C   2,C  11)   -179.8539         0.027402   
     72. D(C   4,C   3,C   2,C   1)   -179.9916         0.027402   
     73. D(H  15,C   3,C   2,C   1)      0.1106         0.027402   
     74. D(C   4,C   3,C   2,C  11)      0.0440         0.027402   
     75. D(H  16,C   4,C   3,C   2)   -179.9621         0.028079   
     76. D(C   5,C   4,C   3,H  15)    179.9071         0.028079   
     77. D(C   5,C   4,C   3,C   2)      0.0076         0.028079   
     78. D(H  16,C   4,C   3,H  15)     -0.0627         0.028079   
     79. D(C   8,C   5,C   4,H  16)    179.9443         0.028097   
     80. D(C   8,C   5,C   4,C   3)     -0.0250         0.028097   
     81. D(O   6,C   5,C   4,H  16)     -0.0146         0.028097   
     82. D(O   6,C   5,C   4,C   3)   -179.9839         0.028097   
     83. D(C   7,O   6,C   5,C   8)   -179.6963         0.028368   
     84. D(C   7,O   6,C   5,C   4)      0.2638         0.028368   
     85. D(H  19,C   7,O   6,C   5)    -61.5513         0.022301   
     86. D(H  18,C   7,O   6,C   5)     61.1808         0.022301   
     87. D(H  17,C   7,O   6,C   5)    179.8128         0.022301   
     88. D(C  11,C   8,C   5,O   6)    179.9526         0.022573   
     89. D(C  11,C   8,C   5,C   4)     -0.0103         0.022573   
     90. D(O   9,C   8,C   5,O   6)     -0.0175         0.022573   
     91. D(O   9,C   8,C   5,C   4)   -179.9803         0.022573   
     92. D(C  10,O   9,C   8,C  11)     -0.2888         0.027859   
     93. D(C  10,O   9,C   8,C   5)    179.6792         0.027859   
     94. D(H  22,C  10,O   9,C   8)    -61.1768         0.022367   
     95. D(H  21,C  10,O   9,C   8)     61.5837         0.022367   
     96. D(H  20,C  10,O   9,C   8)   -179.7990         0.022367   
     97. D(H  23,C  11,C   8,O   9)     -0.0315         0.029199   
     98. D(H  23,C  11,C   8,C   5)   -179.9984         0.029199   
     99. D(C   2,C  11,C   8,O   9)   -179.9693         0.029199   
    100. D(C   2,C  11,C   8,C   5)      0.0638         0.029199   
    101. D(H  23,C  11,C   2,C   3)    179.9808         0.024820   
    102. D(H  23,C  11,C   2,C   1)      0.0146         0.024820   
    103. D(C   8,C  11,C   2,C   3)     -0.0802         0.024820   
    104. D(C   8,C  11,C   2,C   1)    179.9536         0.024820   
    -----------------------------------------------------------------

Number of atoms                         .... 24
Number of degrees of freedom            .... 104

         *************************************************************
         *                GEOMETRY OPTIMIZATION CYCLE   1            *
         *************************************************************
---------------------------------
CARTESIAN COORDINATES (ANGSTROEM)
---------------------------------
  C      4.011700    0.008200    0.348600
  C      2.895600    0.698400    0.142900
  C      1.536700    0.176300    0.108900
  C      1.225600   -1.159200    0.325700
  C     -0.086600   -1.600600    0.281100
  C     -1.124400   -0.721600    0.018800
  O     -2.442900   -1.054200   -0.046200
  C     -2.804900   -2.393800    0.172800
  C     -0.826100    0.641800   -0.204000
  O     -1.901700    1.441600   -0.454900
  C     -1.677100    2.809800   -0.678600
  C      0.486600    1.065300   -0.155300
  H      4.974000    0.490700    0.355400
  H      4.017300   -1.054600    0.517900
  H      2.969900    1.767000   -0.022100
  H      2.005900   -1.873200    0.534300
  H     -0.289900   -2.645400    0.455200
  H     -3.889200   -2.424100    0.076700
  H     -2.522000   -2.730300    1.176100
  H     -2.357900   -3.060900   -0.572300
  H     -2.660800    3.244300   -0.850900
  H     -1.049200    2.978400   -1.560400
  H     -1.217200    3.291900    0.191100
  H      0.726400    2.104000   -0.323800

----------------------------
CARTESIAN COORDINATES (A.U.)
----------------------------
  NO LB      ZA    FRAG     MASS         X           Y           Z
   0 C     6.0000    0    12.011    7.581014    0.015496    0.658759
   1 C     6.0000    0    12.011    5.471891    1.319785    0.270042
   2 C     6.0000    0    12.011    2.903942    0.333159    0.205791
   3 C     6.0000    0    12.011    2.316048   -2.190571    0.615484
   4 C     6.0000    0    12.011   -0.163650   -3.024696    0.531202
   5 C     6.0000    0    12.011   -2.124808   -1.363626    0.035527
   6 O     8.0000    0    15.999   -4.616412   -1.992149   -0.087305
   7 C     6.0000    0    12.011   -5.300493   -4.523626    0.326545
   8 C     6.0000    0    12.011   -1.561103    1.212826   -0.385504
   9 O     8.0000    0    15.999   -3.593692    2.724229   -0.859636
  10 C     6.0000    0    12.011   -3.169260    5.309752   -1.282368
  11 C     6.0000    0    12.011    0.919541    2.013125   -0.293474
  12 H     1.0000    0     1.008    9.399498    0.927289    0.671609
  13 H     1.0000    0     1.008    7.591597   -1.992905    0.978689
  14 H     1.0000    0     1.008    5.612298    3.339146   -0.041763
  15 H     1.0000    0     1.008    3.790602   -3.539835    1.009681
  16 H     1.0000    0     1.008   -0.547832   -4.999082    0.860203
  17 H     1.0000    0     1.008   -7.349523   -4.580885    0.144942
  18 H     1.0000    0     1.008   -4.765889   -5.159519    2.222507
  19 H     1.0000    0     1.008   -4.455785   -5.784263   -1.081490
  20 H     1.0000    0     1.008   -5.028183    6.130838   -1.607968
  21 H     1.0000    0     1.008   -1.982701    5.628360   -2.948729
  22 H     1.0000    0     1.008   -2.300175    6.220789    0.361127
  23 H     1.0000    0     1.008    1.372697    3.975984   -0.611893

--------------------------------
INTERNAL COORDINATES (ANGSTROEM)
--------------------------------
 C      0   0   0     0.000000000000     0.00000000     0.00000000
 C      1   0   0     1.328295050055     0.00000000     0.00000000
 C      2   1   0     1.456143406399   126.97349254     0.00000000
 C      3   2   1     1.388288766792   123.39403046     1.52786448
 C      4   3   2     1.385168567359   120.91732298   180.00837693
 C      5   4   3     1.385088852746   120.90829656     0.00000000
 O      6   5   4     1.361355945372   125.42764356   180.01611483
 C      7   6   5     1.404824957068   118.36586053     0.26378068
 C      6   5   4     1.413323137149   118.94113911   359.97503537
 O      9   6   5     1.363651792064   115.36110612   180.01967677
 C     10   9   6     1.404442270084   118.32967745   179.67923443
 C      9   6   5     1.380183042209   119.41851716     0.00000000
 H      1   2   3     1.076509999954   121.27786915   180.03919548
 H      1   2   3     1.076214518579   122.81103274     0.00000000
 H      2   1   3     1.083813383383   118.57397126   180.09646392
 H      4   3   2     1.078043621566   120.34106847     0.11055351
 H      5   4   3     1.078540096612   118.82011102   180.03787671
 H      8   7   6     1.088971895872   105.62578376   179.81284788
 H      8   7   6     1.095388310144   111.66439242    61.18081332
 H      8   7   6     1.095447588888   111.68591558   298.44870372
 H     11  10   9     1.089102029197   105.62927784   180.20103317
 H     11  10   9     1.095561778267   111.70206252    61.58365478
 H     11  10   9     1.095585008112   111.67702769   298.82320303
 H     12   9   6     1.079256216104   120.07479644   180.00162908

---------------------------
INTERNAL COORDINATES (A.U.)
---------------------------
 C      0   0   0     0.000000000000     0.00000000     0.00000000
 C      1   0   0     2.510113869647     0.00000000     0.00000000
 C      2   1   0     2.751712249810   126.97349254     0.00000000
 C      3   2   1     2.623485564036   123.39403046     1.52786448
 C      4   3   2     2.617589241625   120.91732298   180.00837693
 C      5   4   3     2.617438602836   120.90829656     0.00000000
 O      6   5   4     2.572589907539   125.42764356   180.01611483
 C      7   6   5     2.654734434955   118.36586053     0.26378068
 C      6   5   4     2.670793667946   118.94113911   359.97503537
 O      9   6   5     2.576928429032   115.36110612   180.01967677
 C     10   9   6     2.654011261362   118.32967745   179.67923443
 C      9   6   5     2.608167964456   119.41851716     0.00000000
 H      1   2   3     2.034309080340   121.27786915   180.03919548
 H      1   2   3     2.033750701464   122.81103274     0.00000000
 H      2   1   3     2.048110474872   118.57397126   180.09646392
 H      4   3   2     2.037207205181   120.34106847     0.11055351
 H      5   4   3     2.038145407050   118.82011102   180.03787671
 H      8   7   6     2.057858650736   105.62578376   179.81284788
 H      8   7   6     2.069983916471   111.66439242    61.18081332
 H      8   7   6     2.070095937062   111.68591558   298.44870372
 H     11  10   9     2.058104567079   105.62927784   180.20103317
 H     11  10   9     2.070311723717   111.70206252    61.58365478
 H     11  10   9     2.070355621762   111.67702769   298.82320303
 H     12   9   6     2.039498676769   120.07479644   180.00162908

---------------------
BASIS SET INFORMATION
---------------------
There are 3 groups of distinct atoms

 Group   1 Type C   : 19s6p3d2f contracted to 5s4p3d2f pattern {88111/3111/111/11}
 Group   2 Type O   : 19s6p3d2f contracted to 5s4p3d2f pattern {88111/3111/111/11}
 Group   3 Type H   : 5s2p1d contracted to 3s2p1d pattern {311/11/1}

Atom   0C    basis set group =>   1
Atom   1C    basis set group =>   1
Atom   2C    basis set group =>   1
Atom   3C    basis set group =>   1
Atom   4C    basis set group =>   1
Atom   5C    basis set group =>   1
Atom   6O    basis set group =>   2
Atom   7C    basis set group =>   1
Atom   8C    basis set group =>   1
Atom   9O    basis set group =>   2
Atom  10C    basis set group =>   1
Atom  11C    basis set group =>   1
Atom  12H    basis set group =>   3
Atom  13H    basis set group =>   3
Atom  14H    basis set group =>   3
Atom  15H    basis set group =>   3
Atom  16H    basis set group =>   3
Atom  17H    basis set group =>   3
Atom  18H    basis set group =>   3
Atom  19H    basis set group =>   3
Atom  20H    basis set group =>   3
Atom  21H    basis set group =>   3
Atom  22H    basis set group =>   3
Atom  23H    basis set group =>   3
---------------------------------
AUXILIARY/J BASIS SET INFORMATION
---------------------------------
There are 3 groups of distinct atoms

 Group   1 Type C   : 10s7p5d2f1g contracted to 10s7p5d2f1g pattern {1111111111/1111111/11111/11/1}
 Group   2 Type O   : 10s7p5d2f1g contracted to 10s7p5d2f1g pattern {1111111111/1111111/11111/11/1}
 Group   3 Type H   : 4s3p2d1f contracted to 4s3p2d1f pattern {1111/111/11/1}

Atom   0C    basis set group =>   1
Atom   1C    basis set group =>   1
Atom   2C    basis set group =>   1
Atom   3C    basis set group =>   1
Atom   4C    basis set group =>   1
Atom   5C    basis set group =>   1
Atom   6O    basis set group =>   2
Atom   7C    basis set group =>   1
Atom   8C    basis set group =>   1
Atom   9O    basis set group =>   2
Atom  10C    basis set group =>   1
Atom  11C    basis set group =>   1
Atom  12H    basis set group =>   3
Atom  13H    basis set group =>   3
Atom  14H    basis set group =>   3
Atom  15H    basis set group =>   3
Atom  16H    basis set group =>   3
Atom  17H    basis set group =>   3
Atom  18H    basis set group =>   3
Atom  19H    basis set group =>   3
Atom  20H    basis set group =>   3
Atom  21H    basis set group =>   3
Atom  22H    basis set group =>   3
Atom  23H    basis set group =>   3
---------------------------------
AUXILIARY/C BASIS SET INFORMATION
---------------------------------
There are 3 groups of distinct atoms

 Group   1 Type C   : 9s7p6d4f2g contracted to 9s7p6d4f2g pattern {111111111/1111111/111111/1111/11}
 Group   2 Type O   : 9s7p6d4f2g contracted to 9s7p6d4f2g pattern {111111111/1111111/111111/1111/11}
 Group   3 Type H   : 4s3p2d1f contracted to 4s3p2d1f pattern {1111/111/11/1}

Atom   0C    basis set group =>   1
Atom   1C    basis set group =>   1
Atom   2C    basis set group =>   1
Atom   3C    basis set group =>   1
Atom   4C    basis set group =>   1
Atom   5C    basis set group =>   1
Atom   6O    basis set group =>   2
Atom   7C    basis set group =>   1
Atom   8C    basis set group =>   1
Atom   9O    basis set group =>   2
Atom  10C    basis set group =>   1
Atom  11C    basis set group =>   1
Atom  12H    basis set group =>   3
Atom  13H    basis set group =>   3
Atom  14H    basis set group =>   3
Atom  15H    basis set group =>   3
Atom  16H    basis set group =>   3
Atom  17H    basis set group =>   3
Atom  18H    basis set group =>   3
Atom  19H    basis set group =>   3
Atom  20H    basis set group =>   3
Atom  21H    basis set group =>   3
Atom  22H    basis set group =>   3
Atom  23H    basis set group =>   3


           ************************************************************
           *        Program running with 4 parallel MPI-processes     *
           *              working on a common directory               *
           ************************************************************
------------------------------------------------------------------------------
                           ORCA GTO INTEGRAL CALCULATION
                           -- RI-GTO INTEGRALS CHOSEN --
------------------------------------------------------------------------------
------------------------------------------------------------------------------
                   ___                                                        
                  /   \      - P O W E R E D   B Y -                         
                 /     \                                                     
                 |  |  |   _    _      __       _____    __    __             
                 |  |  |  | |  | |    /  \     |  _  \  |  |  /  |          
                  \  \/   | |  | |   /    \    | | | |  |  | /  /          
                 / \  \   | |__| |  /  /\  \   | |_| |  |  |/  /          
                |  |  |   |  __  | /  /__\  \  |    /   |      \           
                |  |  |   | |  | | |   __   |  |    \   |  |\   \          
                \     /   | |  | | |  |  |  |  | |\  \  |  | \   \       
                 \___/    |_|  |_| |__|  |__|  |_| \__\ |__|  \__/        
                                                                              
                      - O R C A' S   B I G   F R I E N D -                    
                                      &                                       
                       - I N T E G R A L  F E E D E R -                       
                                                                              
 v1 FN, 2020, v2 2021                                                         
------------------------------------------------------------------------------


Reading SHARK input file m062x-train-7.SHARKINP.tmp ... ok
----------------------
SHARK INTEGRAL PACKAGE
----------------------

Number of atoms                             ...     24
Number of basis functions                   ...    792
Number of shells                            ...    312
Maximum angular momentum                    ...      3
Integral batch strategy                     ... SHARK/LIBINT Hybrid
RI-J (if used) integral strategy            ... SPLIT-RIJ (Revised 2003 algorithm where possible)
Printlevel                                  ...      1
Contraction scheme used                     ... PARTIAL GENERAL contraction
Coulomb Range Separation                    ... NOT USED
Exchange Range Separation                   ... NOT USED
Finite Nucleus Model                        ... NOT USED
Auxiliary Coulomb fitting basis             ... AVAILABLE
   # of basis functions in Aux-J            ...   1308
   # of shells in Aux-J                     ...    420
   Maximum angular momentum in Aux-J        ...      4
Auxiliary J/K fitting basis                 ... NOT available
Auxiliary Correlation fitting basis         ... AVAILABLE
   # of basis functions in Aux-C            ...   1632
   # of shells in Aux-C                     ...    456
   Maximum angular momentum in Aux-C        ...      4
Auxiliary 'external' fitting basis          ... NOT available
Integral threshold                          ...     2.500000e-11
Primitive cut-off                           ...     2.500000e-12
Primitive pair pre-selection threshold      ...     2.500000e-12

Calculating pre-screening integrals         ... done (  0.1 sec) Dimension = 312
Calculating pre-screening integrals (ORCA)  ... done (  0.3 sec) Dimension = 240
Organizing shell pair data                  ... done (  0.4 sec)
Shell pair information
Total number of shell pairs                 ...     48828
Shell pairs after pre-screening             ...     36287
Total number of primitive shell pairs       ...     65052
Primitive shell pairs kept                  ...     43818
          la=0 lb=0:   8646 shell pairs
          la=1 lb=0:   9236 shell pairs
          la=1 lb=1:   2254 shell pairs
          la=2 lb=0:   6058 shell pairs
          la=2 lb=1:   2915 shell pairs
          la=2 lb=2:    995 shell pairs
          la=3 lb=0:   3316 shell pairs
          la=3 lb=1:   1558 shell pairs
          la=3 lb=2:   1023 shell pairs
          la=3 lb=3:    286 shell pairs

Calculating one electron integrals          ... done (  0.1 sec)
Calculating RI/J V-Matrix + Cholesky decomp.... done (  0.1 sec)
Calculating RI/C V-Matrix + Cholesky decomp.... done (  0.2 sec)
Calculating Nuclear repulsion               ... done (  0.0 sec) ENN=    678.477881099406 Eh

SHARK setup successfully completed in   1.7 seconds

Maximum memory used throughout the entire GTOINT-calculation: 55.2 MB


           ************************************************************
           *        Program running with 4 parallel MPI-processes     *
           *              working on a common directory               *
           ************************************************************
-------------------------------------------------------------------------------
                                 ORCA SCF
-------------------------------------------------------------------------------

------------
SCF SETTINGS
------------
Hamiltonian:
 Density Functional     Method          .... DFT(GTOs)
 Exchange Functional    Exchange        .... M062X
 Correlation Functional Correlation     .... M062X
 Gradients option       PostSCFGGA      .... off
 Hybrid DFT is turned on
   Fraction HF Exchange ScalHFX         ....  0.540000
   Scaling of DF-GGA-X  ScalDFX         ....  0.460000
   Scaling of DF-GGA-C  ScalDFC         ....  1.000000
   Scaling of DF-LDA-C  ScalLDAC        ....  1.000000
   Perturbative correction              ....  0.000000
   Density functional embedding theory  .... OFF
 RI-approximation to the Coulomb term is turned on
   Number of AuxJ basis functions       .... 1308
   RIJ-COSX (HFX calculated with COS-X)).... on


General Settings:
 Integral files         IntName         .... m062x-train-7
 Hartree-Fock type      HFTyp           .... RHF
 Total Charge           Charge          ....    0
 Multiplicity           Mult            ....    1
 Number of Electrons    NEL             ....   88
 Basis Dimension        Dim             ....  720
 Nuclear Repulsion      ENuc            ....    678.4778810994 Eh

Convergence Acceleration:
 DIIS                   CNVDIIS         .... on
   Start iteration      DIISMaxIt       ....    12
   Startup error        DIISStart       ....  0.200000
   # of expansion vecs  DIISMaxEq       ....     5
   Bias factor          DIISBfac        ....   1.050
   Max. coefficient     DIISMaxC        ....  10.000
 Trust-Rad. Augm. Hess. CNVTRAH         .... auto
   Auto Start mean grad. ratio tolernc. ....  1.125000
   Auto Start start iteration           ....    20
   Auto Start num. interpolation iter.  ....    10
   Max. Number of Micro iterations      ....    16
   Max. Number of Macro iterations      .... Maxiter - #DIIS iter
   Number of Davidson start vectors     ....     2
   Converg. threshold I  (grad. norm)   ....   1.000e-05
   Converg. threshold II (energy diff.) ....   1.000e-08
   Grad. Scal. Fac. for Micro threshold ....   0.100
   Minimum threshold for Micro iter.    ....   0.010
   NR start threshold (gradient norm)   ....   0.001
   Initial trust radius                 ....   0.400
   Minimum AH scaling param. (alpha)    ....   1.000
   Maximum AH scaling param. (alpha)    .... 1000.000
   Orbital update algorithm             .... Taylor
   White noise on init. David. guess    .... on
   Maximum white noise                  ....   0.010
   Quad. conv. algorithm                .... NR
 SOSCF                  CNVSOSCF        .... on
   Start iteration      SOSCFMaxIt      ....   150
   Startup grad/error   SOSCFStart      ....  0.003300
 Level Shifting         CNVShift        .... on
   Level shift para.    LevelShift      ....    0.2500
   Turn off err/grad.   ShiftErr        ....    0.0010
 Zerner damping         CNVZerner       .... off
 Static damping         CNVDamp         .... on
   Fraction old density DampFac         ....    0.7000
   Max. Damping (<1)    DampMax         ....    0.9800
   Min. Damping (>=0)   DampMin         ....    0.0000
   Turn off err/grad.   DampErr         ....    0.1000
 Fernandez-Rico         CNVRico         .... off

SCF Procedure:
 Maximum # iterations   MaxIter         ....   125
 SCF integral mode      SCFMode         .... Direct
   Integral package                     .... SHARK and LIBINT hybrid scheme
 Reset frequency        DirectResetFreq ....    20
 Integral Threshold     Thresh          ....  2.500e-11 Eh
 Primitive CutOff       TCut            ....  2.500e-12 Eh

Convergence Tolerance:
 Convergence Check Mode ConvCheckMode   .... Total+1el-Energy
 Convergence forced     ConvForced      .... 0
 Energy Change          TolE            ....  1.000e-08 Eh
 1-El. energy change                    ....  1.000e-05 Eh
 Orbital Gradient       TolG            ....  1.000e-05
 Orbital Rotation angle TolX            ....  1.000e-05
 DIIS Error             TolErr          ....  5.000e-07


Diagonalization of the overlap matrix:
Smallest eigenvalue                        ... 7.034e-07
Time for diagonalization                   ...    0.138 sec
Threshold for overlap eigenvalues          ... 1.000e-08
Number of eigenvalues below threshold      ... 0
Time for construction of square roots      ...    0.071 sec
Total time needed                          ...    0.213 sec

Time for model grid setup =    0.288 sec

------------------------------
INITIAL GUESS: MODEL POTENTIAL
------------------------------
Loading Hartree-Fock densities                     ... done
Calculating cut-offs                               ... done
Initializing the effective Hamiltonian             ... done
Setting up the integral package (SHARK)            ... done
Starting the Coulomb interaction                   ... done (   0.8 sec)
Reading the grid                                   ... done
Mapping shells                                     ... done
Starting the XC term evaluation                    ... done (   0.9 sec)
  promolecular density results
     # of electrons  =     87.996040858
     EX              =    -71.025303085
     EC              =     -2.926749590
     EX+EC           =    -73.952052676
Transforming the Hamiltonian                       ... done (   0.1 sec)
Diagonalizing the Hamiltonian                      ... done (   0.1 sec)
Back transforming the eigenvectors                 ... done (   0.0 sec)
Now organizing SCF variables                       ... done
                      ------------------
                      INITIAL GUESS DONE (   2.2 sec)
                      ------------------
-------------------
DFT GRID GENERATION
-------------------

General Integration Accuracy     IntAcc      ... 4.959
Radial Grid Type                 RadialGrid  ... OptM3 with GC (2021)
Angular Grid (max. ang.)         AngularGrid ... 6 (Lebedev-590)
Angular grid pruning method      GridPruning ... 4 (adaptive)
Weight generation scheme         WeightScheme... Becke
Basis function cutoff            BFCut       ... 1.0000e-11
Integration weight cutoff        WCut        ... 1.0000e-14
Angular grids for H and He will be reduced by one unit
Partially contracted basis set               ... off
Rotationally invariant grid construction     ... off

Total number of grid points                  ...   281104
Total number of batches                      ...     4405
Average number of points per batch           ...       63
Average number of grid points per atom       ...    11713
Time for grid setup =    4.339 sec

--------------------
COSX GRID GENERATION
--------------------

GRIDX 1
-------
General Integration Accuracy     IntAcc      ... 4.020
Radial Grid Type                 RadialGrid  ... OptM3 with GC (2021)
Angular Grid (max. ang.)         AngularGrid ... 2 (Lebedev-110)
Angular grid pruning method      GridPruning ... 4 (adaptive)
Weight generation scheme         WeightScheme... Becke
Basis function cutoff            BFCut       ... 1.0000e-11
Integration weight cutoff        WCut        ... 1.0000e-14
Angular grids for H and He will be reduced by one unit
Partially contracted basis set               ... on
Rotationally invariant grid construction     ... off

Total number of grid points                  ...    33856
Total number of batches                      ...      543
Average number of points per batch           ...       62
Average number of grid points per atom       ...     1411
UseSFitting                                  ... on

GRIDX 2
-------
General Integration Accuracy     IntAcc      ... 4.338
Radial Grid Type                 RadialGrid  ... OptM3 with GC (2021)
Angular Grid (max. ang.)         AngularGrid ... 3 (Lebedev-194)
Angular grid pruning method      GridPruning ... 4 (adaptive)
Weight generation scheme         WeightScheme... Becke
Basis function cutoff            BFCut       ... 1.0000e-11
Integration weight cutoff        WCut        ... 1.0000e-14
Angular grids for H and He will be reduced by one unit
Partially contracted basis set               ... on
Rotationally invariant grid construction     ... off

Total number of grid points                  ...    73054
Total number of batches                      ...     1153
Average number of points per batch           ...       63
Average number of grid points per atom       ...     3044
UseSFitting                                  ... on

GRIDX 3
-------
General Integration Accuracy     IntAcc      ... 4.871
Radial Grid Type                 RadialGrid  ... OptM3 with GC (2021)
Angular Grid (max. ang.)         AngularGrid ... 4 (Lebedev-302)
Angular grid pruning method      GridPruning ... 4 (adaptive)
Weight generation scheme         WeightScheme... Becke
Basis function cutoff            BFCut       ... 1.0000e-11
Integration weight cutoff        WCut        ... 1.0000e-14
Angular grids for H and He will be reduced by one unit
Partially contracted basis set               ... on
Rotationally invariant grid construction     ... off

Total number of grid points                  ...   137208
Total number of batches                      ...     2157
Average number of points per batch           ...       63
Average number of grid points per atom       ...     5717
UseSFitting                                  ... on

Time for X-Grid setup             =    4.403 sec


--------------------
CPCM SOLVATION MODEL
--------------------
CPCM parameters:
  Epsilon                                         ...       2.0165
  Refrac                                          ...       1.4266
  Rsolv                                           ...       1.3000
  Surface type                                    ... GAUSSIAN VDW
  Epsilon function type                           ...         CPCM
Solvent:                                     ... CYCLOHEXANE
SMD-CDS solvent descriptors:
  Soln                                       ...    1.4266
  Soln25                                     ...    1.4235
  Sola                                       ...    0.0000
  Solb                                       ...    0.0000
  Solg                                       ...   35.4800
  Solc                                       ...    0.0000
  Solh                                       ...    0.0000
Radii:
 Radius for C  used is    3.4960 Bohr (=   1.8500 Ang.)
 Radius for O  used is    4.3350 Bohr (=   2.2940 Ang.)
 Radius for H  used is    2.2677 Bohr (=   1.2000 Ang.)
Calculating surface                               ...        done! (  0.0s)
GEPOL surface points                              ...         1353
GEPOL Volume                                      ...    1335.3336
GEPOL Surface-area                                ...     750.0000
Calculating surface distance matrix               ...        done! (  0.0s)
Performing Cholesky decomposition & store         ...        done! (  0.1s)
Overall time for CPCM initialization              ...                 0.1s
 re-compute Schwartz prescreening matrix in partically contracted basis (1) ...done (   0.140 sec)
--------------
SCF ITERATIONS
--------------
ITER       Energy         Delta-E        Max-DP      RMS-DP      [F,P]     Damp
               ***  Starting incremental Fock matrix formation  ***
  0   -538.3754481331   0.000000000000 0.09163496  0.00148089  0.1726483 0.7000
  1   -538.4945175951  -0.119069461948 0.08833888  0.00120046  0.1003666 0.7000
                               ***Turning on DIIS***
  2   -538.5558447659  -0.061327170873 0.19427026  0.00276027  0.0483333 0.0000
  3   -538.6524241233  -0.096579357369 0.06650270  0.00071569  0.0457673 0.0000
  4   -538.6682896432  -0.015865519867 0.02805527  0.00019790  0.0058956 0.0000
                      *** Initiating the SOSCF procedure ***
                           *** Shutting down DIIS ***
                      *** Re-Reading the Fockian *** 
                      *** Removing any level shift *** 
ITER      Energy       Delta-E        Grad      Rot      Max-DP    RMS-DP
  5   -538.66871424  -0.0004245967  0.000591  0.000591  0.005445  0.000051
               *** Restarting incremental Fock matrix formation ***
  6   -538.66877751  -0.0000632705  0.000351  0.001428  0.002378  0.000055
  7   -538.66878586  -0.0000083512  0.000181  0.001160  0.002210  0.000030
  8   -538.66878801  -0.0000021480  0.000114  0.000304  0.000966  0.000019
  9   -538.66878876  -0.0000007521  0.000016  0.000044  0.003115  0.000029
 10   -538.66878880  -0.0000000385  0.000013  0.000035  0.001543  0.000013
 11   -538.66878882  -0.0000000173  0.000005  0.000017  0.001116  0.000010
 12   -538.66878882  -0.0000000048  0.000003  0.000005  0.000447  0.000006
                  ***Gradient check signals convergence***
              ***Rediagonalizing the Fockian in SOSCF/NRSCF***

               *****************************************************
               *                     SUCCESS                       *
               *           SCF CONVERGED AFTER  13 CYCLES          *
               *****************************************************

Old exchange energy                            =    -39.207505123 Eh
New exchange energy                            =    -39.207501826 Eh
Exchange energy change after final integration =      0.000003297 Eh
Total energy after final integration           =   -538.668785509 Eh
Final COS-X integration done in                =    82.603 sec

SMD CDS free energy correction energy :                -2.58603     Kcal/mol
Total Energy after SMD CDS correction =              -538.672906605 Eh

----------------
TOTAL SCF ENERGY
----------------

Total Energy       :         -538.67290660 Eh          -14658.03499 eV

Components:
Nuclear Repulsion  :          678.47788110 Eh           18462.32175 eV
Electronic Energy  :        -1217.15078770 Eh          -33120.35674 eV
One Electron Energy:        -2075.99106925 Eh          -56490.58892 eV
Two Electron Energy:          858.84028154 Eh           23370.23218 eV
Max COSX asymmetry :            0.00002020 Eh               0.00055 eV
CPCM Dielectric    :           -0.00681800 Eh              -0.18553 eV
SMD CDS (Gcds)     :           -0.00412110 Eh              -0.11214 eV

Virial components:
Potential Energy   :        -1074.46029514 Eh          -29237.55104 eV
Kinetic Energy     :          535.78738854 Eh           14579.51605 eV
Virial Ratio       :            2.00538557


DFT components:
N(Alpha)           :       44.000002519302 electrons
N(Beta)            :       44.000002519302 electrons
N(Total)           :       88.000005038603 electrons
E(XC)              :      -36.585467653686 Eh       
DFET-embed. en.    :        0.000000000000 Eh       
CPCM Solvation Model Properties:
Surface-charge          :           -0.04775118
Charge-correction       :            0.00007508 Eh               0.00204 eV
Free-energy (cav+disp)  :           -0.00412110 Eh              -0.11214 eV

---------------
SCF CONVERGENCE
---------------

  Last Energy change         ...    1.6408e-08  Tolerance :   1.0000e-08
  Last MAX-Density change    ...    3.1086e-15  Tolerance :   1.0000e-07
  Last RMS-Density change    ...    1.5904e-17  Tolerance :   5.0000e-09
  Last Orbital Gradient      ...    4.8044e-07  Tolerance :   1.0000e-05
  Last Orbital Rotation      ...    2.1448e-06  Tolerance :   1.0000e-05

             **** THE GBW FILE WAS UPDATED (m062x-train-7.gbw) ****
             **** DENSITY m062x-train-7.scfp WAS UPDATED ****
             **** ENERGY FILE WAS UPDATED (m062x-train-7.en.tmp) ****
             **** THE GBW FILE WAS UPDATED (m062x-train-7.gbw) ****
             **** DENSITY m062x-train-7.scfp WAS UPDATED ****
----------------
ORBITAL ENERGIES
----------------

  NO   OCC          E(Eh)            E(eV) 
   0   2.0000     -19.655239      -534.8462 
   1   2.0000     -19.653871      -534.8090 
   2   2.0000     -10.603400      -288.5332 
   3   2.0000     -10.602345      -288.5045 
   4   2.0000     -10.583928      -288.0033 
   5   2.0000     -10.583329      -287.9870 
   6   2.0000     -10.545640      -286.9615 
   7   2.0000     -10.541955      -286.8612 
   8   2.0000     -10.540810      -286.8300 
   9   2.0000     -10.540082      -286.8102 
  10   2.0000     -10.536389      -286.7097 
  11   2.0000     -10.527540      -286.4689 
  12   2.0000      -1.203417       -32.7467 
  13   2.0000      -1.182024       -32.1645 
  14   2.0000      -0.967807       -26.3354 
  15   2.0000      -0.895140       -24.3580 
  16   2.0000      -0.854705       -23.2577 
  17   2.0000      -0.837775       -22.7970 
  18   2.0000      -0.796254       -21.6672 
  19   2.0000      -0.776481       -21.1291 
  20   2.0000      -0.704395       -19.1676 
  21   2.0000      -0.684581       -18.6284 
  22   2.0000      -0.640768       -17.4362 
  23   2.0000      -0.613286       -16.6884 
  24   2.0000      -0.584557       -15.9066 
  25   2.0000      -0.571643       -15.5552 
  26   2.0000      -0.558294       -15.1920 
  27   2.0000      -0.542995       -14.7756 
  28   2.0000      -0.539083       -14.6692 
  29   2.0000      -0.519058       -14.1243 
  30   2.0000      -0.509060       -13.8522 
  31   2.0000      -0.494222       -13.4485 
  32   2.0000      -0.474558       -12.9134 
  33   2.0000      -0.460440       -12.5292 
  34   2.0000      -0.450698       -12.2641 
  35   2.0000      -0.433277       -11.7901 
  36   2.0000      -0.418432       -11.3861 
  37   2.0000      -0.410128       -11.1602 
  38   2.0000      -0.393900       -10.7186 
  39   2.0000      -0.393557       -10.7092 
  40   2.0000      -0.392308       -10.6753 
  41   2.0000      -0.342006        -9.3065 
  42   2.0000      -0.295964        -8.0536 
  43   2.0000      -0.252483        -6.8704 
  44   0.0000      -0.006333        -0.1723 
  45   0.0000       0.007103         0.1933 
  46   0.0000       0.008283         0.2254 
  47   0.0000       0.012941         0.3522 
  48   0.0000       0.024684         0.6717 
  49   0.0000       0.024932         0.6784 
  50   0.0000       0.026406         0.7186 
  51   0.0000       0.033182         0.9029 
  52   0.0000       0.033471         0.9108 
  53   0.0000       0.043780         1.1913 
  54   0.0000       0.049811         1.3554 
  55   0.0000       0.053416         1.4535 
  56   0.0000       0.053840         1.4651 
  57   0.0000       0.058956         1.6043 
  58   0.0000       0.064356         1.7512 
  59   0.0000       0.071566         1.9474 
  60   0.0000       0.077293         2.1032 
  61   0.0000       0.079133         2.1533 
  62   0.0000       0.086120         2.3434 
  63   0.0000       0.090043         2.4502 
  64   0.0000       0.095742         2.6053 
  65   0.0000       0.107651         2.9293 
  66   0.0000       0.110003         2.9933 
  67   0.0000       0.113124         3.0782 
  68   0.0000       0.114172         3.1068 
  69   0.0000       0.121371         3.3027 
  70   0.0000       0.124395         3.3850 
  71   0.0000       0.124564         3.3895 
  72   0.0000       0.130980         3.5641 
  73   0.0000       0.132958         3.6180 
  74   0.0000       0.139907         3.8071 
  75   0.0000       0.141740         3.8569 
  76   0.0000       0.145560         3.9609 
  77   0.0000       0.147649         4.0177 
  78   0.0000       0.154495         4.2040 
  79   0.0000       0.160965         4.3801 
  80   0.0000       0.161860         4.4044 
  81   0.0000       0.165804         4.5117 
  82   0.0000       0.172160         4.6847 
  83   0.0000       0.181540         4.9399 
  84   0.0000       0.185898         5.0585 
  85   0.0000       0.187329         5.0975 
  86   0.0000       0.191940         5.2229 
  87   0.0000       0.196379         5.3438 
  88   0.0000       0.198791         5.4094 
  89   0.0000       0.199163         5.4195 
  90   0.0000       0.206501         5.6192 
  91   0.0000       0.208961         5.6861 
  92   0.0000       0.212141         5.7726 
  93   0.0000       0.218119         5.9353 
  94   0.0000       0.219977         5.9859 
  95   0.0000       0.233548         6.3552 
  96   0.0000       0.233876         6.3641 
  97   0.0000       0.238652         6.4941 
  98   0.0000       0.243287         6.6202 
  99   0.0000       0.248680         6.7669 
 100   0.0000       0.257576         7.0090 
 101   0.0000       0.258643         7.0380 
 102   0.0000       0.263607         7.1731 
 103   0.0000       0.274674         7.4742 
 104   0.0000       0.278644         7.5823 
 105   0.0000       0.280741         7.6394 
 106   0.0000       0.282863         7.6971 
 107   0.0000       0.285624         7.7722 
 108   0.0000       0.288789         7.8584 
 109   0.0000       0.296471         8.0674 
 110   0.0000       0.297980         8.1084 
 111   0.0000       0.301183         8.1956 
 112   0.0000       0.306764         8.3475 
 113   0.0000       0.312789         8.5114 
 114   0.0000       0.316844         8.6218 
 115   0.0000       0.320152         8.7118 
 116   0.0000       0.321266         8.7421 
 117   0.0000       0.323912         8.8141 
 118   0.0000       0.331599         9.0233 
 119   0.0000       0.336208         9.1487 
 120   0.0000       0.347073         9.4443 
 121   0.0000       0.356144         9.6912 
 122   0.0000       0.361578         9.8390 
 123   0.0000       0.363738         9.8978 
 124   0.0000       0.368884        10.0379 
 125   0.0000       0.372943        10.1483 
 126   0.0000       0.373500        10.1634 
 127   0.0000       0.376653        10.2493 
 128   0.0000       0.389099        10.5879 
 129   0.0000       0.389696        10.6042 
 130   0.0000       0.392199        10.6723 
 131   0.0000       0.397884        10.8270 
 132   0.0000       0.404317        11.0020 
 133   0.0000       0.408314        11.1108 
 134   0.0000       0.413316        11.2469 
 135   0.0000       0.413707        11.2575 
 136   0.0000       0.415465        11.3054 
 137   0.0000       0.417341        11.3564 
 138   0.0000       0.422906        11.5079 
 139   0.0000       0.426058        11.5936 
 140   0.0000       0.433557        11.7977 
 141   0.0000       0.439736        11.9658 
 142   0.0000       0.440202        11.9785 
 143   0.0000       0.441705        12.0194 
 144   0.0000       0.448189        12.1958 
 145   0.0000       0.459680        12.5085 
 146   0.0000       0.466266        12.6878 
 147   0.0000       0.470596        12.8056 
 148   0.0000       0.472834        12.8665 
 149   0.0000       0.474959        12.9243 
 150   0.0000       0.476352        12.9622 
 151   0.0000       0.491001        13.3608 
 152   0.0000       0.500703        13.6248 
 153   0.0000       0.509830        13.8732 
 154   0.0000       0.514633        14.0039 
 155   0.0000       0.516890        14.0653 
 156   0.0000       0.519649        14.1404 
 157   0.0000       0.528503        14.3813 
 158   0.0000       0.529784        14.4161 
 159   0.0000       0.531526        14.4636 
 160   0.0000       0.533706        14.5229 
 161   0.0000       0.549731        14.9589 
 162   0.0000       0.554525        15.0894 
 163   0.0000       0.563321        15.3287 
 164   0.0000       0.576103        15.6766 
 165   0.0000       0.579856        15.7787 
 166   0.0000       0.588683        16.0189 
 167   0.0000       0.597942        16.2708 
 168   0.0000       0.612949        16.6792 
 169   0.0000       0.615584        16.7509 
 170   0.0000       0.621807        16.9202 
 171   0.0000       0.628168        17.0933 
 172   0.0000       0.630463        17.1558 
 173   0.0000       0.641321        17.4512 
 174   0.0000       0.643471        17.5097 
 175   0.0000       0.648385        17.6434 
 176   0.0000       0.652262        17.7490 
 177   0.0000       0.654887        17.8204 
 178   0.0000       0.674233        18.3468 
 179   0.0000       0.684277        18.6201 
 180   0.0000       0.688338        18.7306 
 181   0.0000       0.693638        18.8748 
 182   0.0000       0.696079        18.9413 
 183   0.0000       0.697770        18.9873 
 184   0.0000       0.707332        19.2475 
 185   0.0000       0.708317        19.2743 
 186   0.0000       0.711722        19.3669 
 187   0.0000       0.713561        19.4170 
 188   0.0000       0.721883        19.6434 
 189   0.0000       0.726628        19.7726 
 190   0.0000       0.734437        19.9851 
 191   0.0000       0.740811        20.1585 
 192   0.0000       0.746226        20.3058 
 193   0.0000       0.749011        20.3816 
 194   0.0000       0.757051        20.6004 
 195   0.0000       0.762612        20.7517 
 196   0.0000       0.769429        20.9372 
 197   0.0000       0.770781        20.9740 
 198   0.0000       0.773712        21.0538 
 199   0.0000       0.777926        21.1684 
 200   0.0000       0.781659        21.2700 
 201   0.0000       0.795472        21.6459 
 202   0.0000       0.797168        21.6920 
 203   0.0000       0.798493        21.7281 
 204   0.0000       0.806524        21.9466 
 205   0.0000       0.825983        22.4761 
 206   0.0000       0.827593        22.5199 
 207   0.0000       0.837144        22.7798 
 208   0.0000       0.841437        22.8967 
 209   0.0000       0.843718        22.9587 
 210   0.0000       0.846910        23.0456 
 211   0.0000       0.848643        23.0928 
 212   0.0000       0.857160        23.3245 
 213   0.0000       0.863462        23.4960 
 214   0.0000       0.868466        23.6322 
 215   0.0000       0.872855        23.7516 
 216   0.0000       0.880376        23.9563 
 217   0.0000       0.888171        24.1684 
 218   0.0000       0.893409        24.3109 
 219   0.0000       0.904177        24.6039 
 220   0.0000       0.908497        24.7215 
 221   0.0000       0.916244        24.9323 
 222   0.0000       0.928878        25.2761 
 223   0.0000       0.932915        25.3859 
 224   0.0000       0.941177        25.6107 
 225   0.0000       0.951712        25.8974 
 226   0.0000       0.953916        25.9574 
 227   0.0000       0.961195        26.1555 
 228   0.0000       0.965605        26.2754 
 229   0.0000       0.969304        26.3761 
 230   0.0000       0.981304        26.7026 
 231   0.0000       0.986206        26.8360 
 232   0.0000       0.986958        26.8565 
 233   0.0000       0.989636        26.9294 
 234   0.0000       0.999037        27.1852 
 235   0.0000       1.004060        27.3219 
 236   0.0000       1.011455        27.5231 
 237   0.0000       1.015643        27.6371 
 238   0.0000       1.025984        27.9184 
 239   0.0000       1.028877        27.9972 
 240   0.0000       1.034597        28.1528 
 241   0.0000       1.048014        28.5179 
 242   0.0000       1.057879        28.7863 
 243   0.0000       1.059700        28.8359 
 244   0.0000       1.067196        29.0399 
 245   0.0000       1.079491        29.3744 
 246   0.0000       1.082770        29.4637 
 247   0.0000       1.093498        29.7556 
 248   0.0000       1.108902        30.1748 
 249   0.0000       1.114681        30.3320 
 250   0.0000       1.134442        30.8697 
 251   0.0000       1.135762        30.9057 
 252   0.0000       1.141443        31.0602 
 253   0.0000       1.147262        31.2186 
 254   0.0000       1.155125        31.4325 
 255   0.0000       1.164920        31.6991 
 256   0.0000       1.172548        31.9067 
 257   0.0000       1.185920        32.2705 
 258   0.0000       1.186799        32.2944 
 259   0.0000       1.192668        32.4541 
 260   0.0000       1.194823        32.5128 
 261   0.0000       1.209976        32.9251 
 262   0.0000       1.224193        33.3120 
 263   0.0000       1.241527        33.7837 
 264   0.0000       1.241956        33.7954 
 265   0.0000       1.255680        34.1688 
 266   0.0000       1.256018        34.1780 
 267   0.0000       1.263205        34.3736 
 268   0.0000       1.277290        34.7568 
 269   0.0000       1.280707        34.8498 
 270   0.0000       1.288542        35.0630 
 271   0.0000       1.293619        35.2012 
 272   0.0000       1.300925        35.4000 
 273   0.0000       1.301524        35.4163 
 274   0.0000       1.308506        35.6063 
 275   0.0000       1.312467        35.7141 
 276   0.0000       1.319968        35.9182 
 277   0.0000       1.322669        35.9917 
 278   0.0000       1.331661        36.2363 
 279   0.0000       1.341361        36.5003 
 280   0.0000       1.349365        36.7181 
 281   0.0000       1.350972        36.7618 
 282   0.0000       1.355886        36.8955 
 283   0.0000       1.357744        36.9461 
 284   0.0000       1.366213        37.1765 
 285   0.0000       1.379961        37.5507 
 286   0.0000       1.391257        37.8580 
 287   0.0000       1.393528        37.9198 
 288   0.0000       1.404388        38.2153 
 289   0.0000       1.406384        38.2696 
 290   0.0000       1.411089        38.3977 
 291   0.0000       1.423049        38.7231 
 292   0.0000       1.428127        38.8613 
 293   0.0000       1.430476        38.9252 
 294   0.0000       1.441777        39.2327 
 295   0.0000       1.443681        39.2846 
 296   0.0000       1.451070        39.4856 
 297   0.0000       1.457645        39.6645 
 298   0.0000       1.466010        39.8922 
 299   0.0000       1.480240        40.2794 
 300   0.0000       1.489264        40.5249 
 301   0.0000       1.492603        40.6158 
 302   0.0000       1.501754        40.8648 
 303   0.0000       1.505113        40.9562 
 304   0.0000       1.506541        40.9951 
 305   0.0000       1.518172        41.3115 
 306   0.0000       1.519824        41.3565 
 307   0.0000       1.521682        41.4071 
 308   0.0000       1.528344        41.5884 
 309   0.0000       1.534976        41.7688 
 310   0.0000       1.537862        41.8473 
 311   0.0000       1.542431        41.9717 
 312   0.0000       1.552121        42.2354 
 313   0.0000       1.556063        42.3426 
 314   0.0000       1.571844        42.7720 
 315   0.0000       1.579741        42.9869 
 316   0.0000       1.593206        43.3533 
 317   0.0000       1.594834        43.3976 
 318   0.0000       1.601358        43.5752 
 319   0.0000       1.604656        43.6649 
 320   0.0000       1.615378        43.9567 
 321   0.0000       1.620502        44.0961 
 322   0.0000       1.632765        44.4298 
 323   0.0000       1.638155        44.5765 
 324   0.0000       1.644987        44.7624 
 325   0.0000       1.646187        44.7950 
 326   0.0000       1.660335        45.1800 
 327   0.0000       1.678207        45.6663 
 328   0.0000       1.681017        45.7428 
 329   0.0000       1.687749        45.9260 
 330   0.0000       1.691490        46.0278 
 331   0.0000       1.692950        46.0675 
 332   0.0000       1.699389        46.2427 
 333   0.0000       1.702296        46.3218 
 334   0.0000       1.715071        46.6694 
 335   0.0000       1.719010        46.7767 
 336   0.0000       1.725422        46.9511 
 337   0.0000       1.729927        47.0737 
[...]
Weight generation scheme         WeightScheme... Becke
Basis function cutoff            BFCut       ... 1.0000e-11
Integration weight cutoff        WCut        ... 1.0000e-14
Angular grids for H and He will be reduced by one unit
Partially contracted basis set               ... off
Rotationally invariant grid construction     ... off

Total number of grid points                  ...    43426
Total number of batches                      ...      689
Average number of points per batch           ...       63
Average number of grid points per atom       ...     1809

---------------------
COSX-INTEGRATION GRID
---------------------

General Integration Accuracy     IntAcc      ... 3.067
Radial Grid Type                 RadialGrid  ... OptM3 with GC (2021)
Angular Grid (max. ang.)         AngularGrid ... 2 (Lebedev-110)
Angular grid pruning method      GridPruning ... 4 (adaptive)
Weight generation scheme         WeightScheme... Becke
Basis function cutoff            BFCut       ... 1.0000e-11
Integration weight cutoff        WCut        ... 1.0000e-14
Angular grids for H and He will be reduced by one unit
Partially contracted basis set               ... on
Rotationally invariant grid construction     ... off

Total number of grid points                  ...    18779
Total number of batches                      ...      305
Average number of points per batch           ...       61
Average number of grid points per atom       ...      782

---------------
TD-DFT XC SETUP
---------------

DFT calculation                         ... on
Name of the grid file                   ... m062x-train-7_job2.grid_cis.tmp
Exchange functional (TD-DFT)            ... M062X
Correlation functional (TD-DFT)         ... M062X
Hybrid DFT                              ... on
   Exchange mixing (TD-DFT)             ...  0.540
   GGA exch. scaling (TD-DFT)           ...  0.460
   GGA corr. scaling (TD-DFT)           ...  1.000

Building densities             ... done
Calculating rho(r) on the grid ... done
Building xc-kernel on the grid ... done
                    *** TD-DFT CALCULATION INITIALIZED ***

---------------------------------
    LR-CPCM (non-equilibrium)
---------------------------------

Setting up LR-CPCM             ... done

------------------------
DAVIDSON-DIAGONALIZATION
------------------------

Dimension of the eigenvalue problem            ...  21632
Number of roots to be determined               ...     10
Maximum size of the expansion space            ...     70
Maximum number of iterations                   ...    100
Convergence tolerance for the residual         ...    1.000e-06
Convergence tolerance for the energies         ...    1.000e-06
Orthogonality tolerance                        ...    1.000e-14
Level Shift                                    ...    0.000e+00
Constructing the preconditioner                ... o.k.
Building the initial guess                     ... o.k.
Number of trial vectors determined             ...     70


                       ****Iteration    0****

   Memory handling for direct AO based CIS:
   Memory per vector needed      ...    23 MB
   Memory needed                 ...   711 MB
   Memory available              ...  4000 MB
   Number of vectors per batch   ...   168
   Number of batches             ...     1
   Time for densities:            0.200
   Time for RI-J (Direct):        6.288
   Time for K (COSX):            85.669
   Time for XC-Integration:      93.814
   Time for LR-CPCM terms:        8.628
   Time for Sigma-Completion:     0.188
   Size of expansion space: 30
   Lowest Energy          :     0.191752507889
   Maximum Energy change  :     0.238286200464 (vector 9)
   Maximum residual norm  :     0.011675338120

                       ****Iteration    1****
   Time for densities:            0.062
   Time for RI-J (Direct):        3.803
   Time for K (COSX):            30.287
   Time for XC-Integration:      34.105
   Time for LR-CPCM terms:        3.994
   Time for Sigma-Completion:     0.062
   Size of expansion space: 40
   Lowest Energy          :     0.175345297045
   Maximum Energy change  :     0.016407210844 (vector 0)
   Maximum residual norm  :     0.000817616226

                       ****Iteration    2****
   Time for densities:            0.061
   Time for RI-J (Direct):        3.826
   Time for K (COSX):            31.186
   Time for XC-Integration:      34.314
   Time for LR-CPCM terms:        4.016
   Time for Sigma-Completion:     0.063
   Size of expansion space: 50
   Lowest Energy          :     0.174493641556
   Maximum Energy change  :     0.001307216543 (vector 1)
   Maximum residual norm  :     0.000089669109

                       ****Iteration    3****
   Time for densities:            0.063
   Time for RI-J (Direct):        3.823
   Time for K (COSX):            31.659
   Time for XC-Integration:      34.797
   Time for LR-CPCM terms:        4.033
   Time for Sigma-Completion:     0.062
   Size of expansion space: 60
   Lowest Energy          :     0.174411359288
   Maximum Energy change  :     0.003973598256 (vector 9)
   Maximum residual norm  :     0.004779366212

                       ****Iteration    4****
   Time for densities:            0.062
   Time for RI-J (Direct):        3.841
   Time for K (COSX):            31.938
   Time for XC-Integration:      34.997
   Time for LR-CPCM terms:        4.015
   Time for Sigma-Completion:     0.063
   Size of expansion space: 70
   Lowest Energy          :     0.174404922090
   Maximum Energy change  :     0.004191866554 (vector 9)
   Maximum residual norm  :     0.000325095836
   Rebuilding the expansion space

                       ****Iteration    5****
   Time for densities:            0.121
   Time for RI-J (Direct):        4.989
   Time for K (COSX):            58.249
   Time for XC-Integration:      67.865
   Time for LR-CPCM terms:        6.291
   Time for Sigma-Completion:     0.095
   Size of expansion space: 20
   Lowest Energy          :     0.174404754662
   Maximum Energy change  :     0.000524007891 (vector 7)
   Maximum residual norm  :     0.000058165125

                       ****Iteration    6****
   Time for densities:            0.063
   Time for RI-J (Direct):        3.776
   Time for K (COSX):            31.811
   Time for XC-Integration:      35.624
   Time for LR-CPCM terms:        3.966
   Time for Sigma-Completion:     0.049
   Size of expansion space: 30
   Lowest Energy          :     0.174404709043
   Maximum Energy change  :     0.000093365389 (vector 7)
   Maximum residual norm  :     0.000010239543

                       ****Iteration    7****
   Time for densities:            0.060
   Time for RI-J (Direct):        3.763
   Time for K (COSX):            31.199
   Time for XC-Integration:      35.963
   Time for LR-CPCM terms:        3.954
   Time for Sigma-Completion:     0.049
   Size of expansion space: 40
   Lowest Energy          :     0.174404705893
   Maximum Energy change  :     0.000019675927 (vector 7)
   Maximum residual norm  :     0.000003044549

                       ****Iteration    8****
   Time for densities:            0.063
   Time for RI-J (Direct):        3.778
   Time for K (COSX):            30.624
   Time for XC-Integration:      36.535
   Time for LR-CPCM terms:        3.994
   Time for Sigma-Completion:     0.052
   Size of expansion space: 50
   Lowest Energy          :     0.174404705665
   Maximum Energy change  :     0.000007097553 (vector 7)
   Maximum residual norm  :     0.000000767188

      *** CONVERGENCE OF RESIDUAL NORM REACHED ***

Storing the converged CI vectors               ... m062x-train-7_job2.cis1

                 *** DAVIDSON DONE ***

Total time for solving the CIS problem:   854.208sec

------------------------------------
TD-DFT/TDA EXCITED STATES (SINGLETS)
------------------------------------

the weight of the individual excitations are printed if larger than 1.0e-02

STATE  1:  E=   0.174405 au      4.746 eV    38277.4 cm**-1 <S**2> =   0.000000
    43a ->  44a  :     0.954189 (c=  0.97682574)

STATE  2:  E=   0.182043 au      4.954 eV    39953.8 cm**-1 <S**2> =   0.000000
    42a ->  44a  :     0.311795 (c=  0.55838596)
    42a ->  59a  :     0.014770 (c=  0.12153131)
    43a ->  48a  :     0.318184 (c= -0.56407772)
    43a ->  49a  :     0.130629 (c= -0.36142649)
    43a ->  51a  :     0.143255 (c= -0.37848994)
    43a ->  52a  :     0.028132 (c= -0.16772475)

STATE  3:  E=   0.192876 au      5.248 eV    42331.5 cm**-1 <S**2> =   0.000000
    43a ->  45a  :     0.692774 (c=  0.83233053)
    43a ->  46a  :     0.012674 (c=  0.11257922)
    43a ->  48a  :     0.016430 (c= -0.12817802)
    43a ->  49a  :     0.047784 (c=  0.21859616)
    43a ->  51a  :     0.033418 (c= -0.18280457)
    43a ->  52a  :     0.142116 (c=  0.37698219)

STATE  4:  E=   0.203099 au      5.527 eV    44575.0 cm**-1 <S**2> =   0.000000
    43a ->  45a  :     0.013860 (c=  0.11772983)
    43a ->  46a  :     0.224073 (c=  0.47336305)
    43a ->  47a  :     0.535616 (c=  0.73185785)
    43a ->  49a  :     0.017255 (c= -0.13135989)
    43a ->  50a  :     0.093815 (c= -0.30629263)
    43a ->  52a  :     0.027028 (c= -0.16440208)

STATE  5:  E=   0.203640 au      5.541 eV    44693.8 cm**-1 <S**2> =   0.000000
    43a ->  45a  :     0.035755 (c= -0.18909050)
    43a ->  46a  :     0.661639 (c=  0.81341184)
    43a ->  47a  :     0.181253 (c= -0.42573808)
    43a ->  48a  :     0.016951 (c= -0.13019637)
    43a ->  49a  :     0.040938 (c=  0.20233044)
    43a ->  57a  :     0.017072 (c= -0.13066083)

STATE  6:  E=   0.215278 au      5.858 eV    47248.0 cm**-1 <S**2> =   0.000000
    43a ->  45a  :     0.163237 (c=  0.40402542)
    43a ->  47a  :     0.184024 (c= -0.42898015)
    43a ->  48a  :     0.115496 (c=  0.33984734)
    43a ->  49a  :     0.286427 (c= -0.53518909)
    43a ->  50a  :     0.073641 (c= -0.27136919)
    43a ->  51a  :     0.012564 (c=  0.11208910)
    43a ->  52a  :     0.067588 (c= -0.25997616)
    43a ->  58a  :     0.014081 (c= -0.11866377)
    43a ->  62a  :     0.011545 (c=  0.10744673)

STATE  7:  E=   0.218395 au      5.943 eV    47932.1 cm**-1 <S**2> =   0.000000
    42a ->  44a  :     0.014757 (c= -0.12147653)
    43a ->  48a  :     0.247872 (c= -0.49786734)
    43a ->  49a  :     0.091113 (c= -0.30184973)
    43a ->  51a  :     0.469264 (c=  0.68502846)
    43a ->  52a  :     0.090419 (c=  0.30069729)
    43a ->  55a  :     0.016731 (c= -0.12935028)
    43a ->  56a  :     0.011964 (c= -0.10937829)
    43a ->  63a  :     0.023677 (c= -0.15387345)

STATE  8:  E=   0.221382 au      6.024 eV    48587.8 cm**-1 <S**2> =   0.000000
    42a ->  44a  :     0.609777 (c= -0.78088223)
    43a ->  48a  :     0.112174 (c= -0.33492386)
    43a ->  49a  :     0.036123 (c= -0.19006063)
    43a ->  51a  :     0.135005 (c= -0.36743005)
    43a ->  52a  :     0.027809 (c= -0.16676151)

STATE  9:  E=   0.222747 au      6.061 eV    48887.3 cm**-1 <S**2> =   0.000000
    41a ->  46a  :     0.011682 (c= -0.10808377)
    42a ->  45a  :     0.055421 (c=  0.23541654)
    42a ->  46a  :     0.020487 (c= -0.14313452)
    43a ->  46a  :     0.045432 (c=  0.21314852)
    43a ->  48a  :     0.050164 (c=  0.22397237)
    43a ->  49a  :     0.138409 (c= -0.37203416)
    43a ->  50a  :     0.596477 (c=  0.77231926)
    43a ->  57a  :     0.013355 (c= -0.11556403)

STATE 10:  E=   0.225310 au      6.131 eV    49449.7 cm**-1 <S**2> =   0.000000
    41a ->  47a  :     0.012758 (c= -0.11295105)
    42a ->  47a  :     0.015710 (c= -0.12533935)
    43a ->  45a  :     0.058355 (c= -0.24156746)
    43a ->  48a  :     0.042308 (c=  0.20568799)
    43a ->  49a  :     0.120623 (c= -0.34730848)
    43a ->  50a  :     0.101811 (c= -0.31907793)
    43a ->  51a  :     0.082578 (c= -0.28736452)
    43a ->  52a  :     0.457711 (c=  0.67654318)
    43a ->  55a  :     0.017828 (c= -0.13351999)
    43a ->  56a  :     0.028790 (c=  0.16967519)
    43a ->  58a  :     0.021402 (c=  0.14629315)


-----------------------------
TD-DFT/TDA-EXCITATION SPECTRA
-----------------------------

Center of mass = ( -0.3036,  0.0087, -0.0425)
Calculating the Dipole integrals                  ... done
Transforming integrals                            ... done
Calculating the Linear Momentum integrals         ... done
Transforming integrals                            ... done
Calculating angular momentum integrals            ... done
Transforming integrals                            ... done

-----------------------------------------------------------------------------
         ABSORPTION SPECTRUM VIA TRANSITION ELECTRIC DIPOLE MOMENTS
-----------------------------------------------------------------------------
State   Energy    Wavelength  fosc         T2        TX        TY        TZ  
        (cm-1)      (nm)                 (au**2)    (au)      (au)      (au) 
-----------------------------------------------------------------------------
   1   38277.4    261.3   0.536231273   4.61196   1.97358   0.84661   0.01413
   2   39953.8    250.3   0.007755676   0.06391  -0.22065   0.11486  -0.04500
   3   42331.5    236.2   0.012756224   0.09921  -0.02666   0.05755   0.30852
   4   44575.0    224.3   0.000087041   0.00064   0.00119  -0.01431  -0.02089
   5   44693.8    223.7   0.001320349   0.00973   0.01408  -0.01441  -0.09654
   6   47248.0    211.6   0.000078156   0.00054  -0.01751  -0.00679  -0.01385
   7   47932.1    208.6   0.005935694   0.04077   0.10609   0.17072  -0.01913
   8   48587.8    205.8   1.025174248   6.94617  -2.38004   1.05087  -0.42102
   9   48887.3    204.6   0.006647753   0.04477  -0.14768   0.09608   0.11715
  10   49449.7    202.2   0.000380927   0.00254   0.01493   0.00211  -0.04805

-----------------------------------------------------------------------------
         ABSORPTION SPECTRUM VIA TRANSITION VELOCITY DIPOLE MOMENTS
-----------------------------------------------------------------------------
State   Energy    Wavelength   fosc        P2         PX        PY        PZ  
        (cm-1)      (nm)                 (au**2)     (au)      (au)      (au) 
-----------------------------------------------------------------------------
   1   38277.4    261.3   0.216075089   0.05653  -0.22043  -0.08900  -0.00372
   2   39953.8    250.3   0.000625940   0.00017  -0.01300   0.00002  -0.00140
   3   42331.5    236.2   0.004910254   0.00142   0.00305  -0.00663  -0.03698
   4   44575.0    224.3   0.001864883   0.00057   0.00205  -0.00242  -0.02362
   5   44693.8    223.7   0.004228773   0.00129  -0.00395   0.00574   0.03526
   6   47248.0    211.6   0.001283717   0.00041   0.00532  -0.00330  -0.01937
   7   47932.1    208.6   0.002662346   0.00087  -0.02581  -0.01432  -0.00094
   8   48587.8    205.8   0.308301180   0.10238   0.30737  -0.07739   0.04372
   9   48887.3    204.6   0.003495420   0.00117   0.01955  -0.01093  -0.02581
  10   49449.7    202.2   0.000704432   0.00024  -0.00270   0.00056   0.01518

-------------------------------------------------------------------
                             CD SPECTRUM
-------------------------------------------------------------------
State  Energy     Wavelength     R         MX        MY        MZ   
       (cm-1)       (nm)     (1e40*cgs)   (au)      (au)      (au)  
-------------------------------------------------------------------
   1   38277.4    261.3     -1.50444   0.01618  -0.03763  -0.23122
   2   39953.8    250.3      0.32316   0.01196  -0.02595  -0.14012
   3   42331.5    236.2     -0.61021  -0.00005  -0.07744   0.01025
   4   44575.0    224.3     -0.10515  -0.01597   0.03262  -0.01258
   5   44693.8    223.7     -0.17441  -0.12937   0.14472  -0.03665
   6   47248.0    211.6     -0.31248  -0.02836   0.26176  -0.04462
   7   47932.1    208.6      0.18246   0.00203   0.00037  -0.00568
   8   48587.8    205.8     -7.39067   0.01355   0.00039  -0.03839
   9   48887.3    204.6      2.03252  -0.14782  -0.20769   0.02078
  10   49449.7    202.2      1.12205  -0.00644   0.23983  -0.04103

-------------------------------------------------------------------
         CD SPECTRUM VIA TRANSITION VELOCITY DIPOLE MOMENTS        
-------------------------------------------------------------------
State  Energy     Wavelength     R         MX        MY        MZ   
       (cm-1)       (nm)     (1e40*cgs)   (au)      (au)      (au)  
-------------------------------------------------------------------
   1   38277.4    261.3      1.73749   0.01618  -0.03763  -0.23122
   2   39953.8    250.3      0.10415   0.01196  -0.02595  -0.14012
   3   42331.5    236.2      0.32876  -0.00005  -0.07744   0.01025
   4   44575.0    224.3      0.43077  -0.01597   0.03262  -0.01258
   5   44693.8    223.7      0.11511  -0.12937   0.14472  -0.03665
   6   47248.0    211.6     -0.32970  -0.02836   0.26176  -0.04462
   7   47932.1    208.6     -0.11308   0.00203   0.00037  -0.00568
   8   48587.8    205.8      5.23047   0.01355   0.00039  -0.03839
   9   48887.3    204.6     -2.44947  -0.14782  -0.20769   0.02078
  10   49449.7    202.2     -0.98347  -0.00644   0.23983  -0.04103

Total run time:      858.848 sec

           *** ORCA-CIS/TD-DFT FINISHED WITHOUT ERROR ***

Maximum memory used throughout the entire CIS-calculation: 682.4 MB

-----------------------
CIS/TD-DFT TOTAL ENERGY
-----------------------

    E(SCF)  =   -538.673706713 Eh
    DE(CIS) =      0.174404706 Eh (Root  1)
    ----------------------------- ---------
    E(tot)  =   -538.499302007 Eh


-------------------------   --------------------
FINAL SINGLE POINT ENERGY      -538.499302007286
-------------------------   --------------------


                            ***************************************
                            *     ORCA property calculations      *
                            ***************************************

                                    ---------------------
                                    Active property flags
                                    ---------------------
   (+) Dipole Moment


------------------------------------------------------------------------------
                       ORCA ELECTRIC PROPERTIES CALCULATION
------------------------------------------------------------------------------

Dipole Moment Calculation                       ... on
Quadrupole Moment Calculation                   ... off
Polarizability Calculation                      ... off
GBWName                                         ... m062x-train-7_job2.gbw
Electron density                                ... m062x-train-7_job2.scfp
The origin for moment calculation is the CENTER OF MASS  = (-0.303632,  0.008745 -0.042487)

-------------
DIPOLE MOMENT
-------------
                                X             Y             Z
Electronic contribution:     -2.58390      -0.08972      -0.21266
Nuclear contribution   :      2.51584       0.02138       0.22322
                        -----------------------------------------
Total Dipole Moment    :     -0.06806      -0.06834       0.01056
                        -----------------------------------------
Magnitude (a.u.)       :      0.09702
Magnitude (Debye)      :      0.24661



--------------------
Rotational spectrum 
--------------------
 
Rotational constants in cm-1:     0.044874     0.022566     0.015102 
Rotational constants in MHz :  1345.276051   676.502954   452.741890 

 Dipole components along the rotational axes: 
x,y,z [a.u.] :    -0.075715    -0.060524     0.004208 
x,y,z [Debye]:    -0.192452    -0.153840     0.010696 

 

Timings for individual modules:

Sum of individual times         ...     1083.879 sec (=  18.065 min)
GTO integral calculation        ...        2.358 sec (=   0.039 min)   0.2 %
SCF iterations                  ...      222.067 sec (=   3.701 min)  20.5 %
CIS module                      ...      859.455 sec (=  14.324 min)  79.3 %



                             ****ORCA TERMINATED NORMALLY****
TOTAL RUN TIME: 0 days 1 hours 15 minutes 30 seconds 412 msec
