
                                 *****************
                                 * O   R   C   A *
                                 *****************

                                            #,                                       
                                            ###                                      
                                            ####                                     
                                            #####                                    
                                            ######                                   
                                           ########,                                 
                                     ,,################,,,,,                         
                               ,,#################################,,                 
                          ,,##########################################,,             
                       ,#########################################, ''#####,          
                    ,#############################################,,   '####,        
                  ,##################################################,,,,####,       
                ,###########''''           ''''###############################       
              ,#####''   ,,,,##########,,,,          '''####'''          '####       
            ,##' ,,,,###########################,,,                        '##       
           ' ,,###''''                  '''############,,,                           
         ,,##''                                '''############,,,,        ,,,,,,###''
      ,#''                                            '''#######################'''  
     '                                                          ''''####''''         
             ,#######,   #######,   ,#######,      ##                                
            ,#'     '#,  ##    ##  ,#'     '#,    #''#        ######   ,####,        
            ##       ##  ##   ,#'  ##            #'  '#       #        #'  '#        
            ##       ##  #######   ##           ,######,      #####,   #    #        
            '#,     ,#'  ##    ##  '#,     ,#' ,#      #,         ##   #,  ,#        
             '#######'   ##     ##  '#######'  #'      '#     #####' # '####'        



                  #######################################################
                  #                        -***-                        #
                  #          Department of theory and spectroscopy      #
                  #    Directorship and core code : Frank Neese         #
                  #        Max Planck Institute fuer Kohlenforschung    #
                  #                Kaiser Wilhelm Platz 1               #
                  #                 D-45470 Muelheim/Ruhr               #
                  #                      Germany                        #
                  #                                                     #
                  #                  All rights reserved                #
                  #                        -***-                        #
                  #######################################################


                         Program Version 5.0.2 -  RELEASE  -


 With contributions from (in alphabetic order):
   Daniel Aravena         : Magnetic Suceptibility
   Michael Atanasov       : Ab Initio Ligand Field Theory (pilot matlab implementation)
   Alexander A. Auer      : GIAO ZORA, VPT2 properties, NMR spectrum
   Ute Becker             : Parallelization
   Giovanni Bistoni       : ED, misc. LED, open-shell LED, HFLD
   Martin Brehm           : Molecular dynamics
   Dmytro Bykov           : SCF Hessian
   Vijay G. Chilkuri      : MRCI spin determinant printing, contributions to CSF-ICE
   Dipayan Datta          : RHF DLPNO-CCSD density
   Achintya Kumar Dutta   : EOM-CC, STEOM-CC
   Dmitry Ganyushin       : Spin-Orbit,Spin-Spin,Magnetic field MRCI
   Miquel Garcia          : C-PCM and meta-GGA Hessian, CC/C-PCM, Gaussian charge scheme
   Yang Guo               : DLPNO-NEVPT2, F12-NEVPT2, CIM, IAO-localization
   Andreas Hansen         : Spin unrestricted coupled pair/coupled cluster methods
   Benjamin Helmich-Paris : MC-RPA, TRAH-SCF, COSX integrals
   Lee Huntington         : MR-EOM, pCC
   Robert Izsak           : Overlap fitted RIJCOSX, COSX-SCS-MP3, EOM
   Marcus Kettner         : VPT2
   Christian Kollmar      : KDIIS, OOCD, Brueckner-CCSD(T), CCSD density, CASPT2, CASPT2-K
   Simone Kossmann        : Meta GGA functionals, TD-DFT gradient, OOMP2, MP2 Hessian
   Martin Krupicka        : Initial AUTO-CI
   Lucas Lang             : DCDCAS
   Marvin Lechner         : AUTO-CI (C++ implementation), FIC-MRCC
   Dagmar Lenk            : GEPOL surface, SMD
   Dimitrios Liakos       : Extrapolation schemes; Compound Job, initial MDCI parallelization
   Dimitrios Manganas     : Further ROCIS development; embedding schemes
   Dimitrios Pantazis     : SARC Basis sets
   Anastasios Papadopoulos: AUTO-CI, single reference methods and gradients
   Taras Petrenko         : DFT Hessian,TD-DFT gradient, ASA, ECA, R-Raman, ABS, FL, XAS/XES, NRVS
   Peter Pinski           : DLPNO-MP2, DLPNO-MP2 Gradient
   Christoph Reimann      : Effective Core Potentials
   Marius Retegan         : Local ZFS, SOC
   Christoph Riplinger    : Optimizer, TS searches, QM/MM, DLPNO-CCSD(T), (RO)-DLPNO pert. Triples
   Tobias Risthaus        : Range-separated hybrids, TD-DFT gradient, RPA, STAB
   Michael Roemelt        : Original ROCIS implementation
   Masaaki Saitow         : Open-shell DLPNO-CCSD energy and density
   Barbara Sandhoefer     : DKH picture change effects
   Avijit Sen             : IP-ROCIS
   Kantharuban Sivalingam : CASSCF convergence, NEVPT2, FIC-MRCI
   Bernardo de Souza      : ESD, SOC TD-DFT
   Georgi Stoychev        : AutoAux, RI-MP2 NMR, DLPNO-MP2 response
   Willem Van den Heuvel  : Paramagnetic NMR
   Boris Wezisla          : Elementary symmetry handling
   Frank Wennmohs         : Technical directorship


 We gratefully acknowledge several colleagues who have allowed us to
 interface, adapt or use parts of their codes:
   Stefan Grimme, W. Hujo, H. Kruse, P. Pracht,  : VdW corrections, initial TS optimization,
                  C. Bannwarth, S. Ehlert          DFT functionals, gCP, sTDA/sTD-DF
   Ed Valeev, F. Pavosevic, A. Kumar             : LibInt (2-el integral package), F12 methods
   Garnet Chan, S. Sharma, J. Yang, R. Olivares  : DMRG
   Ulf Ekstrom                                   : XCFun DFT Library
   Mihaly Kallay                                 : mrcc  (arbitrary order and MRCC methods)
   Jiri Pittner, Ondrej Demel                    : Mk-CCSD
   Frank Weinhold                                : gennbo (NPA and NBO analysis)
   Christopher J. Cramer and Donald G. Truhlar   : smd solvation model
   Lars Goerigk                                  : TD-DFT with DH, B97 family of functionals
   V. Asgeirsson, H. Jonsson                     : NEB implementation
   FAccTs GmbH                                   : IRC, NEB, NEB-TS, DLPNO-Multilevel, CI-OPT
                                                   MM, QMMM, 2- and 3-layer-ONIOM, Crystal-QMMM,
                                                   LR-CPCM, SF, NACMEs, symmetry and pop. for TD-DFT,
                                                   nearIR, NL-DFT gradient (VV10), updates on ESD,
                                                   ML-optimized integration grids
   S Lehtola, MJT Oliveira, MAL Marques          : LibXC Library
   Liviu Ungur et al                             : ANISO software


 Your calculation uses the libint2 library for the computation of 2-el integrals
 For citations please refer to: http://libint.valeyev.net

 Your ORCA version has been built with support for libXC version: 5.1.0
 For citations please refer to: https://tddft.org/programs/libxc/

 This ORCA versions uses:
   CBLAS   interface :  Fast vector & matrix operations
   LAPACKE interface :  Fast linear algebra routines
   SCALAPACK package :  Parallel linear algebra routines
   Shared memory     :  Shared parallel matrices
   BLAS/LAPACK       :  OpenBLAS 0.3.15  USE64BITINT DYNAMIC_ARCH NO_AFFINITY Haswell SINGLE_THREADED
        Core in use  :  Haswell
   Copyright (c) 2011-2014, The OpenBLAS Project


Your calculation utilizes the atom-pairwise dispersion correction
with the Becke-Johnson damping scheme (D3BJ)
Cite in your paper:
S.Grimme, S.Ehrlich, L.Goerigk, J Comput Chem, (2011), 32, 1456–1465 
S.Grimme, J.Antony, S.Ehrlich and H.Krieg, J.Chem.Phys., 132, (2010), 154104 
   

Your calculation utilizes the SMD solvation module
Please cite in your paper:
A.V. Marenich, C.J. Cramer, D.G. Truhlar J. Phys. Chem. B, 113, (2009), 6378 

================================================================================

----- Orbital basis set information -----
Your calculation utilizes the basis: aug-cc-pVTZ 
    H, B-Ne : Obtained from the ccRepo (grant-hill.group.shef.ac.uk/ccrepo) Feb. 2017
              R. A. Kendall, T. H. Dunning, Jr., R. J. Harrison, J. Chem. Phys. 96, 6796 (1992)
         He : Obtained from the ccRepo (grant-hill.group.shef.ac.uk/ccrepo) Feb. 2017
              D. E. Woon, T. H. Dunning, Jr., J. Chem. Phys. 100, 2975 (1994)
  Li-Be, Na : Obtained from the ccRepo (grant-hill.group.shef.ac.uk/ccrepo) Feb. 2017
              B. P. Prascher, D. E. Woon, K. A. Peterson, T. H. Dunning, Jr., A. K. Wilson, Theor. Chem. Acc. 128, 69 (2011)
         Mg : Obtained from the Peterson Research Group Website (tyr0.chem.wsu.edu/~kipeters) Feb. 2017
              B. P. Prascher, D. E. Woon, K. A. Peterson, T. H. Dunning, Jr., A. K. Wilson, Theor. Chem. Acc. 128, 69 (2011)
      Al-Ar : Obtained from the ccRepo (grant-hill.group.shef.ac.uk/ccrepo) Feb. 2017
              D. E. Woon, T. H. Dunning, Jr., J. Chem. Phys. 98, 1358 (1993)
      Sc-Zn : Obtained from the ccRepo (grant-hill.group.shef.ac.uk/ccrepo) Feb. 2017
              N. B. Balabanov, K. A. Peterson, J. Chem. Phys. 123, 064107 (2005)
              N. B. Balabanov, K. A. Peterson, J. Chem. Phys. 125, 074110 (2006)
      Ga-Kr : Obtained from the ccRepo (grant-hill.group.shef.ac.uk/ccrepo) Feb. 2017
              A. K. Wilson, D. E. Woon, K. A. Peterson, T. H. Dunning, Jr., J. Chem. Phys. 110, 7667 (1999)
     Ag, Au : Obtained from the Peterson Research Group Website (tyr0.chem.wsu.edu/~kipeters) Feb. 2017
              K. A. Peterson, C. Puzzarini, Theor. Chem. Acc. 114, 283 (2005)

The basis set includes element-specific modifications.

Your calculation utilizes the basis: cc-pVTZ 
       H, B-Ne : Obtained from the ccRepo (grant-hill.group.shef.ac.uk/ccrepo) Feb. 2017
                 T. H. Dunning, Jr., J. Chem. Phys. 90, 1007 (1989)
            He : Obtained from the ccRepo (grant-hill.group.shef.ac.uk/ccrepo) Feb. 2017
                 D. E. Woon, T. H. Dunning, Jr., J. Chem. Phys. 100, 2975 (1994)
  Li-Be, Na-Mg : Obtained from the ccRepo (grant-hill.group.shef.ac.uk/ccrepo) Feb. 2017
                 B. P. Prascher, D. E. Woon, K. A. Peterson, T. H. Dunning, Jr., A. K. Wilson, Theor. Chem. Acc. 128, 69 (2011)
         Al-Ar : Obtained from the ccRepo (grant-hill.group.shef.ac.uk/ccrepo) Feb. 2017
                 D. E. Woon, T. H. Dunning, Jr., J. Chem. Phys. 98, 1358 (1993)
            Ca : Obtained from the Peterson Research Group Website (tyr0.chem.wsu.edu/~kipeters) Feb. 2017
                 J. Koput, K. A. Peterson, J. Phys. Chem. 106, 9595 (2002)
         Sc-Zn : Obtained from the ccRepo (grant-hill.group.shef.ac.uk/ccrepo) Feb. 2017
                 N. B. Balabanov, K. A. Peterson, J. Chem. Phys. 123, 064107 (2005)
                 N. B. Balabanov, K. A. Peterson, J. Chem. Phys. 125, 074110 (2006)
         Ga-Kr : Obtained from the ccRepo (grant-hill.group.shef.ac.uk/ccrepo) Feb. 2017
                 A. K. Wilson, D. E. Woon, K. A. Peterson, T. H. Dunning, Jr., J. Chem. Phys. 110, 7667 (1999)
             Y : Obtained from the ccRepo (grant-hill.group.shef.ac.uk/ccrepo) Feb. 2017
                 K. A. Peterson, D. Figgen, M. Dolg, H. Stoll, J. Chem. Phys. 126, 124101 (2007)
        Ag, Au : Obtained from the Peterson Research Group Website (tyr0.chem.wsu.edu/~kipeters) Feb. 2017
                 K. A. Peterson, C. Puzzarini, Theor. Chem. Acc. 114, 283 (2005)

----- AuxJ basis set information -----
Your calculation utilizes the auxiliary basis: aug-cc-pVTZ/JK 
  H, B-F, Al-Cl, Ga-Br : Obtained from the TURBOMOLE 7.0 basis set library

The basis set includes element-specific modifications.

Your calculation utilizes the auxiliary basis: cc-pVTZ/JK 
  H, B-F, Al-Cl, Ga-Br : Obtained from the TURBOMOLE 7.0 basis set library

----- AuxC basis set information -----
Your calculation utilizes the auxiliary basis: aug-cc-pVTZ/C 
  H-He, B-F, Al-Ar, Ga-Kr : Obtained from the EMSL Basis Set Exchange (bse.pnl.gov) Feb. 2017
                            F. Weigend, A. Kohn, C. Hattig, J. Chem. Phys. 116, 3175 (2002)
                   Be, Mg : Obtained from the TURBOMOLE 7.0 basis set library
                            C. Haettig, Phys. Chem. Chem. Phys. 7, 59 (2005)
                       Ne : Obtained from the EMSL Basis Set Exchange (bse.pnl.gov) Feb. 2017
                            C. Haettig, Phys. Chem. Chem. Phys. 7, 59 (2005)
                            F. Weigend, A. Kohn, C. Hattig, J. Chem. Phys. 116, 3175 (2002)
                    Sc-Zn : Obtained from the EMSL Basis Set Exchange (bse.pnl.gov) Feb. 2017
                            J. G. Hill, J. A. Platts, J. Chem. Phys. 128, 044104 (2008)

The basis set includes element-specific modifications.

Your calculation utilizes the auxiliary basis: cc-pVTZ/C 
  Obtained from the EMSL Basis Set Exchange (bse.pnl.gov) Feb. 2017
  H-He, B-F, Al-Ar, Ga-Kr : F. Weigend, A. Kohn, C. Hattig, J. Chem. Phys. 116, 3175 (2002)
             Li-Be, Na-Mg : C. Haettig, Phys. Chem. Chem. Phys. 7, 59 (2005)
                       Ne : C. Haettig, Phys. Chem. Chem. Phys. 7, 59 (2005)
                            F. Weigend, A. Kohn, C. Hattig, J. Chem. Phys. 116, 3175 (2002)
                    Sc-Zn : J. G. Hill, J. A. Platts, J. Chem. Phys. 128, 044104 (2008)

================================================================================
                                        WARNINGS
                       Please study these warnings very carefully!
================================================================================


WARNING: Geometry Optimization
  ===> : Switching off AutoStart
         For restart on a previous wavefunction, please use MOREAD

INFO   : the flag for use of the SHARK integral package has been found!



***************************************
The coordinates will be read from file: 
***************************************


Your calculation utilizes the atom-pairwise dispersion correction
with the Becke-Johnson damping scheme (D3BJ)
Cite in your paper:
S.Grimme, S.Ehrlich, L.Goerigk, J Comput Chem, (2011), 32, 1456–1465 
S.Grimme, J.Antony, S.Ehrlich and H.Krieg, J.Chem.Phys., 132, (2010), 154104 
   

Your calculation utilizes the SMD solvation module
Please cite in your paper:
A.V. Marenich, C.J. Cramer, D.G. Truhlar J. Phys. Chem. B, 113, (2009), 6378 

================================================================================

----- Orbital basis set information -----
Your calculation utilizes the basis: aug-cc-pVTZ 
    H, B-Ne : Obtained from the ccRepo (grant-hill.group.shef.ac.uk/ccrepo) Feb. 2017
              R. A. Kendall, T. H. Dunning, Jr., R. J. Harrison, J. Chem. Phys. 96, 6796 (1992)
         He : Obtained from the ccRepo (grant-hill.group.shef.ac.uk/ccrepo) Feb. 2017
              D. E. Woon, T. H. Dunning, Jr., J. Chem. Phys. 100, 2975 (1994)
  Li-Be, Na : Obtained from the ccRepo (grant-hill.group.shef.ac.uk/ccrepo) Feb. 2017
              B. P. Prascher, D. E. Woon, K. A. Peterson, T. H. Dunning, Jr., A. K. Wilson, Theor. Chem. Acc. 128, 69 (2011)
         Mg : Obtained from the Peterson Research Group Website (tyr0.chem.wsu.edu/~kipeters) Feb. 2017
              B. P. Prascher, D. E. Woon, K. A. Peterson, T. H. Dunning, Jr., A. K. Wilson, Theor. Chem. Acc. 128, 69 (2011)
      Al-Ar : Obtained from the ccRepo (grant-hill.group.shef.ac.uk/ccrepo) Feb. 2017
              D. E. Woon, T. H. Dunning, Jr., J. Chem. Phys. 98, 1358 (1993)
      Sc-Zn : Obtained from the ccRepo (grant-hill.group.shef.ac.uk/ccrepo) Feb. 2017
              N. B. Balabanov, K. A. Peterson, J. Chem. Phys. 123, 064107 (2005)
              N. B. Balabanov, K. A. Peterson, J. Chem. Phys. 125, 074110 (2006)
      Ga-Kr : Obtained from the ccRepo (grant-hill.group.shef.ac.uk/ccrepo) Feb. 2017
              A. K. Wilson, D. E. Woon, K. A. Peterson, T. H. Dunning, Jr., J. Chem. Phys. 110, 7667 (1999)
     Ag, Au : Obtained from the Peterson Research Group Website (tyr0.chem.wsu.edu/~kipeters) Feb. 2017
              K. A. Peterson, C. Puzzarini, Theor. Chem. Acc. 114, 283 (2005)

The basis set includes element-specific modifications.

Your calculation utilizes the basis: cc-pVTZ 
       H, B-Ne : Obtained from the ccRepo (grant-hill.group.shef.ac.uk/ccrepo) Feb. 2017
                 T. H. Dunning, Jr., J. Chem. Phys. 90, 1007 (1989)
            He : Obtained from the ccRepo (grant-hill.group.shef.ac.uk/ccrepo) Feb. 2017
                 D. E. Woon, T. H. Dunning, Jr., J. Chem. Phys. 100, 2975 (1994)
  Li-Be, Na-Mg : Obtained from the ccRepo (grant-hill.group.shef.ac.uk/ccrepo) Feb. 2017
                 B. P. Prascher, D. E. Woon, K. A. Peterson, T. H. Dunning, Jr., A. K. Wilson, Theor. Chem. Acc. 128, 69 (2011)
         Al-Ar : Obtained from the ccRepo (grant-hill.group.shef.ac.uk/ccrepo) Feb. 2017
                 D. E. Woon, T. H. Dunning, Jr., J. Chem. Phys. 98, 1358 (1993)
            Ca : Obtained from the Peterson Research Group Website (tyr0.chem.wsu.edu/~kipeters) Feb. 2017
                 J. Koput, K. A. Peterson, J. Phys. Chem. 106, 9595 (2002)
         Sc-Zn : Obtained from the ccRepo (grant-hill.group.shef.ac.uk/ccrepo) Feb. 2017
                 N. B. Balabanov, K. A. Peterson, J. Chem. Phys. 123, 064107 (2005)
                 N. B. Balabanov, K. A. Peterson, J. Chem. Phys. 125, 074110 (2006)
         Ga-Kr : Obtained from the ccRepo (grant-hill.group.shef.ac.uk/ccrepo) Feb. 2017
                 A. K. Wilson, D. E. Woon, K. A. Peterson, T. H. Dunning, Jr., J. Chem. Phys. 110, 7667 (1999)
             Y : Obtained from the ccRepo (grant-hill.group.shef.ac.uk/ccrepo) Feb. 2017
                 K. A. Peterson, D. Figgen, M. Dolg, H. Stoll, J. Chem. Phys. 126, 124101 (2007)
        Ag, Au : Obtained from the Peterson Research Group Website (tyr0.chem.wsu.edu/~kipeters) Feb. 2017
                 K. A. Peterson, C. Puzzarini, Theor. Chem. Acc. 114, 283 (2005)

----- AuxJ basis set information -----
Your calculation utilizes the auxiliary basis: aug-cc-pVTZ/JK 
  H, B-F, Al-Cl, Ga-Br : Obtained from the TURBOMOLE 7.0 basis set library

The basis set includes element-specific modifications.

Your calculation utilizes the auxiliary basis: cc-pVTZ/JK 
  H, B-F, Al-Cl, Ga-Br : Obtained from the TURBOMOLE 7.0 basis set library

----- AuxC basis set information -----
Your calculation utilizes the auxiliary basis: aug-cc-pVTZ/C 
  H-He, B-F, Al-Ar, Ga-Kr : Obtained from the EMSL Basis Set Exchange (bse.pnl.gov) Feb. 2017
                            F. Weigend, A. Kohn, C. Hattig, J. Chem. Phys. 116, 3175 (2002)
                   Be, Mg : Obtained from the TURBOMOLE 7.0 basis set library
                            C. Haettig, Phys. Chem. Chem. Phys. 7, 59 (2005)
                       Ne : Obtained from the EMSL Basis Set Exchange (bse.pnl.gov) Feb. 2017
                            C. Haettig, Phys. Chem. Chem. Phys. 7, 59 (2005)
                            F. Weigend, A. Kohn, C. Hattig, J. Chem. Phys. 116, 3175 (2002)
                    Sc-Zn : Obtained from the EMSL Basis Set Exchange (bse.pnl.gov) Feb. 2017
                            J. G. Hill, J. A. Platts, J. Chem. Phys. 128, 044104 (2008)

The basis set includes element-specific modifications.

Your calculation utilizes the auxiliary basis: cc-pVTZ/C 
  Obtained from the EMSL Basis Set Exchange (bse.pnl.gov) Feb. 2017
  H-He, B-F, Al-Ar, Ga-Kr : F. Weigend, A. Kohn, C. Hattig, J. Chem. Phys. 116, 3175 (2002)
             Li-Be, Na-Mg : C. Haettig, Phys. Chem. Chem. Phys. 7, 59 (2005)
                       Ne : C. Haettig, Phys. Chem. Chem. Phys. 7, 59 (2005)
                            F. Weigend, A. Kohn, C. Hattig, J. Chem. Phys. 116, 3175 (2002)
                    Sc-Zn : J. G. Hill, J. A. Platts, J. Chem. Phys. 128, 044104 (2008)

================================================================================
                                        WARNINGS
                       Please study these warnings very carefully!
================================================================================

INFO   : Checking CIS options ...
  ===> : (D) CORRECTION FOUND - SETTING MODE=3
  ===> : JK MODE FOUND - ACTIVATING RI-MP2 CODE
  ===> : MP2 AND CIS FOUND - CHECKING
WARNING: CIS(D) and MP2 runs must have the same orbital window
  ===> : adjusting orbital windows

WARNING: No MP2 level density has been requested!
         To caclulate MP2 level properties use
         %mp2 Density relaxed end
         or
         %mp2 Density unrelaxed end
         Otherwise for double-hybrid DFT only the energy is correct!

WARNING: The frozen-core approximation is turned on by default for 
         the MP2 part of double-hybrid DFT.

WARNING:  You are using a Range-Separated Double Hybrid functional with Doubles Correction 
          Changing Mode to AOINTS 


INFO   : the flag for use of the SHARK integral package has been found!

================================================================================
                                       INPUT FILE
================================================================================
NAME = optpbed3-wb2plyp-train-7.inp
|  1> ! pbe0 d3bj aug-cc-PVTZ RIJCOSX Opt
|  2> %maxcore 4000
|  3> %basis
|  4>  AuxJ "aug-cc-PVTZ/JK"
|  5>  AuxC "aug-cc-PVTZ/C"
|  6>  newGTO H "cc-PVTZ" end
|  7>  newAuxJGTO H "cc-PVTZ/JK" end
|  8>  newAuxCGTO H "cc-PVTZ/C" end
|  9> end
| 10> %cpcm
| 11>  SMD true
| 12>  SMDsolvent "cyclohexane"
| 13> end
| 14> %pal nprocs 4 end
| 15> * xyz 0 1
| 16> C          4.01170        0.00820        0.34860
| 17> C          2.89560        0.69840        0.14290
| 18> C          1.53670        0.17630        0.10890
| 19> C          1.22560       -1.15920        0.32570
| 20> C         -0.08660       -1.60060        0.28110
| 21> C         -1.12440       -0.72160        0.01880
| 22> O         -2.44290       -1.05420       -0.04620
| 23> C         -2.80490       -2.39380        0.17280
| 24> C         -0.82610        0.64180       -0.20400
| 25> O         -1.90170        1.44160       -0.45490
| 26> C         -1.67710        2.80980       -0.67860
| 27> C          0.48660        1.06530       -0.15530
| 28> H          4.97400        0.49070        0.35540
| 29> H          4.01730       -1.05460        0.51790
| 30> H          2.96990        1.76700       -0.02210
| 31> H          2.00590       -1.87320        0.53430
| 32> H         -0.28990       -2.64540        0.45520
| 33> H         -3.88920       -2.42410        0.07670
| 34> H         -2.52200       -2.73030        1.17610
| 35> H         -2.35790       -3.06090       -0.57230
| 36> H         -2.66080        3.24430       -0.85090
| 37> H         -1.04920        2.97840       -1.56040
| 38> H         -1.21720        3.29190        0.19110
| 39> H          0.72640        2.10400       -0.32380
| 40> *
| 41> 
| 42> 
| 43> $new_job
| 44> ! wb2plyp aug-cc-PVTZ RIJCOSX SP
| 45> %maxcore 4000
| 46> %basis
| 47>  AuxJ "aug-cc-PVTZ/JK"
| 48>  AuxC "aug-cc-PVTZ/C"
| 49>  newGTO H "cc-PVTZ" end
| 50>  newAuxJGTO H "cc-PVTZ/JK" end
| 51>  newAuxCGTO H "cc-PVTZ/C" end
| 52> end
| 53> %cpcm
| 54>  SMD true
| 55>  SMDsolvent "cyclohexane"
| 56> end
| 57> %pal nprocs 4 end
| 58> %tddft
| 59>  nroots 10
| 60>  maxdim 7
| 61> end
| 62> * xyzfile 0 1
| 63> 
| 64>                          ****END OF INPUT****
================================================================================


                 $$$$$$$$$$$$$$$$$$$$$$$$$$$$$$$$$$$$$$$$$$$$$$ 
                 $ THERE ARE  2 JOBS TO BE PROCESSED THIS RUN $
                 $$$$$$$$$$$$$$$$$$$$$$$$$$$$$$$$$$$$$$$$$$$$$$ 




                 $$$$$$$$$$$$$$$$  JOB NUMBER  1 $$$$$$$$$$$$$$


                       *****************************
                       * Geometry Optimization Run *
                       *****************************

Geometry optimization settings:
Update method            Update   .... BFGS
Choice of coordinates    CoordSys .... Z-matrix Internals
Initial Hessian          InHess   .... Almoef's Model

Convergence Tolerances:
Energy Change            TolE     ....  5.0000e-06 Eh
Max. Gradient            TolMAXG  ....  3.0000e-04 Eh/bohr
RMS Gradient             TolRMSG  ....  1.0000e-04 Eh/bohr
Max. Displacement        TolMAXD  ....  4.0000e-03 bohr
RMS Displacement         TolRMSD  ....  2.0000e-03 bohr
Strict Convergence                ....  False
------------------------------------------------------------------------------
                        ORCA OPTIMIZATION COORDINATE SETUP
------------------------------------------------------------------------------

The optimization will be done in new redundant internal coordinates
Making redundant internal coordinates   ...  (new redundants) done
Evaluating the initial hessian          ...  (Almloef) done
Evaluating the coordinates              ...  done
Calculating the B-matrix                .... done
Calculating the G-matrix                .... done
Diagonalizing the G-matrix              .... done
Small eigenvalue found = 1.125e-02
Small eigenvalue found = 1.336e-02
The first mode is                       ....   38
The number of degrees of freedom        ....   66

    -----------------------------------------------------------------
                    Redundant Internal Coordinates


    -----------------------------------------------------------------
         Definition                    Initial Value    Approx d2E/dq
    -----------------------------------------------------------------
      1. B(C   1,C   0)                  1.3283         0.783763   
      2. B(C   2,C   1)                  1.4561         0.490017   
      3. B(C   3,C   2)                  1.3883         0.628737   
      4. B(C   4,C   3)                  1.3852         0.635985   
      5. B(C   5,C   4)                  1.3851         0.636171   
      6. B(O   6,C   5)                  1.3614         0.621692   
      7. B(C   7,O   6)                  1.4048         0.529936   
      8. B(C   8,C   5)                  1.4133         0.573493   
      9. B(O   9,C   8)                  1.3637         0.616471   
     10. B(C  10,O   9)                  1.4044         0.530681   
     11. B(C  11,C   8)                  1.3802         0.647740   
     12. B(C  11,C   2)                  1.4010         0.600027   
     13. B(H  12,C   0)                  1.0765         0.378395   
     14. B(H  13,C   0)                  1.0762         0.378806   
     15. B(H  14,C   1)                  1.0838         0.368378   
     16. B(H  15,C   3)                  1.0780         0.376269   
     17. B(H  16,C   4)                  1.0785         0.375584   
     18. B(H  17,C   7)                  1.0890         0.361463   
     19. B(H  18,C   7)                  1.0954         0.353042   
     20. B(H  19,C   7)                  1.0954         0.352965   
     21. B(H  20,C  10)                  1.0891         0.361290   
     22. B(H  21,C  10)                  1.0956         0.352817   
     23. B(H  22,C  10)                  1.0956         0.352787   
     24. B(H  23,C  11)                  1.0793         0.374597   
     25. A(C   1,C   0,H  12)          121.2779         0.370427   
     26. A(H  12,C   0,H  13)          115.9111         0.295469   
     27. A(C   1,C   0,H  13)          122.8110         0.370496   
     28. A(C   0,C   1,C   2)          126.9735         0.433996   
     29. A(C   0,C   1,H  14)          118.5740         0.368723   
     30. A(C   2,C   1,H  14)          114.4525         0.340513   
     31. A(C   3,C   2,C  11)          118.1578         0.432605   
     32. A(C   1,C   2,C   3)          123.3940         0.417209   
     33. A(C   1,C   2,C  11)          118.4482         0.413755   
     34. A(C   4,C   3,H  15)          118.7415         0.357086   
     35. A(C   2,C   3,H  15)          120.3411         0.356391   
     36. A(C   2,C   3,C   4)          120.9173         0.437161   
     37. A(C   5,C   4,H  16)          120.2716         0.356993   
     38. A(C   3,C   4,H  16)          118.8201         0.356975   
     39. A(C   3,C   4,C   5)          120.9083         0.438088   
     40. A(C   4,C   5,C   8)          118.9411         0.430011   
     41. A(C   4,C   5,O   6)          125.4276         0.433439   
     42. A(O   6,C   5,C   8)          115.6312         0.425447   
     43. A(C   5,O   6,C   7)          118.3659         0.416766   
     44. A(H  18,C   7,H  19)          109.3013         0.289029   
     45. A(O   6,C   7,H  19)          111.6859         0.340460   
     46. A(O   6,C   7,H  18)          111.6644         0.340473   
     47. A(O   6,C   7,H  17)          105.6258         0.341818   
     48. A(H  17,C   7,H  18)          109.2347         0.290109   
     49. A(H  17,C   7,H  19)          109.2283         0.290099   
     50. A(O   9,C   8,C  11)          125.2204         0.434188   
     51. A(C   5,C   8,C  11)          119.4185         0.431405   
     52. A(C   5,C   8,O   9)          115.3611         0.424806   
     53. A(C   8,O   9,C  10)          118.3297         0.416245   
     54. A(O   9,C  10,H  20)          105.6293         0.341871   
     55. A(H  21,C  10,H  22)          109.3070         0.288977   
     56. A(H  20,C  10,H  22)          109.2191         0.290054   
     57. A(O   9,C  10,H  22)          111.6770         0.340512   
     58. A(H  20,C  10,H  21)          109.2040         0.290058   
     59. A(O   9,C  10,H  21)          111.7021         0.340516   
     60. A(C   2,C  11,C   8)          121.6569         0.434928   
     61. A(C   8,C  11,H  23)          120.0748         0.357928   
     62. A(C   2,C  11,H  23)          118.2683         0.353311   
     63. D(H  14,C   1,C   0,H  12)      0.1357         0.044197   
     64. D(H  14,C   1,C   0,H  13)   -179.9019         0.044197   
     65. D(C   2,C   1,C   0,H  12)   -179.9608         0.044197   
     66. D(C   2,C   1,C   0,H  13)      0.0016         0.044197   
     67. D(C   3,C   2,C   1,H  14)   -178.5652         0.016350   
     68. D(C   3,C   2,C   1,C   0)      1.5279         0.016350   
     69. D(C  11,C   2,C   1,C   0)   -178.5078         0.016350   
     70. D(C  11,C   2,C   1,H  14)      1.3991         0.016350   
     71. D(H  15,C   3,C   2,C  11)   -179.8539         0.027402   
     72. D(C   4,C   3,C   2,C   1)   -179.9916         0.027402   
     73. D(H  15,C   3,C   2,C   1)      0.1106         0.027402   
     74. D(C   4,C   3,C   2,C  11)      0.0440         0.027402   
     75. D(H  16,C   4,C   3,C   2)   -179.9621         0.028079   
     76. D(C   5,C   4,C   3,H  15)    179.9071         0.028079   
     77. D(C   5,C   4,C   3,C   2)      0.0076         0.028079   
     78. D(H  16,C   4,C   3,H  15)     -0.0627         0.028079   
     79. D(C   8,C   5,C   4,H  16)    179.9443         0.028097   
     80. D(C   8,C   5,C   4,C   3)     -0.0250         0.028097   
     81. D(O   6,C   5,C   4,H  16)     -0.0146         0.028097   
     82. D(O   6,C   5,C   4,C   3)   -179.9839         0.028097   
     83. D(C   7,O   6,C   5,C   8)   -179.6963         0.028368   
     84. D(C   7,O   6,C   5,C   4)      0.2638         0.028368   
     85. D(H  19,C   7,O   6,C   5)    -61.5513         0.022301   
     86. D(H  18,C   7,O   6,C   5)     61.1808         0.022301   
     87. D(H  17,C   7,O   6,C   5)    179.8128         0.022301   
     88. D(C  11,C   8,C   5,O   6)    179.9526         0.022573   
     89. D(C  11,C   8,C   5,C   4)     -0.0103         0.022573   
     90. D(O   9,C   8,C   5,O   6)     -0.0175         0.022573   
     91. D(O   9,C   8,C   5,C   4)   -179.9803         0.022573   
     92. D(C  10,O   9,C   8,C  11)     -0.2888         0.027859   
     93. D(C  10,O   9,C   8,C   5)    179.6792         0.027859   
     94. D(H  22,C  10,O   9,C   8)    -61.1768         0.022367   
     95. D(H  21,C  10,O   9,C   8)     61.5837         0.022367   
     96. D(H  20,C  10,O   9,C   8)   -179.7990         0.022367   
     97. D(H  23,C  11,C   8,O   9)     -0.0315         0.029199   
     98. D(H  23,C  11,C   8,C   5)   -179.9984         0.029199   
     99. D(C   2,C  11,C   8,O   9)   -179.9693         0.029199   
    100. D(C   2,C  11,C   8,C   5)      0.0638         0.029199   
    101. D(H  23,C  11,C   2,C   3)    179.9808         0.024820   
    102. D(H  23,C  11,C   2,C   1)      0.0146         0.024820   
    103. D(C   8,C  11,C   2,C   3)     -0.0802         0.024820   
    104. D(C   8,C  11,C   2,C   1)    179.9536         0.024820   
    -----------------------------------------------------------------

Number of atoms                         .... 24
Number of degrees of freedom            .... 104

         *************************************************************
         *                GEOMETRY OPTIMIZATION CYCLE   1            *
         *************************************************************
---------------------------------
CARTESIAN COORDINATES (ANGSTROEM)
---------------------------------
  C      4.011700    0.008200    0.348600
  C      2.895600    0.698400    0.142900
  C      1.536700    0.176300    0.108900
  C      1.225600   -1.159200    0.325700
  C     -0.086600   -1.600600    0.281100
  C     -1.124400   -0.721600    0.018800
  O     -2.442900   -1.054200   -0.046200
  C     -2.804900   -2.393800    0.172800
  C     -0.826100    0.641800   -0.204000
  O     -1.901700    1.441600   -0.454900
  C     -1.677100    2.809800   -0.678600
  C      0.486600    1.065300   -0.155300
  H      4.974000    0.490700    0.355400
  H      4.017300   -1.054600    0.517900
  H      2.969900    1.767000   -0.022100
  H      2.005900   -1.873200    0.534300
  H     -0.289900   -2.645400    0.455200
  H     -3.889200   -2.424100    0.076700
  H     -2.522000   -2.730300    1.176100
  H     -2.357900   -3.060900   -0.572300
  H     -2.660800    3.244300   -0.850900
  H     -1.049200    2.978400   -1.560400
  H     -1.217200    3.291900    0.191100
  H      0.726400    2.104000   -0.323800

----------------------------
CARTESIAN COORDINATES (A.U.)
----------------------------
  NO LB      ZA    FRAG     MASS         X           Y           Z
   0 C     6.0000    0    12.011    7.581014    0.015496    0.658759
   1 C     6.0000    0    12.011    5.471891    1.319785    0.270042
   2 C     6.0000    0    12.011    2.903942    0.333159    0.205791
   3 C     6.0000    0    12.011    2.316048   -2.190571    0.615484
   4 C     6.0000    0    12.011   -0.163650   -3.024696    0.531202
   5 C     6.0000    0    12.011   -2.124808   -1.363626    0.035527
   6 O     8.0000    0    15.999   -4.616412   -1.992149   -0.087305
   7 C     6.0000    0    12.011   -5.300493   -4.523626    0.326545
   8 C     6.0000    0    12.011   -1.561103    1.212826   -0.385504
   9 O     8.0000    0    15.999   -3.593692    2.724229   -0.859636
  10 C     6.0000    0    12.011   -3.169260    5.309752   -1.282368
  11 C     6.0000    0    12.011    0.919541    2.013125   -0.293474
  12 H     1.0000    0     1.008    9.399498    0.927289    0.671609
  13 H     1.0000    0     1.008    7.591597   -1.992905    0.978689
  14 H     1.0000    0     1.008    5.612298    3.339146   -0.041763
  15 H     1.0000    0     1.008    3.790602   -3.539835    1.009681
  16 H     1.0000    0     1.008   -0.547832   -4.999082    0.860203
  17 H     1.0000    0     1.008   -7.349523   -4.580885    0.144942
  18 H     1.0000    0     1.008   -4.765889   -5.159519    2.222507
  19 H     1.0000    0     1.008   -4.455785   -5.784263   -1.081490
  20 H     1.0000    0     1.008   -5.028183    6.130838   -1.607968
  21 H     1.0000    0     1.008   -1.982701    5.628360   -2.948729
  22 H     1.0000    0     1.008   -2.300175    6.220789    0.361127
  23 H     1.0000    0     1.008    1.372697    3.975984   -0.611893

--------------------------------
INTERNAL COORDINATES (ANGSTROEM)
--------------------------------
 C      0   0   0     0.000000000000     0.00000000     0.00000000
 C      1   0   0     1.328295050055     0.00000000     0.00000000
 C      2   1   0     1.456143406399   126.97349254     0.00000000
 C      3   2   1     1.388288766792   123.39403046     1.52786448
 C      4   3   2     1.385168567359   120.91732298   180.00837693
 C      5   4   3     1.385088852746   120.90829656     0.00000000
 O      6   5   4     1.361355945372   125.42764356   180.01611483
 C      7   6   5     1.404824957068   118.36586053     0.26378068
 C      6   5   4     1.413323137149   118.94113911   359.97503537
 O      9   6   5     1.363651792064   115.36110612   180.01967677
 C     10   9   6     1.404442270084   118.32967745   179.67923443
 C      9   6   5     1.380183042209   119.41851716     0.00000000
 H      1   2   3     1.076509999954   121.27786915   180.03919548
 H      1   2   3     1.076214518579   122.81103274     0.00000000
 H      2   1   3     1.083813383383   118.57397126   180.09646392
 H      4   3   2     1.078043621566   120.34106847     0.11055351
 H      5   4   3     1.078540096612   118.82011102   180.03787671
 H      8   7   6     1.088971895872   105.62578376   179.81284788
 H      8   7   6     1.095388310144   111.66439242    61.18081332
 H      8   7   6     1.095447588888   111.68591558   298.44870372
 H     11  10   9     1.089102029197   105.62927784   180.20103317
 H     11  10   9     1.095561778267   111.70206252    61.58365478
 H     11  10   9     1.095585008112   111.67702769   298.82320303
 H     12   9   6     1.079256216104   120.07479644   180.00162908

---------------------------
INTERNAL COORDINATES (A.U.)
---------------------------
 C      0   0   0     0.000000000000     0.00000000     0.00000000
 C      1   0   0     2.510113869647     0.00000000     0.00000000
 C      2   1   0     2.751712249810   126.97349254     0.00000000
 C      3   2   1     2.623485564036   123.39403046     1.52786448
 C      4   3   2     2.617589241625   120.91732298   180.00837693
 C      5   4   3     2.617438602836   120.90829656     0.00000000
 O      6   5   4     2.572589907539   125.42764356   180.01611483
 C      7   6   5     2.654734434955   118.36586053     0.26378068
 C      6   5   4     2.670793667946   118.94113911   359.97503537
 O      9   6   5     2.576928429032   115.36110612   180.01967677
 C     10   9   6     2.654011261362   118.32967745   179.67923443
 C      9   6   5     2.608167964456   119.41851716     0.00000000
 H      1   2   3     2.034309080340   121.27786915   180.03919548
 H      1   2   3     2.033750701464   122.81103274     0.00000000
 H      2   1   3     2.048110474872   118.57397126   180.09646392
 H      4   3   2     2.037207205181   120.34106847     0.11055351
 H      5   4   3     2.038145407050   118.82011102   180.03787671
 H      8   7   6     2.057858650736   105.62578376   179.81284788
 H      8   7   6     2.069983916471   111.66439242    61.18081332
 H      8   7   6     2.070095937062   111.68591558   298.44870372
 H     11  10   9     2.058104567079   105.62927784   180.20103317
 H     11  10   9     2.070311723717   111.70206252    61.58365478
 H     11  10   9     2.070355621762   111.67702769   298.82320303
 H     12   9   6     2.039498676769   120.07479644   180.00162908

---------------------
BASIS SET INFORMATION
---------------------
There are 3 groups of distinct atoms

 Group   1 Type C   : 19s6p3d2f contracted to 5s4p3d2f pattern {88111/3111/111/11}
 Group   2 Type O   : 19s6p3d2f contracted to 5s4p3d2f pattern {88111/3111/111/11}
 Group   3 Type H   : 5s2p1d contracted to 3s2p1d pattern {311/11/1}

Atom   0C    basis set group =>   1
Atom   1C    basis set group =>   1
Atom   2C    basis set group =>   1
Atom   3C    basis set group =>   1
Atom   4C    basis set group =>   1
Atom   5C    basis set group =>   1
Atom   6O    basis set group =>   2
Atom   7C    basis set group =>   1
Atom   8C    basis set group =>   1
Atom   9O    basis set group =>   2
Atom  10C    basis set group =>   1
Atom  11C    basis set group =>   1
Atom  12H    basis set group =>   3
Atom  13H    basis set group =>   3
Atom  14H    basis set group =>   3
Atom  15H    basis set group =>   3
Atom  16H    basis set group =>   3
Atom  17H    basis set group =>   3
Atom  18H    basis set group =>   3
Atom  19H    basis set group =>   3
Atom  20H    basis set group =>   3
Atom  21H    basis set group =>   3
Atom  22H    basis set group =>   3
Atom  23H    basis set group =>   3
---------------------------------
AUXILIARY/J BASIS SET INFORMATION
---------------------------------
There are 3 groups of distinct atoms

 Group   1 Type C   : 10s7p5d2f1g contracted to 10s7p5d2f1g pattern {1111111111/1111111/11111/11/1}
 Group   2 Type O   : 10s7p5d2f1g contracted to 10s7p5d2f1g pattern {1111111111/1111111/11111/11/1}
 Group   3 Type H   : 4s3p2d1f contracted to 4s3p2d1f pattern {1111/111/11/1}

Atom   0C    basis set group =>   1
Atom   1C    basis set group =>   1
Atom   2C    basis set group =>   1
Atom   3C    basis set group =>   1
Atom   4C    basis set group =>   1
Atom   5C    basis set group =>   1
Atom   6O    basis set group =>   2
Atom   7C    basis set group =>   1
Atom   8C    basis set group =>   1
Atom   9O    basis set group =>   2
Atom  10C    basis set group =>   1
Atom  11C    basis set group =>   1
Atom  12H    basis set group =>   3
Atom  13H    basis set group =>   3
Atom  14H    basis set group =>   3
Atom  15H    basis set group =>   3
Atom  16H    basis set group =>   3
Atom  17H    basis set group =>   3
Atom  18H    basis set group =>   3
Atom  19H    basis set group =>   3
Atom  20H    basis set group =>   3
Atom  21H    basis set group =>   3
Atom  22H    basis set group =>   3
Atom  23H    basis set group =>   3
---------------------------------
AUXILIARY/C BASIS SET INFORMATION
---------------------------------
There are 3 groups of distinct atoms

 Group   1 Type C   : 9s7p6d4f2g contracted to 9s7p6d4f2g pattern {111111111/1111111/111111/1111/11}
 Group   2 Type O   : 9s7p6d4f2g contracted to 9s7p6d4f2g pattern {111111111/1111111/111111/1111/11}
 Group   3 Type H   : 4s3p2d1f contracted to 4s3p2d1f pattern {1111/111/11/1}

Atom   0C    basis set group =>   1
Atom   1C    basis set group =>   1
Atom   2C    basis set group =>   1
Atom   3C    basis set group =>   1
Atom   4C    basis set group =>   1
Atom   5C    basis set group =>   1
Atom   6O    basis set group =>   2
Atom   7C    basis set group =>   1
Atom   8C    basis set group =>   1
Atom   9O    basis set group =>   2
Atom  10C    basis set group =>   1
Atom  11C    basis set group =>   1
Atom  12H    basis set group =>   3
Atom  13H    basis set group =>   3
Atom  14H    basis set group =>   3
Atom  15H    basis set group =>   3
Atom  16H    basis set group =>   3
Atom  17H    basis set group =>   3
Atom  18H    basis set group =>   3
Atom  19H    basis set group =>   3
Atom  20H    basis set group =>   3
Atom  21H    basis set group =>   3
Atom  22H    basis set group =>   3
Atom  23H    basis set group =>   3


           ************************************************************
           *        Program running with 4 parallel MPI-processes     *
           *              working on a common directory               *
           ************************************************************
------------------------------------------------------------------------------
                           ORCA GTO INTEGRAL CALCULATION
                           -- RI-GTO INTEGRALS CHOSEN --
------------------------------------------------------------------------------
------------------------------------------------------------------------------
                   ___                                                        
                  /   \      - P O W E R E D   B Y -                         
                 /     \                                                     
                 |  |  |   _    _      __       _____    __    __             
                 |  |  |  | |  | |    /  \     |  _  \  |  |  /  |          
                  \  \/   | |  | |   /    \    | | | |  |  | /  /          
                 / \  \   | |__| |  /  /\  \   | |_| |  |  |/  /          
                |  |  |   |  __  | /  /__\  \  |    /   |      \           
                |  |  |   | |  | | |   __   |  |    \   |  |\   \          
                \     /   | |  | | |  |  |  |  | |\  \  |  | \   \       
                 \___/    |_|  |_| |__|  |__|  |_| \__\ |__|  \__/        
                                                                              
                      - O R C A' S   B I G   F R I E N D -                    
                                      &                                       
                       - I N T E G R A L  F E E D E R -                       
                                                                              
 v1 FN, 2020, v2 2021                                                         
------------------------------------------------------------------------------


Reading SHARK input file optpbed3-wb2plyp-train-7.SHARKINP.tmp ... ok
----------------------
SHARK INTEGRAL PACKAGE
----------------------

Number of atoms                             ...     24
Number of basis functions                   ...    792
Number of shells                            ...    312
Maximum angular momentum                    ...      3
Integral batch strategy                     ... SHARK/LIBINT Hybrid
RI-J (if used) integral strategy            ... SPLIT-RIJ (Revised 2003 algorithm where possible)
Printlevel                                  ...      1
Contraction scheme used                     ... PARTIAL GENERAL contraction
Coulomb Range Separation                    ... NOT USED
Exchange Range Separation                   ... NOT USED
Finite Nucleus Model                        ... NOT USED
Auxiliary Coulomb fitting basis             ... AVAILABLE
   # of basis functions in Aux-J            ...   1308
   # of shells in Aux-J                     ...    420
   Maximum angular momentum in Aux-J        ...      4
Auxiliary J/K fitting basis                 ... NOT available
Auxiliary Correlation fitting basis         ... AVAILABLE
   # of basis functions in Aux-C            ...   1632
   # of shells in Aux-C                     ...    456
   Maximum angular momentum in Aux-C        ...      4
Auxiliary 'external' fitting basis          ... NOT available
Integral threshold                          ...     2.500000e-11
Primitive cut-off                           ...     2.500000e-12
Primitive pair pre-selection threshold      ...     2.500000e-12

Calculating pre-screening integrals         ... done (  0.1 sec) Dimension = 312
Calculating pre-screening integrals (ORCA)  ... done (  0.3 sec) Dimension = 240
Organizing shell pair data                  ... done (  0.6 sec)
Shell pair information
Total number of shell pairs                 ...     48828
Shell pairs after pre-screening             ...     36287
Total number of primitive shell pairs       ...     65052
Primitive shell pairs kept                  ...     43818
          la=0 lb=0:   8646 shell pairs
          la=1 lb=0:   9236 shell pairs
          la=1 lb=1:   2254 shell pairs
          la=2 lb=0:   6058 shell pairs
          la=2 lb=1:   2915 shell pairs
          la=2 lb=2:    995 shell pairs
          la=3 lb=0:   3316 shell pairs
          la=3 lb=1:   1558 shell pairs
          la=3 lb=2:   1023 shell pairs
          la=3 lb=3:    286 shell pairs

Calculating one electron integrals          ... done (  0.1 sec)
Calculating RI/J V-Matrix + Cholesky decomp.... done (  0.2 sec)
Calculating RI/C V-Matrix + Cholesky decomp.... done (  0.2 sec)
Calculating Nuclear repulsion               ... done (  0.0 sec) ENN=    678.477881099406 Eh

SHARK setup successfully completed in   3.0 seconds

Maximum memory used throughout the entire GTOINT-calculation: 55.2 MB


           ************************************************************
           *        Program running with 4 parallel MPI-processes     *
           *              working on a common directory               *
           ************************************************************
-------------------------------------------------------------------------------
                                 ORCA SCF
-------------------------------------------------------------------------------

------------
SCF SETTINGS
------------
Hamiltonian:
 Density Functional     Method          .... DFT(GTOs)
 Exchange Functional    Exchange        .... PBE
   PBE kappa parameter   XKappa         ....  0.804000
   PBE mue parameter    XMuePBE         ....  0.219520
 Correlation Functional Correlation     .... PBE
   PBE beta parameter  CBetaPBE         ....  0.066725
 LDA part of GGA corr.  LDAOpt          .... PW91-LDA
 Gradients option       PostSCFGGA      .... off
 Hybrid DFT is turned on
   Fraction HF Exchange ScalHFX         ....  0.250000
   Scaling of DF-GGA-X  ScalDFX         ....  0.750000
   Scaling of DF-GGA-C  ScalDFC         ....  1.000000
   Scaling of DF-LDA-C  ScalLDAC        ....  1.000000
   Perturbative correction              ....  0.000000
   Density functional embedding theory  .... OFF
   NL short-range parameter             ....  6.900000
 RI-approximation to the Coulomb term is turned on
   Number of AuxJ basis functions       .... 1308
   RIJ-COSX (HFX calculated with COS-X)).... on


General Settings:
 Integral files         IntName         .... optpbed3-wb2plyp-train-7
 Hartree-Fock type      HFTyp           .... RHF
 Total Charge           Charge          ....    0
 Multiplicity           Mult            ....    1
 Number of Electrons    NEL             ....   88
 Basis Dimension        Dim             ....  720
 Nuclear Repulsion      ENuc            ....    678.4778810994 Eh

Convergence Acceleration:
 DIIS                   CNVDIIS         .... on
   Start iteration      DIISMaxIt       ....    12
   Startup error        DIISStart       ....  0.200000
   # of expansion vecs  DIISMaxEq       ....     5
   Bias factor          DIISBfac        ....   1.050
   Max. coefficient     DIISMaxC        ....  10.000
 Trust-Rad. Augm. Hess. CNVTRAH         .... auto
   Auto Start mean grad. ratio tolernc. ....  1.125000
   Auto Start start iteration           ....    20
   Auto Start num. interpolation iter.  ....    10
   Max. Number of Micro iterations      ....    16
   Max. Number of Macro iterations      .... Maxiter - #DIIS iter
   Number of Davidson start vectors     ....     2
   Converg. threshold I  (grad. norm)   ....   1.000e-05
   Converg. threshold II (energy diff.) ....   1.000e-08
   Grad. Scal. Fac. for Micro threshold ....   0.100
   Minimum threshold for Micro iter.    ....   0.010
   NR start threshold (gradient norm)   ....   0.001
   Initial trust radius                 ....   0.400
   Minimum AH scaling param. (alpha)    ....   1.000
   Maximum AH scaling param. (alpha)    .... 1000.000
   Orbital update algorithm             .... Taylor
   White noise on init. David. guess    .... on
   Maximum white noise                  ....   0.010
   Quad. conv. algorithm                .... NR
 SOSCF                  CNVSOSCF        .... on
   Start iteration      SOSCFMaxIt      ....   150
   Startup grad/error   SOSCFStart      ....  0.003300
 Level Shifting         CNVShift        .... on
   Level shift para.    LevelShift      ....    0.2500
   Turn off err/grad.   ShiftErr        ....    0.0010
 Zerner damping         CNVZerner       .... off
 Static damping         CNVDamp         .... on
   Fraction old density DampFac         ....    0.7000
   Max. Damping (<1)    DampMax         ....    0.9800
   Min. Damping (>=0)   DampMin         ....    0.0000
   Turn off err/grad.   DampErr         ....    0.1000
 Fernandez-Rico         CNVRico         .... off

SCF Procedure:
 Maximum # iterations   MaxIter         ....   125
 SCF integral mode      SCFMode         .... Direct
   Integral package                     .... SHARK and LIBINT hybrid scheme
 Reset frequency        DirectResetFreq ....    20
 Integral Threshold     Thresh          ....  2.500e-11 Eh
 Primitive CutOff       TCut            ....  2.500e-12 Eh

Convergence Tolerance:
 Convergence Check Mode ConvCheckMode   .... Total+1el-Energy
 Convergence forced     ConvForced      .... 0
 Energy Change          TolE            ....  1.000e-08 Eh
 1-El. energy change                    ....  1.000e-05 Eh
 Orbital Gradient       TolG            ....  1.000e-05
 Orbital Rotation angle TolX            ....  1.000e-05
 DIIS Error             TolErr          ....  5.000e-07


Diagonalization of the overlap matrix:
Smallest eigenvalue                        ... 7.034e-07
Time for diagonalization                   ...    0.142 sec
Threshold for overlap eigenvalues          ... 1.000e-08
Number of eigenvalues below threshold      ... 0
Time for construction of square roots      ...    0.077 sec
Total time needed                          ...    0.222 sec

Time for model grid setup =    0.328 sec

------------------------------
INITIAL GUESS: MODEL POTENTIAL
------------------------------
Loading Hartree-Fock densities                     ... done
Calculating cut-offs                               ... done
Initializing the effective Hamiltonian             ... done
Setting up the integral package (SHARK)            ... done
Starting the Coulomb interaction                   ... done (   1.0 sec)
Reading the grid                                   ... done
Mapping shells                                     ... done
Starting the XC term evaluation                    ... done (   0.9 sec)
  promolecular density results
     # of electrons  =     87.996040858
     EX              =    -71.025303085
     EC              =     -2.926749590
     EX+EC           =    -73.952052676
Transforming the Hamiltonian                       ... done (   0.1 sec)
Diagonalizing the Hamiltonian                      ... done (   0.1 sec)
Back transforming the eigenvectors                 ... done (   0.0 sec)
Now organizing SCF variables                       ... done
                      ------------------
                      INITIAL GUESS DONE (   2.5 sec)
                      ------------------
-------------------
DFT GRID GENERATION
-------------------

General Integration Accuracy     IntAcc      ... 4.388
Radial Grid Type                 RadialGrid  ... OptM3 with GC (2021)
Angular Grid (max. ang.)         AngularGrid ... 4 (Lebedev-302)
Angular grid pruning method      GridPruning ... 4 (adaptive)
Weight generation scheme         WeightScheme... Becke
Basis function cutoff            BFCut       ... 1.0000e-11
Integration weight cutoff        WCut        ... 1.0000e-14
Angular grids for H and He will be reduced by one unit
Partially contracted basis set               ... off
Rotationally invariant grid construction     ... off

Total number of grid points                  ...   113677
Total number of batches                      ...     1790
Average number of points per batch           ...       63
Average number of grid points per atom       ...     4737
Time for grid setup =    1.205 sec

--------------------
COSX GRID GENERATION
--------------------

GRIDX 1
-------
General Integration Accuracy     IntAcc      ... 3.816
Radial Grid Type                 RadialGrid  ... OptM3 with GC (2021)
Angular Grid (max. ang.)         AngularGrid ... 1 (Lebedev-50)
Angular grid pruning method      GridPruning ... 4 (adaptive)
Weight generation scheme         WeightScheme... Becke
Basis function cutoff            BFCut       ... 1.0000e-11
Integration weight cutoff        WCut        ... 1.0000e-14
Angular grids for H and He will be reduced by one unit
Partially contracted basis set               ... on
Rotationally invariant grid construction     ... off

Total number of grid points                  ...    14556
Total number of batches                      ...      237
Average number of points per batch           ...       61
Average number of grid points per atom       ...      606
UseSFitting                                  ... on

GRIDX 2
-------
General Integration Accuracy     IntAcc      ... 4.020
Radial Grid Type                 RadialGrid  ... OptM3 with GC (2021)
Angular Grid (max. ang.)         AngularGrid ... 2 (Lebedev-110)
Angular grid pruning method      GridPruning ... 4 (adaptive)
Weight generation scheme         WeightScheme... Becke
Basis function cutoff            BFCut       ... 1.0000e-11
Integration weight cutoff        WCut        ... 1.0000e-14
Angular grids for H and He will be reduced by one unit
Partially contracted basis set               ... on
Rotationally invariant grid construction     ... off

Total number of grid points                  ...    33856
Total number of batches                      ...      543
Average number of points per batch           ...       62
Average number of grid points per atom       ...     1411
UseSFitting                                  ... on

GRIDX 3
-------
General Integration Accuracy     IntAcc      ... 4.338
Radial Grid Type                 RadialGrid  ... OptM3 with GC (2021)
Angular Grid (max. ang.)         AngularGrid ... 3 (Lebedev-194)
Angular grid pruning method      GridPruning ... 4 (adaptive)
Weight generation scheme         WeightScheme... Becke
Basis function cutoff            BFCut       ... 1.0000e-11
Integration weight cutoff        WCut        ... 1.0000e-14
Angular grids for H and He will be reduced by one unit
Partially contracted basis set               ... on
Rotationally invariant grid construction     ... off

Total number of grid points                  ...    73054
Total number of batches                      ...     1153
Average number of points per batch           ...       63
Average number of grid points per atom       ...     3044
UseSFitting                                  ... on

Time for X-Grid setup             =    2.344 sec


--------------------
CPCM SOLVATION MODEL
--------------------
CPCM parameters:
  Epsilon                                         ...       2.0165
  Refrac                                          ...       1.4266
  Rsolv                                           ...       1.3000
  Surface type                                    ... GAUSSIAN VDW
  Epsilon function type                           ...         CPCM
Solvent:                                     ... CYCLOHEXANE
SMD-CDS solvent descriptors:
  Soln                                       ...    1.4266
  Soln25                                     ...    1.4235
  Sola                                       ...    0.0000
  Solb                                       ...    0.0000
  Solg                                       ...   35.4800
  Solc                                       ...    0.0000
  Solh                                       ...    0.0000
Radii:
 Radius for C  used is    3.4960 Bohr (=   1.8500 Ang.)
 Radius for O  used is    4.3350 Bohr (=   2.2940 Ang.)
 Radius for H  used is    2.2677 Bohr (=   1.2000 Ang.)
Calculating surface                               ...        done! (  0.0s)
GEPOL surface points                              ...         1353
GEPOL Volume                                      ...    1335.3336
GEPOL Surface-area                                ...     750.0000
Calculating surface distance matrix               ...        done! (  0.0s)
Performing Cholesky decomposition & store         ...        done! (  0.1s)
Overall time for CPCM initialization              ...                 0.1s
 re-compute Schwartz prescreening matrix in partically contracted basis (1) ...done (   0.152 sec)
--------------
SCF ITERATIONS
--------------
ITER       Energy         Delta-E        Max-DP      RMS-DP      [F,P]     Damp
               ***  Starting incremental Fock matrix formation  ***
  0   -537.9957444243   0.000000000000 0.06853875  0.00093094  0.1666182 0.7000
  1   -538.1091353017  -0.113390877400 0.04978344  0.00065377  0.0914437 0.7000
                               ***Turning on DIIS***
  2   -538.1615756595  -0.052440357823 0.09889079  0.00132268  0.0394564 0.0000
  3   -538.2378580105  -0.076282350967 0.03060688  0.00037282  0.0478858 0.0000
  4   -538.2555992089  -0.017741198399 0.00800230  0.00009724  0.0075338 0.0000
  5   -538.2562975734  -0.000698364489 0.00349726  0.00003323  0.0037345 0.0000
                      *** Initiating the SOSCF procedure ***
                           *** Shutting down DIIS ***
                      *** Re-Reading the Fockian *** 
                      *** Removing any level shift *** 
ITER      Energy       Delta-E        Grad      Rot      Max-DP    RMS-DP
  6   -538.25637445  -0.0000768790  0.000273  0.000273  0.002430  0.000027
               *** Restarting incremental Fock matrix formation ***
  7   -538.25639020  -0.0000157436  0.000408  0.001912  0.003911  0.000056
  8   -538.25638044   0.0000097562  0.000782  0.001264  0.001320  0.000011
  9   -538.25639417  -0.0000137314  0.000023  0.000088  0.000728  0.000007
 10   -538.25639417  -0.0000000006  0.000035  0.000048  0.000254  0.000003
                  ***Gradient check signals convergence***
              ***Rediagonalizing the Fockian in SOSCF/NRSCF***

               *****************************************************
               *                     SUCCESS                       *
               *           SCF CONVERGED AFTER  11 CYCLES          *
               *****************************************************

Old exchange energy                            =    -18.146429663 Eh
New exchange energy                            =    -18.146397017 Eh
Exchange energy change after final integration =      0.000032646 Eh
Total energy after final integration           =   -538.256361578 Eh
Final COS-X integration done in                =    49.191 sec

SMD CDS free energy correction energy :                -2.58603     Kcal/mol
Total Energy after SMD CDS correction =              -538.260482674 Eh

----------------
TOTAL SCF ENERGY
----------------

Total Energy       :         -538.26048267 Eh          -14646.81236 eV

Components:
Nuclear Repulsion  :          678.47788110 Eh           18462.32175 eV
Electronic Energy  :        -1216.73836377 Eh          -33109.13411 eV
One Electron Energy:        -2076.37009648 Eh          -56500.90278 eV
Two Electron Energy:          859.63173270 Eh           23391.76866 eV
Max COSX asymmetry :            0.00003779 Eh               0.00103 eV
CPCM Dielectric    :           -0.00661113 Eh              -0.17990 eV
SMD CDS (Gcds)     :           -0.00412110 Eh              -0.11214 eV

Virial components:
Potential Energy   :        -1073.39924822 Eh          -29208.67848 eV
Kinetic Energy     :          535.13876554 Eh           14561.86612 eV
Virial Ratio       :            2.00583347


DFT components:
N(Alpha)           :       43.999997185393 electrons
N(Beta)            :       43.999997185393 electrons
N(Total)           :       87.999994370787 electrons
E(X)               :      -54.294776272409 Eh       
E(C)               :       -2.927765235061 Eh       
E(XC)              :      -57.222541507470 Eh       
DFET-embed. en.    :        0.000000000000 Eh       
CPCM Solvation Model Properties:
Surface-charge          :           -0.04822942
Charge-correction       :            0.00008533 Eh               0.00232 eV
Free-energy (cav+disp)  :           -0.00412110 Eh              -0.11214 eV

---------------
SCF CONVERGENCE
---------------

  Last Energy change         ...   -5.1350e-08  Tolerance :   1.0000e-08
  Last MAX-Density change    ...    3.9968e-15  Tolerance :   1.0000e-07
  Last RMS-Density change    ...    1.5288e-17  Tolerance :   5.0000e-09
  Last Orbital Gradient      ...    1.4117e-06  Tolerance :   1.0000e-05
  Last Orbital Rotation      ...    7.8410e-06  Tolerance :   1.0000e-05

             **** THE GBW FILE WAS UPDATED (optpbed3-wb2plyp-train-7.gbw) ****
             **** DENSITY optpbed3-wb2plyp-train-7.scfp WAS UPDATED ****
             **** ENERGY FILE WAS UPDATED (optpbed3-wb2plyp-train-7.en.tmp) ****
             **** THE GBW FILE WAS UPDATED (optpbed3-wb2plyp-train-7.gbw) ****
             **** DENSITY optpbed3-wb2plyp-train-7.scfp WAS UPDATED ****
----------------
ORBITAL ENERGIES
----------------

  NO   OCC          E(Eh)            E(eV) 
   0   2.0000     -19.242627      -523.6185 
   1   2.0000     -19.240929      -523.5723 
   2   2.0000     -10.287337      -279.9327 
   3   2.0000     -10.286389      -279.9069 
   4   2.0000     -10.268706      -279.4257 
   5   2.0000     -10.267976      -279.4058 
   6   2.0000     -10.232121      -278.4302 
   7   2.0000     -10.227758      -278.3114 
   8   2.0000     -10.226324      -278.2724 
   9   2.0000     -10.225172      -278.2411 
  10   2.0000     -10.221575      -278.1432 
  11   2.0000     -10.211891      -277.8797 
  12   2.0000      -1.109098       -30.1801 
  13   2.0000      -1.088848       -29.6291 
  14   2.0000      -0.887884       -24.1606 
  15   2.0000      -0.818129       -22.2624 
  16   2.0000      -0.779984       -21.2244 
  17   2.0000      -0.763993       -20.7893 
  18   2.0000      -0.724614       -19.7178 
  19   2.0000      -0.705426       -19.1956 
  20   2.0000      -0.637531       -17.3481 
  21   2.0000      -0.619945       -16.8696 
  22   2.0000      -0.577575       -15.7166 
  23   2.0000      -0.552491       -15.0340 
  24   2.0000      -0.524564       -14.2741 
  25   2.0000      -0.514995       -14.0137 
  26   2.0000      -0.491934       -13.3862 
  27   2.0000      -0.485036       -13.1985 
  28   2.0000      -0.475629       -12.9425 
  29   2.0000      -0.462284       -12.5794 
  30   2.0000      -0.451333       -12.2814 
  31   2.0000      -0.438676       -11.9370 
  32   2.0000      -0.421304       -11.4643 
  33   2.0000      -0.404475       -11.0063 
  34   2.0000      -0.399660       -10.8753 
  35   2.0000      -0.381258       -10.3746 
  36   2.0000      -0.364133        -9.9086 
  37   2.0000      -0.355144        -9.6640 
  38   2.0000      -0.343017        -9.3340 
  39   2.0000      -0.337898        -9.1947 
  40   2.0000      -0.336881        -9.1670 
  41   2.0000      -0.291880        -7.9425 
  42   2.0000      -0.251708        -6.8493 
  43   2.0000      -0.211865        -5.7651 
  44   0.0000      -0.031387        -0.8541 
  45   0.0000       0.001532         0.0417 
  46   0.0000       0.008459         0.2302 
  47   0.0000       0.011113         0.3024 
  48   0.0000       0.016717         0.4549 
  49   0.0000       0.027367         0.7447 
  50   0.0000       0.030615         0.8331 
  51   0.0000       0.037251         1.0136 
  52   0.0000       0.037633         1.0240 
  53   0.0000       0.049720         1.3530 
  54   0.0000       0.056523         1.5381 
  55   0.0000       0.057952         1.5769 
  56   0.0000       0.059857         1.6288 
  57   0.0000       0.061721         1.6795 
  58   0.0000       0.062894         1.7114 
  59   0.0000       0.070114         1.9079 
  60   0.0000       0.084784         2.3071 
  61   0.0000       0.085861         2.3364 
  62   0.0000       0.090199         2.4544 
  63   0.0000       0.097890         2.6637 
  64   0.0000       0.098940         2.6923 
  65   0.0000       0.104358         2.8397 
  66   0.0000       0.109486         2.9793 
  67   0.0000       0.115954         3.1553 
  68   0.0000       0.117015         3.1842 
  69   0.0000       0.121653         3.3103 
  70   0.0000       0.127112         3.4589 
  71   0.0000       0.128339         3.4923 
  72   0.0000       0.129089         3.5127 
  73   0.0000       0.136769         3.7217 
  74   0.0000       0.141022         3.8374 
  75   0.0000       0.143841         3.9141 
  76   0.0000       0.147121         4.0034 
  77   0.0000       0.153757         4.1839 
  78   0.0000       0.154010         4.1908 
  79   0.0000       0.157726         4.2920 
  80   0.0000       0.161762         4.4018 
  81   0.0000       0.166304         4.5254 
  82   0.0000       0.174676         4.7532 
  83   0.0000       0.176476         4.8022 
  84   0.0000       0.183967         5.0060 
  85   0.0000       0.184452         5.0192 
  86   0.0000       0.187812         5.1106 
  87   0.0000       0.189278         5.1505 
  88   0.0000       0.191443         5.2094 
  89   0.0000       0.193820         5.2741 
  90   0.0000       0.198311         5.3963 
  91   0.0000       0.198581         5.4037 
  92   0.0000       0.199450         5.4273 
  93   0.0000       0.205271         5.5857 
  94   0.0000       0.213598         5.8123 
  95   0.0000       0.225406         6.1336 
  96   0.0000       0.228272         6.2116 
  97   0.0000       0.233082         6.3425 
  98   0.0000       0.238932         6.5017 
  99   0.0000       0.242403         6.5961 
 100   0.0000       0.246041         6.6951 
 101   0.0000       0.247675         6.7396 
 102   0.0000       0.255883         6.9629 
 103   0.0000       0.266310         7.2467 
 104   0.0000       0.268407         7.3037 
 105   0.0000       0.273158         7.4330 
 106   0.0000       0.275561         7.4984 
 107   0.0000       0.276245         7.5170 
 108   0.0000       0.280392         7.6299 
 109   0.0000       0.282071         7.6756 
 110   0.0000       0.286224         7.7886 
 111   0.0000       0.287406         7.8207 
 112   0.0000       0.293124         7.9763 
 113   0.0000       0.300258         8.1704 
 114   0.0000       0.304985         8.2991 
 115   0.0000       0.312920         8.5150 
 116   0.0000       0.313689         8.5359 
 117   0.0000       0.316707         8.6180 
 118   0.0000       0.322742         8.7823 
 119   0.0000       0.330338         8.9890 
 120   0.0000       0.335163         9.1202 
 121   0.0000       0.346124         9.4185 
 122   0.0000       0.350947         9.5498 
 123   0.0000       0.353611         9.6223 
 124   0.0000       0.353875         9.6294 
 125   0.0000       0.362460         9.8630 
 126   0.0000       0.365319         9.9408 
 127   0.0000       0.371808        10.1174 
 128   0.0000       0.381698        10.3865 
 129   0.0000       0.383219        10.4279 
 130   0.0000       0.384682        10.4677 
 131   0.0000       0.391581        10.6554 
 132   0.0000       0.396470        10.7885 
 133   0.0000       0.399318        10.8660 
 134   0.0000       0.406931        11.0732 
 135   0.0000       0.408340        11.1115 
 136   0.0000       0.410154        11.1609 
 137   0.0000       0.412815        11.2333 
 138   0.0000       0.415895        11.3171 
 139   0.0000       0.417829        11.3697 
 140   0.0000       0.425859        11.5882 
 141   0.0000       0.427850        11.6424 
 142   0.0000       0.435213        11.8428 
 143   0.0000       0.436154        11.8683 
 144   0.0000       0.445838        12.1319 
 145   0.0000       0.452536        12.3141 
 146   0.0000       0.459514        12.5040 
 147   0.0000       0.460906        12.5419 
 148   0.0000       0.465837        12.6761 
 149   0.0000       0.467559        12.7229 
 150   0.0000       0.471863        12.8401 
 151   0.0000       0.482512        13.1298 
 152   0.0000       0.493387        13.4257 
 153   0.0000       0.500205        13.6113 
 154   0.0000       0.505071        13.7437 
 155   0.0000       0.506428        13.7806 
 156   0.0000       0.510938        13.9033 
 157   0.0000       0.513388        13.9700 
 158   0.0000       0.516450        14.0533 
 159   0.0000       0.521459        14.1896 
 160   0.0000       0.528307        14.3760 
 161   0.0000       0.540027        14.6949 
 162   0.0000       0.542363        14.7584 
 163   0.0000       0.553567        15.0633 
 164   0.0000       0.567963        15.4551 
 165   0.0000       0.570234        15.5168 
 166   0.0000       0.578447        15.7403 
 167   0.0000       0.589862        16.0510 
 168   0.0000       0.597193        16.2505 
 169   0.0000       0.598918        16.2974 
 170   0.0000       0.606788        16.5115 
 171   0.0000       0.612061        16.6550 
 172   0.0000       0.620841        16.8939 
 173   0.0000       0.624618        16.9967 
 174   0.0000       0.632942        17.2232 
 175   0.0000       0.636408        17.3175 
 176   0.0000       0.641559        17.4577 
 177   0.0000       0.646130        17.5821 
 178   0.0000       0.664644        18.0859 
 179   0.0000       0.674036        18.3415 
 180   0.0000       0.675347        18.3771 
 181   0.0000       0.681650        18.5486 
 182   0.0000       0.683132        18.5890 
 183   0.0000       0.687658        18.7121 
 184   0.0000       0.693072        18.8594 
 185   0.0000       0.695041        18.9130 
 186   0.0000       0.697900        18.9908 
 187   0.0000       0.701185        19.0802 
 188   0.0000       0.714432        19.4407 
 189   0.0000       0.717656        19.5284 
 190   0.0000       0.721911        19.6442 
 191   0.0000       0.729569        19.8526 
 192   0.0000       0.736798        20.0493 
 193   0.0000       0.737976        20.0813 
 194   0.0000       0.745150        20.2766 
 195   0.0000       0.753894        20.5145 
 196   0.0000       0.756475        20.5847 
 197   0.0000       0.764557        20.8047 
 198   0.0000       0.765823        20.8391 
 199   0.0000       0.771836        21.0027 
 200   0.0000       0.775086        21.0912 
 201   0.0000       0.781092        21.2546 
 202   0.0000       0.786322        21.3969 
 203   0.0000       0.789154        21.4740 
 204   0.0000       0.797036        21.6885 
 205   0.0000       0.810377        22.0515 
 206   0.0000       0.812703        22.1148 
 207   0.0000       0.821450        22.3528 
 208   0.0000       0.823778        22.4162 
 209   0.0000       0.832484        22.6530 
 210   0.0000       0.833476        22.6800 
 211   0.0000       0.837486        22.7892 
 212   0.0000       0.850158        23.1340 
 213   0.0000       0.850810        23.1517 
 214   0.0000       0.852482        23.1972 
 215   0.0000       0.859619        23.3914 
 216   0.0000       0.863197        23.4888 
 217   0.0000       0.874020        23.7833 
 218   0.0000       0.882587        24.0164 
 219   0.0000       0.888966        24.1900 
 220   0.0000       0.896387        24.3919 
 221   0.0000       0.908956        24.7339 
 222   0.0000       0.917739        24.9730 
 223   0.0000       0.919736        25.0273 
 224   0.0000       0.926353        25.2073 
 225   0.0000       0.929148        25.2834 
 226   0.0000       0.941491        25.6193 
 227   0.0000       0.947595        25.7854 
 228   0.0000       0.958971        26.0949 
 229   0.0000       0.960521        26.1371 
 230   0.0000       0.961670        26.1684 
 231   0.0000       0.966684        26.3048 
 232   0.0000       0.977771        26.6065 
 233   0.0000       0.980116        26.6703 
 234   0.0000       0.984311        26.7845 
 235   0.0000       0.996220        27.1085 
 236   0.0000       0.998352        27.1665 
 237   0.0000       1.007073        27.4039 
 238   0.0000       1.016705        27.6660 
 239   0.0000       1.018668        27.7194 
 240   0.0000       1.026003        27.9190 
 241   0.0000       1.039956        28.2987 
 242   0.0000       1.046601        28.4795 
 243   0.0000       1.047462        28.5029 
 244   0.0000       1.053381        28.6639 
 245   0.0000       1.059768        28.8377 
 246   0.0000       1.070415        29.1275 
 247   0.0000       1.086855        29.5748 
 248   0.0000       1.098507        29.8919 
 249   0.0000       1.100462        29.9451 
 250   0.0000       1.115459        30.3532 
 251   0.0000       1.126291        30.6479 
 252   0.0000       1.128739        30.7145 
 253   0.0000       1.131708        30.7953 
 254   0.0000       1.135418        30.8963 
 255   0.0000       1.150495        31.3066 
 256   0.0000       1.159490        31.5513 
 257   0.0000       1.168906        31.8076 
 258   0.0000       1.174166        31.9507 
 259   0.0000       1.178707        32.0743 
 260   0.0000       1.186362        32.2826 
 261   0.0000       1.197706        32.5912 
 262   0.0000       1.210041        32.9269 
 263   0.0000       1.221799        33.2468 
 264   0.0000       1.227551        33.4034 
 265   0.0000       1.242513        33.8105 
 266   0.0000       1.243070        33.8256 
 267   0.0000       1.247576        33.9483 
 268   0.0000       1.264188        34.4003 
 269   0.0000       1.272332        34.6219 
 270   0.0000       1.275692        34.7133 
 271   0.0000       1.278566        34.7916 
 272   0.0000       1.286784        35.0152 
 273   0.0000       1.292735        35.1771 
 274   0.0000       1.294693        35.2304 
 275   0.0000       1.300824        35.3972 
 276   0.0000       1.302897        35.4536 
 277   0.0000       1.312489        35.7146 
 278   0.0000       1.318327        35.8735 
 279   0.0000       1.325664        36.0731 
 280   0.0000       1.334729        36.3198 
 281   0.0000       1.339902        36.4606 
 282   0.0000       1.345620        36.6162 
 283   0.0000       1.347704        36.6729 
 284   0.0000       1.355522        36.8856 
 285   0.0000       1.367958        37.2240 
 286   0.0000       1.376939        37.4684 
 287   0.0000       1.380026        37.5524 
 288   0.0000       1.392530        37.8927 
 289   0.0000       1.397497        38.0278 
 290   0.0000       1.401852        38.1463 
 291   0.0000       1.412107        38.4254 
 292   0.0000       1.418114        38.5889 
 293   0.0000       1.420546        38.6550 
 294   0.0000       1.429381        38.8954 
 295   0.0000       1.432628        38.9838 
 296   0.0000       1.443684        39.2846 
 297   0.0000       1.445163        39.3249 
 298   0.0000       1.459660        39.7194 
 299   0.0000       1.468751        39.9667 
 300   0.0000       1.478472        40.2313 
 301   0.0000       1.480127        40.2763 
 302   0.0000       1.492644        40.6169 
 303   0.0000       1.494194        40.6591 
 304   0.0000       1.495632        40.6982 
 305   0.0000       1.507174        41.0123 
 306   0.0000       1.509097        41.0646 
 307   0.0000       1.510934        41.1146 
 308   0.0000       1.519993        41.3611 
 309   0.0000       1.523207        41.4486 
 310   0.0000       1.527983        41.5785 
 311   0.0000       1.532334        41.6969 
 312   0.0000       1.540894        41.9299 
 313   0.0000       1.545949        42.0674 
 314   0.0000       1.562544        42.5190 
 315   0.0000       1.567565        42.6556 
 316   0.0000       1.581871        43.0449 
 317   0.0000       1.585965        43.1563 
 318   0.0000       1.593720        43.3673 
 319   0.0000       1.595195        43.4075 
 320   0.0000       1.605953        43.7002 
 321   0.0000       1.608951        43.7818 
 322   0.0000       1.624952        44.2172 
 323   0.0000       1.628439        44.3121 
[...]
   Time for K (COSX):            18.151
   Time for XC-Integration:       7.266
   Time for LR-CPCM terms:        4.231
   Time for Sigma-Completion:     0.053
   Size of expansion space: 50
   Lowest Energy          :     0.181097779913
   Maximum Energy change  :     0.003175980842 (vector 0)
   Maximum residual norm  :     0.000292834485

                       ****Iteration    3****
   Time for densities:            0.083
   Time for RI-J (Direct):        4.090
   Time for K (COSX):            18.163
   Time for XC-Integration:       7.305
   Time for LR-CPCM terms:        4.327
   Time for Sigma-Completion:     0.069
   Size of expansion space: 60
   Lowest Energy          :     0.180735998340
   Maximum Energy change  :     0.000519523790 (vector 7)
   Maximum residual norm  :     0.000063900398

                       ****Iteration    4****
   Time for densities:            0.087
   Time for RI-J (Direct):        4.141
   Time for K (COSX):            18.228
   Time for XC-Integration:       7.491
   Time for LR-CPCM terms:        4.332
   Time for Sigma-Completion:     0.052
   Size of expansion space: 70
   Lowest Energy          :     0.180659087619
   Maximum Energy change  :     0.000200647298 (vector 7)
   Maximum residual norm  :     0.000054662325
   Rebuilding the expansion space

                       ****Iteration    5****
   Time for densities:            0.166
   Time for RI-J (Direct):        5.379
   Time for K (COSX):            30.361
   Time for XC-Integration:      14.618
   Time for LR-CPCM terms:        6.772
   Time for Sigma-Completion:     0.134
   Size of expansion space: 20
   Lowest Energy          :     0.180649137737
   Maximum Energy change  :     0.000087489052 (vector 7)
   Maximum residual norm  :     0.000019688834

                       ****Iteration    6****
   Time for densities:            0.077
   Time for RI-J (Direct):        4.123
   Time for K (COSX):            18.379
   Time for XC-Integration:       7.483
   Time for LR-CPCM terms:        4.276
   Time for Sigma-Completion:     0.059
   Size of expansion space: 30
   Lowest Energy          :     0.180647553727
   Maximum Energy change  :     0.000052552312 (vector 7)
   Maximum residual norm  :     0.000015571677

                       ****Iteration    7****
   Time for densities:            0.087
   Time for RI-J (Direct):        4.168
   Time for K (COSX):            18.061
   Time for XC-Integration:       7.523
   Time for LR-CPCM terms:        4.266
   Time for Sigma-Completion:     0.061
   Size of expansion space: 40
   Lowest Energy          :     0.180647238560
   Maximum Energy change  :     0.000118702281 (vector 6)
   Maximum residual norm  :     0.000045715606

                       ****Iteration    8****
   Time for densities:            0.076
   Time for RI-J (Direct):        4.106
   Time for K (COSX):            18.255
   Time for XC-Integration:       7.445
   Time for LR-CPCM terms:        4.348
   Time for Sigma-Completion:     0.055
   Size of expansion space: 50
   Lowest Energy          :     0.180647200558
   Maximum Energy change  :     0.000421242776 (vector 9)
   Maximum residual norm  :     0.000680474023

                       ****Iteration    9****
   Time for densities:            0.082
   Time for RI-J (Direct):        4.152
   Time for K (COSX):            18.142
   Time for XC-Integration:       7.572
   Time for LR-CPCM terms:        4.306
   Time for Sigma-Completion:     0.055
   Size of expansion space: 60
   Lowest Energy          :     0.180647195511
   Maximum Energy change  :     0.001078932236 (vector 9)
   Maximum residual norm  :     0.000111047398

                       ****Iteration   10****
   Time for densities:            0.083
   Time for RI-J (Direct):        4.091
   Time for K (COSX):            18.427
   Time for XC-Integration:       7.439
   Time for LR-CPCM terms:        4.326
   Time for Sigma-Completion:     0.066
   Size of expansion space: 70
   Lowest Energy          :     0.180647195151
   Maximum Energy change  :     0.000173369207 (vector 9)
   Maximum residual norm  :     0.000019037679
   Rebuilding the expansion space

                       ****Iteration   11****
   Time for densities:            0.162
   Time for RI-J (Direct):        5.392
   Time for K (COSX):            30.481
   Time for XC-Integration:      13.888
   Time for LR-CPCM terms:        6.851
   Time for Sigma-Completion:     0.112
   Size of expansion space: 20
   Lowest Energy          :     0.180647199608
   Maximum Energy change  :     0.000029949358 (vector 9)
   Maximum residual norm  :     0.000007349847

                       ****Iteration   12****
   Time for densities:            0.086
   Time for RI-J (Direct):        4.208
   Time for K (COSX):            18.061
   Time for XC-Integration:       8.004
   Time for LR-CPCM terms:        4.312
   Time for Sigma-Completion:     0.058
   Size of expansion space: 30
   Lowest Energy          :     0.180647199606
   Maximum Energy change  :     0.000012048420 (vector 9)
   Maximum residual norm  :     0.000001925361

                       ****Iteration   13****
   Time for densities:            0.078
   Time for RI-J (Direct):        4.133
   Time for K (COSX):            18.522
   Time for XC-Integration:       7.453
   Time for LR-CPCM terms:        4.331
   Time for Sigma-Completion:     0.060
   Size of expansion space: 40
   Lowest Energy          :     0.180647199606
   Maximum Energy change  :     0.000003068963 (vector 9)
   Maximum residual norm  :     0.000000321130

      *** CONVERGENCE OF RESIDUAL NORM REACHED ***

Storing the converged CI vectors               ... optpbed3-wb2plyp-train-7_job2.cis1

                 *** DAVIDSON DONE ***

Total time for solving the CIS problem:   576.560sec

------------------
DOUBLES CORRECTION (Double precision version)
------------------

The (D) correction will be scaled by  0.2700
Doing v(i,a)*T(i,a) terms (RI)                    ... ok
Doing u(i,j,a,b) terms for state   0              ... ok
Doing u(i,j,a,b) terms for state   1              ... ok
Doing u(i,j,a,b) terms for state   2              ... ok
Doing u(i,j,a,b) terms for state   3              ... ok
Doing u(i,j,a,b) terms for state   4              ... ok
Doing u(i,j,a,b) terms for state   5              ... ok
Doing u(i,j,a,b) terms for state   6              ... ok
Doing u(i,j,a,b) terms for state   7              ... ok
Doing u(i,j,a,b) terms for state   8              ... ok
Doing u(i,j,a,b) terms for state   9              ... ok

Contributions to the (D) correction(s) (in eV)

STATE  Final   Init.   Total   v(ext)   v(int)  v(3)    u
       omega   omega     (D)                             
-----------------------------------------------------------------------------
   0   4.806   4.916  -0.110   0.385   0.820  -0.059  -1.255
   1   4.936   5.260  -0.325   0.439   0.825  -0.034  -1.556
   2   5.476   5.614  -0.138   0.034   0.838  -0.002  -1.008
   3   5.845   5.991  -0.146   0.041   0.820  -0.002  -1.005
   4   5.935   6.106  -0.171   0.032   0.827  -0.001  -1.029
   5   6.259   6.408  -0.149   0.055   0.839  -0.007  -1.036
   6   6.164   6.480  -0.317   0.333   0.787  -0.079  -1.358
   7   6.263   6.494  -0.231   0.065   0.826  -0.008  -1.113
   8   6.423   6.610  -0.187   0.062   0.798  -0.008  -1.040
   9   6.473   6.626  -0.153   0.303   0.777  -0.057  -1.175

(D)-timings
 V(i,a)*T(i,a) terms           ...    38.941 sec
 U(i,j,a,b) 3-internal         ...     2.276 sec
 U(i,j,a,b) 3-external         ...    34.115 sec
 U(i,j,a,b) pair terms         ...    33.631 sec
 Total measured time           ...   284.091 sec

 Time for (ab|v) I/O           ...    16.733 sec


------------------------------------
TD-DFT/TDA EXCITED STATES (SINGLETS)
------------------------------------

the weight of the individual excitations are printed if larger than 1.0e-02

STATE  1:  E=   0.176620 au      4.806 eV    38763.6 cm**-1 <S**2> =   0.000000
    41a ->  47a  :     0.016538 (c= -0.12860017)
    42a ->  47a  :     0.010546 (c=  0.10269475)
    42a ->  54a  :     0.010169 (c= -0.10083917)
    43a ->  47a  :     0.835602 (c= -0.91411250)
    43a ->  50a  :     0.016224 (c=  0.12737156)
    43a ->  57a  :     0.016836 (c=  0.12975330)
    43a ->  61a  :     0.016209 (c= -0.12731357)

STATE  2:  E=   0.181376 au      4.936 eV    39807.5 cm**-1 <S**2> =   0.000000
    42a ->  47a  :     0.231150 (c= -0.48078112)
    42a ->  57a  :     0.023604 (c=  0.15363445)
    42a ->  61a  :     0.016213 (c= -0.12732899)
    42a ->  77a  :     0.011649 (c=  0.10793185)
    43a ->  47a  :     0.011219 (c= -0.10591772)
    43a ->  50a  :     0.044812 (c= -0.21168806)
    43a ->  52a  :     0.018040 (c= -0.13431459)
    43a ->  54a  :     0.351873 (c=  0.59318870)
    43a ->  57a  :     0.159690 (c=  0.39961185)
    43a ->  61a  :     0.024070 (c=  0.15514441)

STATE  3:  E=   0.201250 au      5.476 eV    44169.2 cm**-1 <S**2> =   0.000000
    41a ->  46a  :     0.010422 (c=  0.10209032)
    43a ->  44a  :     0.010983 (c= -0.10480171)
    43a ->  45a  :     0.370132 (c= -0.60838464)
    43a ->  48a  :     0.014570 (c= -0.12070528)
    43a ->  51a  :     0.415922 (c=  0.64492036)
    43a ->  55a  :     0.060742 (c=  0.24645879)
    43a ->  58a  :     0.019198 (c=  0.13855514)

STATE  4:  E=   0.214816 au      5.845 eV    47146.6 cm**-1 <S**2> =   0.000000
    41a ->  45a  :     0.018002 (c= -0.13417129)
    41a ->  49a  :     0.011310 (c=  0.10634719)
    42a ->  45a  :     0.012787 (c=  0.11308124)
    43a ->  45a  :     0.091698 (c= -0.30281645)
    43a ->  46a  :     0.517598 (c=  0.71944312)
    43a ->  48a  :     0.010979 (c=  0.10477842)
    43a ->  49a  :     0.066128 (c= -0.25715373)
    43a ->  51a  :     0.061494 (c= -0.24797984)
    43a ->  55a  :     0.031782 (c= -0.17827464)
    43a ->  56a  :     0.023623 (c= -0.15369845)
    43a ->  58a  :     0.014598 (c=  0.12082290)
    43a ->  70a  :     0.021548 (c=  0.14679358)
    43a ->  73a  :     0.010261 (c=  0.10129536)

STATE  5:  E=   0.218102 au      5.935 eV    47867.7 cm**-1 <S**2> =   0.000000
    41a ->  48a  :     0.012261 (c=  0.11072812)
    43a ->  44a  :     0.653145 (c=  0.80817413)
    43a ->  48a  :     0.178915 (c=  0.42298337)
    43a ->  49a  :     0.030682 (c=  0.17516384)
    43a ->  55a  :     0.014663 (c=  0.12108968)
    43a ->  56a  :     0.019319 (c= -0.13899255)
    43a ->  75a  :     0.012733 (c=  0.11284193)

STATE  6:  E=   0.230027 au      6.259 eV    50485.1 cm**-1 <S**2> =   0.000000
    42a ->  47a  :     0.011185 (c= -0.10575739)
    42a ->  54a  :     0.024028 (c= -0.15501021)
    43a ->  47a  :     0.016239 (c= -0.12743151)
    43a ->  50a  :     0.621280 (c= -0.78821293)
    43a ->  57a  :     0.114731 (c= -0.33871945)
    43a ->  59a  :     0.019371 (c=  0.13918003)
    43a ->  60a  :     0.047641 (c=  0.21826928)
    43a ->  63a  :     0.047769 (c=  0.21856133)

STATE  7:  E=   0.226505 au      6.164 eV    49712.0 cm**-1 <S**2> =   0.000000
    41a ->  47a  :     0.025970 (c=  0.16115068)
    42a ->  47a  :     0.460896 (c= -0.67889296)
    42a ->  50a  :     0.013092 (c=  0.11441927)
    42a ->  54a  :     0.061133 (c= -0.24725134)
    42a ->  61a  :     0.028109 (c= -0.16765788)
    43a ->  45a  :     0.019986 (c=  0.14137177)
    43a ->  46a  :     0.017562 (c=  0.13252241)
    43a ->  48a  :     0.011206 (c= -0.10585724)
    43a ->  49a  :     0.016556 (c=  0.12866888)
    43a ->  50a  :     0.058108 (c=  0.24105505)
    43a ->  54a  :     0.131109 (c= -0.36208954)
    43a ->  60a  :     0.014402 (c=  0.12000905)
    43a ->  61a  :     0.013846 (c= -0.11766788)

STATE  8:  E=   0.230162 au      6.263 eV    50514.6 cm**-1 <S**2> =   0.000000
    41a ->  45a  :     0.010398 (c=  0.10196871)
    42a ->  47a  :     0.038527 (c= -0.19628186)
    43a ->  45a  :     0.219546 (c= -0.46855734)
    43a ->  46a  :     0.213637 (c= -0.46220922)
    43a ->  48a  :     0.095107 (c=  0.30839379)
    43a ->  49a  :     0.164178 (c= -0.40518904)
    43a ->  50a  :     0.029365 (c=  0.17136167)
    43a ->  51a  :     0.019187 (c= -0.13851575)
    43a ->  54a  :     0.012283 (c= -0.11082824)
    43a ->  55a  :     0.013431 (c= -0.11589040)
    43a ->  58a  :     0.023255 (c= -0.15249457)
    43a ->  62a  :     0.022372 (c= -0.14957415)
    43a ->  70a  :     0.016929 (c=  0.13011097)

STATE  9:  E=   0.236052 au      6.423 eV    51807.4 cm**-1 <S**2> =   0.000000
    41a ->  44a  :     0.019971 (c=  0.14131840)
    42a ->  44a  :     0.020179 (c= -0.14205230)
    42a ->  45a  :     0.170008 (c=  0.41232075)
    42a ->  50a  :     0.022139 (c=  0.14879318)
    42a ->  51a  :     0.101077 (c= -0.31792621)
    42a ->  54a  :     0.025021 (c= -0.15818029)
    42a ->  55a  :     0.035161 (c= -0.18751268)
    42a ->  57a  :     0.010222 (c= -0.10110399)
    43a ->  44a  :     0.083125 (c= -0.28831394)
    43a ->  48a  :     0.197059 (c=  0.44391319)
    43a ->  49a  :     0.094795 (c=  0.30788717)
    43a ->  53a  :     0.017294 (c= -0.13150492)
    43a ->  56a  :     0.047473 (c=  0.21788244)
    43a ->  58a  :     0.014973 (c=  0.12236391)

STATE 10:  E=   0.237877 au      6.473 eV    52207.9 cm**-1 <S**2> =   0.000000
    41a ->  47a  :     0.052274 (c=  0.22863529)
    42a ->  45a  :     0.017339 (c= -0.13167792)
    42a ->  47a  :     0.090000 (c=  0.29999992)
    42a ->  50a  :     0.098211 (c=  0.31338578)
    42a ->  51a  :     0.021137 (c=  0.14538552)
    42a ->  52a  :     0.022036 (c=  0.14844601)
    42a ->  54a  :     0.280391 (c= -0.52951942)
    42a ->  57a  :     0.112981 (c= -0.33612708)
    42a ->  63a  :     0.012583 (c= -0.11217336)
    43a ->  47a  :     0.021130 (c=  0.14536247)
    43a ->  48a  :     0.016045 (c= -0.12666982)
    43a ->  49a  :     0.021013 (c= -0.14495782)
    43a ->  52a  :     0.010623 (c= -0.10306659)
    43a ->  54a  :     0.030437 (c=  0.17446246)
    43a ->  57a  :     0.039577 (c=  0.19894082)
    43a ->  61a  :     0.013286 (c= -0.11526567)
    43a ->  74a  :     0.011899 (c= -0.10908435)
    43a ->  77a  :     0.019405 (c=  0.13930018)


-----------------------------
TD-DFT/TDA-EXCITATION SPECTRA
-----------------------------

Center of mass = ( -0.3041,  0.0086, -0.0381)
Calculating the Dipole integrals                  ... done
Transforming integrals                            ... done
Calculating the Linear Momentum integrals         ... done
Transforming integrals                            ... done
Calculating angular momentum integrals            ... done
Transforming integrals                            ... done

-----------------------------------------------------------------------------
         ABSORPTION SPECTRUM VIA TRANSITION ELECTRIC DIPOLE MOMENTS
-----------------------------------------------------------------------------
State   Energy    Wavelength  fosc         T2        TX        TY        TZ  
        (cm-1)      (nm)                 (au**2)    (au)      (au)      (au) 
-----------------------------------------------------------------------------
   1   38763.6    258.0   0.519165193   4.40917  -1.97821  -0.70363  -0.02780
   2   39807.5    251.2   0.032052717   0.26508  -0.50939   0.04754  -0.05781
   3   44169.2    226.4   0.016517350   0.12311   0.02426  -0.06468  -0.34400
   4   47146.6    212.1   0.000376138   0.00263   0.00985   0.00318  -0.05019
   5   47867.7    208.9   0.002877047   0.01979   0.02932  -0.02794  -0.13471
   6   50485.1    198.1   0.146337944   0.95426   0.96553  -0.08966   0.11819
   7   49712.0    201.2   0.985782292   6.52822   2.27485  -1.08917   0.40866
   8   50514.6    198.0   0.080355500   0.52369   0.63430  -0.33579   0.09274
   9   51807.4    193.0   0.019081633   0.12125   0.10665   0.27130  -0.19047
  10   52207.9    191.5   0.163213361   1.02919   0.28531   0.96822  -0.10162

-----------------------------------------------------------------------------
         ABSORPTION SPECTRUM VIA TRANSITION VELOCITY DIPOLE MOMENTS
-----------------------------------------------------------------------------
State   Energy    Wavelength   fosc        P2         PX        PY        PZ  
        (cm-1)      (nm)                 (au**2)     (au)      (au)      (au) 
-----------------------------------------------------------------------------
   1   38763.6    258.0   0.279996795   0.07418   0.25767   0.08805   0.00576
   2   39807.5    251.2   0.003414460   0.00093   0.02886   0.00976   0.00070
   3   44169.2    226.4   0.006153360   0.00186  -0.00230   0.00745   0.04239
   4   47146.6    212.1   0.006562335   0.00211  -0.00470   0.00523   0.04544
   5   47867.7    208.9   0.002270043   0.00074  -0.00519   0.00527   0.02623
   6   50485.1    198.1   0.070831995   0.02444  -0.15520   0.00824  -0.01692
   7   49712.0    201.2   0.385144387   0.13086  -0.33524   0.12200  -0.05987
   8   50514.6    198.0   0.032474495   0.01121  -0.09622   0.04262   0.01165
   9   51807.4    193.0   0.004621472   0.00164  -0.01841  -0.01754   0.03146
  10   52207.9    191.5   0.023866913   0.00852  -0.04927  -0.07803  -0.00022

-------------------------------------------------------------------
                             CD SPECTRUM
-------------------------------------------------------------------
State  Energy     Wavelength     R         MX        MY        MZ   
       (cm-1)       (nm)     (1e40*cgs)   (au)      (au)      (au)  
-------------------------------------------------------------------
   1   38763.6    258.0     -1.26218  -0.01694   0.04007   0.28763
   2   39807.5    251.2      0.25765   0.01058  -0.02549  -0.12366
   3   44169.2    226.4     -1.46585  -0.01235   0.12134  -0.01465
   4   47146.6    212.1      0.43485  -0.05737   0.15792  -0.01961
   5   47867.7    208.9     -1.33568  -0.12325   0.23227  -0.05396
   6   50485.1    198.1      3.02537   0.00629  -0.02919  -0.01922
   7   49712.0    201.2    -72.16063  -0.01713   0.09444  -0.02748
   8   50514.6    198.0     62.76834   0.04907  -0.29025   0.04906
   9   51807.4    193.0     49.74580   0.32843   0.22305  -0.05238
  10   52207.9    191.5    -61.36884  -0.10385  -0.11689  -0.12439

-------------------------------------------------------------------
         CD SPECTRUM VIA TRANSITION VELOCITY DIPOLE MOMENTS        
-------------------------------------------------------------------
State  Energy     Wavelength     R         MX        MY        MZ   
       (cm-1)       (nm)     (1e40*cgs)   (au)      (au)      (au)  
-------------------------------------------------------------------
   1   38763.6    258.0      2.19144  -0.01694   0.04007   0.28763
   2   39807.5    251.2     -0.07733   0.01058  -0.02549  -0.12366
   3   44169.2    226.4      0.73102  -0.01235   0.12134  -0.01465
   4   47146.6    212.1      0.44782  -0.05737   0.15792  -0.01961
   5   47867.7    208.9      0.96625  -0.12325   0.23227  -0.05396
   6   50485.1    198.1     -1.82654   0.00629  -0.02919  -0.01922
   7   49712.0    201.2     39.35971  -0.01713   0.09444  -0.02748
   8   50514.6    198.0    -33.84210   0.04907  -0.29025   0.04906
   9   51807.4    193.0    -23.18040   0.32843   0.22305  -0.05238
  10   52207.9    191.5     28.27263  -0.10385  -0.11689  -0.12439

Total run time:      865.754 sec

           *** ORCA-CIS/TD-DFT FINISHED WITHOUT ERROR ***

Maximum memory used throughout the entire CIS-calculation: 797.4 MB

-----------------------
CIS/TD-DFT TOTAL ENERGY
-----------------------

    E(SCF)  =   -537.239622473 Eh
    DE(CIS) =      0.176619847 Eh (Root  1)
    ----------------------------- ---------
    E(tot)  =   -537.063002626 Eh

  Warning: (DFTVDWD): Non-parameterized functional used for dispersion correction ! 

  Warning: (D3BJ): Non-parameterized functional used for dispersion correction !

Please define all necessary parameters (s6, s8, a1, and a2) in the %method block!
[file orca_tools/Tool-Misc/qcdftvdw.cpp, line 36127]: ERROR in DFT dispersion correction!

