
                                 *****************
                                 * O   R   C   A *
                                 *****************

                                            #,                                       
                                            ###                                      
                                            ####                                     
                                            #####                                    
                                            ######                                   
                                           ########,                                 
                                     ,,################,,,,,                         
                               ,,#################################,,                 
                          ,,##########################################,,             
                       ,#########################################, ''#####,          
                    ,#############################################,,   '####,        
                  ,##################################################,,,,####,       
                ,###########''''           ''''###############################       
              ,#####''   ,,,,##########,,,,          '''####'''          '####       
            ,##' ,,,,###########################,,,                        '##       
           ' ,,###''''                  '''############,,,                           
         ,,##''                                '''############,,,,        ,,,,,,###''
      ,#''                                            '''#######################'''  
     '                                                          ''''####''''         
             ,#######,   #######,   ,#######,      ##                                
            ,#'     '#,  ##    ##  ,#'     '#,    #''#        ######   ,####,        
            ##       ##  ##   ,#'  ##            #'  '#       #        #'  '#        
            ##       ##  #######   ##           ,######,      #####,   #    #        
            '#,     ,#'  ##    ##  '#,     ,#' ,#      #,         ##   #,  ,#        
             '#######'   ##     ##  '#######'  #'      '#     #####' # '####'        



                  #######################################################
                  #                        -***-                        #
                  #          Department of theory and spectroscopy      #
                  #    Directorship and core code : Frank Neese         #
                  #        Max Planck Institute fuer Kohlenforschung    #
                  #                Kaiser Wilhelm Platz 1               #
                  #                 D-45470 Muelheim/Ruhr               #
                  #                      Germany                        #
                  #                                                     #
                  #                  All rights reserved                #
                  #                        -***-                        #
                  #######################################################


                         Program Version 5.0.2 -  RELEASE  -


 With contributions from (in alphabetic order):
   Daniel Aravena         : Magnetic Suceptibility
   Michael Atanasov       : Ab Initio Ligand Field Theory (pilot matlab implementation)
   Alexander A. Auer      : GIAO ZORA, VPT2 properties, NMR spectrum
   Ute Becker             : Parallelization
   Giovanni Bistoni       : ED, misc. LED, open-shell LED, HFLD
   Martin Brehm           : Molecular dynamics
   Dmytro Bykov           : SCF Hessian
   Vijay G. Chilkuri      : MRCI spin determinant printing, contributions to CSF-ICE
   Dipayan Datta          : RHF DLPNO-CCSD density
   Achintya Kumar Dutta   : EOM-CC, STEOM-CC
   Dmitry Ganyushin       : Spin-Orbit,Spin-Spin,Magnetic field MRCI
   Miquel Garcia          : C-PCM and meta-GGA Hessian, CC/C-PCM, Gaussian charge scheme
   Yang Guo               : DLPNO-NEVPT2, F12-NEVPT2, CIM, IAO-localization
   Andreas Hansen         : Spin unrestricted coupled pair/coupled cluster methods
   Benjamin Helmich-Paris : MC-RPA, TRAH-SCF, COSX integrals
   Lee Huntington         : MR-EOM, pCC
   Robert Izsak           : Overlap fitted RIJCOSX, COSX-SCS-MP3, EOM
   Marcus Kettner         : VPT2
   Christian Kollmar      : KDIIS, OOCD, Brueckner-CCSD(T), CCSD density, CASPT2, CASPT2-K
   Simone Kossmann        : Meta GGA functionals, TD-DFT gradient, OOMP2, MP2 Hessian
   Martin Krupicka        : Initial AUTO-CI
   Lucas Lang             : DCDCAS
   Marvin Lechner         : AUTO-CI (C++ implementation), FIC-MRCC
   Dagmar Lenk            : GEPOL surface, SMD
   Dimitrios Liakos       : Extrapolation schemes; Compound Job, initial MDCI parallelization
   Dimitrios Manganas     : Further ROCIS development; embedding schemes
   Dimitrios Pantazis     : SARC Basis sets
   Anastasios Papadopoulos: AUTO-CI, single reference methods and gradients
   Taras Petrenko         : DFT Hessian,TD-DFT gradient, ASA, ECA, R-Raman, ABS, FL, XAS/XES, NRVS
   Peter Pinski           : DLPNO-MP2, DLPNO-MP2 Gradient
   Christoph Reimann      : Effective Core Potentials
   Marius Retegan         : Local ZFS, SOC
   Christoph Riplinger    : Optimizer, TS searches, QM/MM, DLPNO-CCSD(T), (RO)-DLPNO pert. Triples
   Tobias Risthaus        : Range-separated hybrids, TD-DFT gradient, RPA, STAB
   Michael Roemelt        : Original ROCIS implementation
   Masaaki Saitow         : Open-shell DLPNO-CCSD energy and density
   Barbara Sandhoefer     : DKH picture change effects
   Avijit Sen             : IP-ROCIS
   Kantharuban Sivalingam : CASSCF convergence, NEVPT2, FIC-MRCI
   Bernardo de Souza      : ESD, SOC TD-DFT
   Georgi Stoychev        : AutoAux, RI-MP2 NMR, DLPNO-MP2 response
   Willem Van den Heuvel  : Paramagnetic NMR
   Boris Wezisla          : Elementary symmetry handling
   Frank Wennmohs         : Technical directorship


 We gratefully acknowledge several colleagues who have allowed us to
 interface, adapt or use parts of their codes:
   Stefan Grimme, W. Hujo, H. Kruse, P. Pracht,  : VdW corrections, initial TS optimization,
                  C. Bannwarth, S. Ehlert          DFT functionals, gCP, sTDA/sTD-DF
   Ed Valeev, F. Pavosevic, A. Kumar             : LibInt (2-el integral package), F12 methods
   Garnet Chan, S. Sharma, J. Yang, R. Olivares  : DMRG
   Ulf Ekstrom                                   : XCFun DFT Library
   Mihaly Kallay                                 : mrcc  (arbitrary order and MRCC methods)
   Jiri Pittner, Ondrej Demel                    : Mk-CCSD
   Frank Weinhold                                : gennbo (NPA and NBO analysis)
   Christopher J. Cramer and Donald G. Truhlar   : smd solvation model
   Lars Goerigk                                  : TD-DFT with DH, B97 family of functionals
   V. Asgeirsson, H. Jonsson                     : NEB implementation
   FAccTs GmbH                                   : IRC, NEB, NEB-TS, DLPNO-Multilevel, CI-OPT
                                                   MM, QMMM, 2- and 3-layer-ONIOM, Crystal-QMMM,
                                                   LR-CPCM, SF, NACMEs, symmetry and pop. for TD-DFT,
                                                   nearIR, NL-DFT gradient (VV10), updates on ESD,
                                                   ML-optimized integration grids
   S Lehtola, MJT Oliveira, MAL Marques          : LibXC Library
   Liviu Ungur et al                             : ANISO software


 Your calculation uses the libint2 library for the computation of 2-el integrals
 For citations please refer to: http://libint.valeyev.net

 Your ORCA version has been built with support for libXC version: 5.1.0
 For citations please refer to: https://tddft.org/programs/libxc/

 This ORCA versions uses:
   CBLAS   interface :  Fast vector & matrix operations
   LAPACKE interface :  Fast linear algebra routines
   SCALAPACK package :  Parallel linear algebra routines
   Shared memory     :  Shared parallel matrices
   BLAS/LAPACK       :  OpenBLAS 0.3.15  USE64BITINT DYNAMIC_ARCH NO_AFFINITY Sandybridge SINGLE_THREADED
        Core in use  :  Sandybridge
   Copyright (c) 2011-2014, The OpenBLAS Project


Your calculation utilizes the atom-pairwise dispersion correction
with the zero-damping scheme (D30)
Cite in your paper:
S.Grimme, J.Antony, S.Ehrlich and H.Krieg, J.Chem.Phys., 132, (2010), 154104 
   

Your calculation utilizes the SMD solvation module
Please cite in your paper:
A.V. Marenich, C.J. Cramer, D.G. Truhlar J. Phys. Chem. B, 113, (2009), 6378 

XCFun DFT library Copyright 2009-2010 Ulf Ekstrom and contributors.
See http://admol.org/xcfun for more information.
This is free software; see the source code for copying conditions.
There is ABSOLUTELY NO WARRANTY; not even for MERCHANTABILITY or FITNESS FOR A PARTICULAR PURPOSE.
For details see the documentation.
Scientific users of this library should cite U. Ekstrom, L. Visscher, R. Bast, A. J. Thorvaldsen and K. Ruud;
J.Chem.Theor.Comp. 2010, DOI: 10.1021/ct100117s
XCFun Version 0.99 

================================================================================

----- Orbital basis set information -----
Your calculation utilizes the basis: aug-cc-pVTZ 
    H, B-Ne : Obtained from the ccRepo (grant-hill.group.shef.ac.uk/ccrepo) Feb. 2017
              R. A. Kendall, T. H. Dunning, Jr., R. J. Harrison, J. Chem. Phys. 96, 6796 (1992)
         He : Obtained from the ccRepo (grant-hill.group.shef.ac.uk/ccrepo) Feb. 2017
              D. E. Woon, T. H. Dunning, Jr., J. Chem. Phys. 100, 2975 (1994)
  Li-Be, Na : Obtained from the ccRepo (grant-hill.group.shef.ac.uk/ccrepo) Feb. 2017
              B. P. Prascher, D. E. Woon, K. A. Peterson, T. H. Dunning, Jr., A. K. Wilson, Theor. Chem. Acc. 128, 69 (2011)
         Mg : Obtained from the Peterson Research Group Website (tyr0.chem.wsu.edu/~kipeters) Feb. 2017
              B. P. Prascher, D. E. Woon, K. A. Peterson, T. H. Dunning, Jr., A. K. Wilson, Theor. Chem. Acc. 128, 69 (2011)
      Al-Ar : Obtained from the ccRepo (grant-hill.group.shef.ac.uk/ccrepo) Feb. 2017
              D. E. Woon, T. H. Dunning, Jr., J. Chem. Phys. 98, 1358 (1993)
      Sc-Zn : Obtained from the ccRepo (grant-hill.group.shef.ac.uk/ccrepo) Feb. 2017
              N. B. Balabanov, K. A. Peterson, J. Chem. Phys. 123, 064107 (2005)
              N. B. Balabanov, K. A. Peterson, J. Chem. Phys. 125, 074110 (2006)
      Ga-Kr : Obtained from the ccRepo (grant-hill.group.shef.ac.uk/ccrepo) Feb. 2017
              A. K. Wilson, D. E. Woon, K. A. Peterson, T. H. Dunning, Jr., J. Chem. Phys. 110, 7667 (1999)
     Ag, Au : Obtained from the Peterson Research Group Website (tyr0.chem.wsu.edu/~kipeters) Feb. 2017
              K. A. Peterson, C. Puzzarini, Theor. Chem. Acc. 114, 283 (2005)

The basis set includes element-specific modifications.

Your calculation utilizes the basis: cc-pVTZ 
       H, B-Ne : Obtained from the ccRepo (grant-hill.group.shef.ac.uk/ccrepo) Feb. 2017
                 T. H. Dunning, Jr., J. Chem. Phys. 90, 1007 (1989)
            He : Obtained from the ccRepo (grant-hill.group.shef.ac.uk/ccrepo) Feb. 2017
                 D. E. Woon, T. H. Dunning, Jr., J. Chem. Phys. 100, 2975 (1994)
  Li-Be, Na-Mg : Obtained from the ccRepo (grant-hill.group.shef.ac.uk/ccrepo) Feb. 2017
                 B. P. Prascher, D. E. Woon, K. A. Peterson, T. H. Dunning, Jr., A. K. Wilson, Theor. Chem. Acc. 128, 69 (2011)
         Al-Ar : Obtained from the ccRepo (grant-hill.group.shef.ac.uk/ccrepo) Feb. 2017
                 D. E. Woon, T. H. Dunning, Jr., J. Chem. Phys. 98, 1358 (1993)
            Ca : Obtained from the Peterson Research Group Website (tyr0.chem.wsu.edu/~kipeters) Feb. 2017
                 J. Koput, K. A. Peterson, J. Phys. Chem. 106, 9595 (2002)
         Sc-Zn : Obtained from the ccRepo (grant-hill.group.shef.ac.uk/ccrepo) Feb. 2017
                 N. B. Balabanov, K. A. Peterson, J. Chem. Phys. 123, 064107 (2005)
                 N. B. Balabanov, K. A. Peterson, J. Chem. Phys. 125, 074110 (2006)
         Ga-Kr : Obtained from the ccRepo (grant-hill.group.shef.ac.uk/ccrepo) Feb. 2017
                 A. K. Wilson, D. E. Woon, K. A. Peterson, T. H. Dunning, Jr., J. Chem. Phys. 110, 7667 (1999)
             Y : Obtained from the ccRepo (grant-hill.group.shef.ac.uk/ccrepo) Feb. 2017
                 K. A. Peterson, D. Figgen, M. Dolg, H. Stoll, J. Chem. Phys. 126, 124101 (2007)
        Ag, Au : Obtained from the Peterson Research Group Website (tyr0.chem.wsu.edu/~kipeters) Feb. 2017
                 K. A. Peterson, C. Puzzarini, Theor. Chem. Acc. 114, 283 (2005)

----- AuxJ basis set information -----
Your calculation utilizes the auxiliary basis: aug-cc-pVTZ/JK 
  H, B-F, Al-Cl, Ga-Br : Obtained from the TURBOMOLE 7.0 basis set library

The basis set includes element-specific modifications.

Your calculation utilizes the auxiliary basis: cc-pVTZ/JK 
  H, B-F, Al-Cl, Ga-Br : Obtained from the TURBOMOLE 7.0 basis set library

----- AuxC basis set information -----
Your calculation utilizes the auxiliary basis: aug-cc-pVTZ/C 
  H-He, B-F, Al-Ar, Ga-Kr : Obtained from the EMSL Basis Set Exchange (bse.pnl.gov) Feb. 2017
                            F. Weigend, A. Kohn, C. Hattig, J. Chem. Phys. 116, 3175 (2002)
                   Be, Mg : Obtained from the TURBOMOLE 7.0 basis set library
                            C. Haettig, Phys. Chem. Chem. Phys. 7, 59 (2005)
                       Ne : Obtained from the EMSL Basis Set Exchange (bse.pnl.gov) Feb. 2017
                            C. Haettig, Phys. Chem. Chem. Phys. 7, 59 (2005)
                            F. Weigend, A. Kohn, C. Hattig, J. Chem. Phys. 116, 3175 (2002)
                    Sc-Zn : Obtained from the EMSL Basis Set Exchange (bse.pnl.gov) Feb. 2017
                            J. G. Hill, J. A. Platts, J. Chem. Phys. 128, 044104 (2008)

The basis set includes element-specific modifications.

Your calculation utilizes the auxiliary basis: cc-pVTZ/C 
  Obtained from the EMSL Basis Set Exchange (bse.pnl.gov) Feb. 2017
  H-He, B-F, Al-Ar, Ga-Kr : F. Weigend, A. Kohn, C. Hattig, J. Chem. Phys. 116, 3175 (2002)
             Li-Be, Na-Mg : C. Haettig, Phys. Chem. Chem. Phys. 7, 59 (2005)
                       Ne : C. Haettig, Phys. Chem. Chem. Phys. 7, 59 (2005)
                            F. Weigend, A. Kohn, C. Hattig, J. Chem. Phys. 116, 3175 (2002)
                    Sc-Zn : J. G. Hill, J. A. Platts, J. Chem. Phys. 128, 044104 (2008)

================================================================================
                                        WARNINGS
                       Please study these warnings very carefully!
================================================================================


WARNING: Geometry Optimization
  ===> : Switching off AutoStart
         For restart on a previous wavefunction, please use MOREAD

INFO   : the flag for use of the SHARK integral package has been found!



***************************************
The coordinates will be read from file: 
***************************************


Your calculation utilizes the atom-pairwise dispersion correction
with the zero-damping scheme (D30)
Cite in your paper:
S.Grimme, J.Antony, S.Ehrlich and H.Krieg, J.Chem.Phys., 132, (2010), 154104 
   

Your calculation utilizes the SMD solvation module
Please cite in your paper:
A.V. Marenich, C.J. Cramer, D.G. Truhlar J. Phys. Chem. B, 113, (2009), 6378 

XCFun DFT library Copyright 2009-2010 Ulf Ekstrom and contributors.
See http://admol.org/xcfun for more information.
This is free software; see the source code for copying conditions.
There is ABSOLUTELY NO WARRANTY; not even for MERCHANTABILITY or FITNESS FOR A PARTICULAR PURPOSE.
For details see the documentation.
Scientific users of this library should cite U. Ekstrom, L. Visscher, R. Bast, A. J. Thorvaldsen and K. Ruud;
J.Chem.Theor.Comp. 2010, DOI: 10.1021/ct100117s
XCFun Version 0.99 

================================================================================

----- Orbital basis set information -----
Your calculation utilizes the basis: aug-cc-pVTZ 
    H, B-Ne : Obtained from the ccRepo (grant-hill.group.shef.ac.uk/ccrepo) Feb. 2017
              R. A. Kendall, T. H. Dunning, Jr., R. J. Harrison, J. Chem. Phys. 96, 6796 (1992)
         He : Obtained from the ccRepo (grant-hill.group.shef.ac.uk/ccrepo) Feb. 2017
              D. E. Woon, T. H. Dunning, Jr., J. Chem. Phys. 100, 2975 (1994)
  Li-Be, Na : Obtained from the ccRepo (grant-hill.group.shef.ac.uk/ccrepo) Feb. 2017
              B. P. Prascher, D. E. Woon, K. A. Peterson, T. H. Dunning, Jr., A. K. Wilson, Theor. Chem. Acc. 128, 69 (2011)
         Mg : Obtained from the Peterson Research Group Website (tyr0.chem.wsu.edu/~kipeters) Feb. 2017
              B. P. Prascher, D. E. Woon, K. A. Peterson, T. H. Dunning, Jr., A. K. Wilson, Theor. Chem. Acc. 128, 69 (2011)
      Al-Ar : Obtained from the ccRepo (grant-hill.group.shef.ac.uk/ccrepo) Feb. 2017
              D. E. Woon, T. H. Dunning, Jr., J. Chem. Phys. 98, 1358 (1993)
      Sc-Zn : Obtained from the ccRepo (grant-hill.group.shef.ac.uk/ccrepo) Feb. 2017
              N. B. Balabanov, K. A. Peterson, J. Chem. Phys. 123, 064107 (2005)
              N. B. Balabanov, K. A. Peterson, J. Chem. Phys. 125, 074110 (2006)
      Ga-Kr : Obtained from the ccRepo (grant-hill.group.shef.ac.uk/ccrepo) Feb. 2017
              A. K. Wilson, D. E. Woon, K. A. Peterson, T. H. Dunning, Jr., J. Chem. Phys. 110, 7667 (1999)
     Ag, Au : Obtained from the Peterson Research Group Website (tyr0.chem.wsu.edu/~kipeters) Feb. 2017
              K. A. Peterson, C. Puzzarini, Theor. Chem. Acc. 114, 283 (2005)

The basis set includes element-specific modifications.

Your calculation utilizes the basis: cc-pVTZ 
       H, B-Ne : Obtained from the ccRepo (grant-hill.group.shef.ac.uk/ccrepo) Feb. 2017
                 T. H. Dunning, Jr., J. Chem. Phys. 90, 1007 (1989)
            He : Obtained from the ccRepo (grant-hill.group.shef.ac.uk/ccrepo) Feb. 2017
                 D. E. Woon, T. H. Dunning, Jr., J. Chem. Phys. 100, 2975 (1994)
  Li-Be, Na-Mg : Obtained from the ccRepo (grant-hill.group.shef.ac.uk/ccrepo) Feb. 2017
                 B. P. Prascher, D. E. Woon, K. A. Peterson, T. H. Dunning, Jr., A. K. Wilson, Theor. Chem. Acc. 128, 69 (2011)
         Al-Ar : Obtained from the ccRepo (grant-hill.group.shef.ac.uk/ccrepo) Feb. 2017
                 D. E. Woon, T. H. Dunning, Jr., J. Chem. Phys. 98, 1358 (1993)
            Ca : Obtained from the Peterson Research Group Website (tyr0.chem.wsu.edu/~kipeters) Feb. 2017
                 J. Koput, K. A. Peterson, J. Phys. Chem. 106, 9595 (2002)
         Sc-Zn : Obtained from the ccRepo (grant-hill.group.shef.ac.uk/ccrepo) Feb. 2017
                 N. B. Balabanov, K. A. Peterson, J. Chem. Phys. 123, 064107 (2005)
                 N. B. Balabanov, K. A. Peterson, J. Chem. Phys. 125, 074110 (2006)
         Ga-Kr : Obtained from the ccRepo (grant-hill.group.shef.ac.uk/ccrepo) Feb. 2017
                 A. K. Wilson, D. E. Woon, K. A. Peterson, T. H. Dunning, Jr., J. Chem. Phys. 110, 7667 (1999)
             Y : Obtained from the ccRepo (grant-hill.group.shef.ac.uk/ccrepo) Feb. 2017
                 K. A. Peterson, D. Figgen, M. Dolg, H. Stoll, J. Chem. Phys. 126, 124101 (2007)
        Ag, Au : Obtained from the Peterson Research Group Website (tyr0.chem.wsu.edu/~kipeters) Feb. 2017
                 K. A. Peterson, C. Puzzarini, Theor. Chem. Acc. 114, 283 (2005)

----- AuxJ basis set information -----
Your calculation utilizes the auxiliary basis: aug-cc-pVTZ/JK 
  H, B-F, Al-Cl, Ga-Br : Obtained from the TURBOMOLE 7.0 basis set library

The basis set includes element-specific modifications.

Your calculation utilizes the auxiliary basis: cc-pVTZ/JK 
  H, B-F, Al-Cl, Ga-Br : Obtained from the TURBOMOLE 7.0 basis set library

----- AuxC basis set information -----
Your calculation utilizes the auxiliary basis: aug-cc-pVTZ/C 
  H-He, B-F, Al-Ar, Ga-Kr : Obtained from the EMSL Basis Set Exchange (bse.pnl.gov) Feb. 2017
                            F. Weigend, A. Kohn, C. Hattig, J. Chem. Phys. 116, 3175 (2002)
                   Be, Mg : Obtained from the TURBOMOLE 7.0 basis set library
                            C. Haettig, Phys. Chem. Chem. Phys. 7, 59 (2005)
                       Ne : Obtained from the EMSL Basis Set Exchange (bse.pnl.gov) Feb. 2017
                            C. Haettig, Phys. Chem. Chem. Phys. 7, 59 (2005)
                            F. Weigend, A. Kohn, C. Hattig, J. Chem. Phys. 116, 3175 (2002)
                    Sc-Zn : Obtained from the EMSL Basis Set Exchange (bse.pnl.gov) Feb. 2017
                            J. G. Hill, J. A. Platts, J. Chem. Phys. 128, 044104 (2008)

The basis set includes element-specific modifications.

Your calculation utilizes the auxiliary basis: cc-pVTZ/C 
  Obtained from the EMSL Basis Set Exchange (bse.pnl.gov) Feb. 2017
  H-He, B-F, Al-Ar, Ga-Kr : F. Weigend, A. Kohn, C. Hattig, J. Chem. Phys. 116, 3175 (2002)
             Li-Be, Na-Mg : C. Haettig, Phys. Chem. Chem. Phys. 7, 59 (2005)
                       Ne : C. Haettig, Phys. Chem. Chem. Phys. 7, 59 (2005)
                            F. Weigend, A. Kohn, C. Hattig, J. Chem. Phys. 116, 3175 (2002)
                    Sc-Zn : J. G. Hill, J. A. Platts, J. Chem. Phys. 128, 044104 (2008)

================================================================================
                                        WARNINGS
                       Please study these warnings very carefully!
================================================================================

INFO   : Checking CIS options ...

INFO   : the flag for use of the SHARK integral package has been found!

================================================================================
                                       INPUT FILE
================================================================================
NAME = wb97x-d3-train-7.inp
|  1> ! wb97x-d3 aug-cc-PVTZ RIJCOSX Opt
|  2> %maxcore 4000
|  3> %basis
|  4>  AuxJ "aug-cc-PVTZ/JK"
|  5>  AuxC "aug-cc-PVTZ/C"
|  6>  newGTO H "cc-PVTZ" end
|  7>  newAuxJGTO H "cc-PVTZ/JK" end
|  8>  newAuxCGTO H "cc-PVTZ/C" end
|  9> end
| 10> %cpcm
| 11>  SMD true
| 12>  SMDsolvent "cyclohexane"
| 13> end
| 14> %pal nprocs 4 end
| 15> * xyz 0 1
| 16> C          4.01170        0.00820        0.34860
| 17> C          2.89560        0.69840        0.14290
| 18> C          1.53670        0.17630        0.10890
| 19> C          1.22560       -1.15920        0.32570
| 20> C         -0.08660       -1.60060        0.28110
| 21> C         -1.12440       -0.72160        0.01880
| 22> O         -2.44290       -1.05420       -0.04620
| 23> C         -2.80490       -2.39380        0.17280
| 24> C         -0.82610        0.64180       -0.20400
| 25> O         -1.90170        1.44160       -0.45490
| 26> C         -1.67710        2.80980       -0.67860
| 27> C          0.48660        1.06530       -0.15530
| 28> H          4.97400        0.49070        0.35540
| 29> H          4.01730       -1.05460        0.51790
| 30> H          2.96990        1.76700       -0.02210
| 31> H          2.00590       -1.87320        0.53430
| 32> H         -0.28990       -2.64540        0.45520
| 33> H         -3.88920       -2.42410        0.07670
| 34> H         -2.52200       -2.73030        1.17610
| 35> H         -2.35790       -3.06090       -0.57230
| 36> H         -2.66080        3.24430       -0.85090
| 37> H         -1.04920        2.97840       -1.56040
| 38> H         -1.21720        3.29190        0.19110
| 39> H          0.72640        2.10400       -0.32380
| 40> *
| 41> 
| 42> 
| 43> $new_job
| 44> ! wb97x-d3 aug-cc-PVTZ RIJCOSX SP
| 45> %maxcore 4000
| 46> %basis
| 47>  AuxJ "aug-cc-PVTZ/JK"
| 48>  AuxC "aug-cc-PVTZ/C"
| 49>  newGTO H "cc-PVTZ" end
| 50>  newAuxJGTO H "cc-PVTZ/JK" end
| 51>  newAuxCGTO H "cc-PVTZ/C" end
| 52> end
| 53> %cpcm
| 54>  SMD true
| 55>  SMDsolvent "cyclohexane"
| 56> end
| 57> %pal nprocs 4 end
| 58> %tddft
| 59>  nroots 10
| 60>  maxdim 7
| 61> end
| 62> * xyzfile 0 1
| 63> 
| 64>                          ****END OF INPUT****
================================================================================


                 $$$$$$$$$$$$$$$$$$$$$$$$$$$$$$$$$$$$$$$$$$$$$$ 
                 $ THERE ARE  2 JOBS TO BE PROCESSED THIS RUN $
                 $$$$$$$$$$$$$$$$$$$$$$$$$$$$$$$$$$$$$$$$$$$$$$ 




                 $$$$$$$$$$$$$$$$  JOB NUMBER  1 $$$$$$$$$$$$$$


                       *****************************
                       * Geometry Optimization Run *
                       *****************************

Geometry optimization settings:
Update method            Update   .... BFGS
Choice of coordinates    CoordSys .... Z-matrix Internals
Initial Hessian          InHess   .... Almoef's Model

Convergence Tolerances:
Energy Change            TolE     ....  5.0000e-06 Eh
Max. Gradient            TolMAXG  ....  3.0000e-04 Eh/bohr
RMS Gradient             TolRMSG  ....  1.0000e-04 Eh/bohr
Max. Displacement        TolMAXD  ....  4.0000e-03 bohr
RMS Displacement         TolRMSD  ....  2.0000e-03 bohr
Strict Convergence                ....  False
------------------------------------------------------------------------------
                        ORCA OPTIMIZATION COORDINATE SETUP
------------------------------------------------------------------------------

The optimization will be done in new redundant internal coordinates
Making redundant internal coordinates   ...  (new redundants) done
Evaluating the initial hessian          ...  (Almloef) done
Evaluating the coordinates              ...  done
Calculating the B-matrix                .... done
Calculating the G-matrix                .... done
Diagonalizing the G-matrix              .... done
Small eigenvalue found = 1.125e-02
Small eigenvalue found = 1.336e-02
The first mode is                       ....   38
The number of degrees of freedom        ....   66

    -----------------------------------------------------------------
                    Redundant Internal Coordinates


    -----------------------------------------------------------------
         Definition                    Initial Value    Approx d2E/dq
    -----------------------------------------------------------------
      1. B(C   1,C   0)                  1.3283         0.783763   
      2. B(C   2,C   1)                  1.4561         0.490017   
      3. B(C   3,C   2)                  1.3883         0.628737   
      4. B(C   4,C   3)                  1.3852         0.635985   
      5. B(C   5,C   4)                  1.3851         0.636171   
      6. B(O   6,C   5)                  1.3614         0.621692   
      7. B(C   7,O   6)                  1.4048         0.529936   
      8. B(C   8,C   5)                  1.4133         0.573493   
      9. B(O   9,C   8)                  1.3637         0.616471   
     10. B(C  10,O   9)                  1.4044         0.530681   
     11. B(C  11,C   8)                  1.3802         0.647740   
     12. B(C  11,C   2)                  1.4010         0.600027   
     13. B(H  12,C   0)                  1.0765         0.378395   
     14. B(H  13,C   0)                  1.0762         0.378806   
     15. B(H  14,C   1)                  1.0838         0.368378   
     16. B(H  15,C   3)                  1.0780         0.376269   
     17. B(H  16,C   4)                  1.0785         0.375584   
     18. B(H  17,C   7)                  1.0890         0.361463   
     19. B(H  18,C   7)                  1.0954         0.353042   
     20. B(H  19,C   7)                  1.0954         0.352965   
     21. B(H  20,C  10)                  1.0891         0.361290   
     22. B(H  21,C  10)                  1.0956         0.352817   
     23. B(H  22,C  10)                  1.0956         0.352787   
     24. B(H  23,C  11)                  1.0793         0.374597   
     25. A(C   1,C   0,H  12)          121.2779         0.370427   
     26. A(H  12,C   0,H  13)          115.9111         0.295469   
     27. A(C   1,C   0,H  13)          122.8110         0.370496   
     28. A(C   0,C   1,C   2)          126.9735         0.433996   
     29. A(C   0,C   1,H  14)          118.5740         0.368723   
     30. A(C   2,C   1,H  14)          114.4525         0.340513   
     31. A(C   3,C   2,C  11)          118.1578         0.432605   
     32. A(C   1,C   2,C   3)          123.3940         0.417209   
     33. A(C   1,C   2,C  11)          118.4482         0.413755   
     34. A(C   4,C   3,H  15)          118.7415         0.357086   
     35. A(C   2,C   3,H  15)          120.3411         0.356391   
     36. A(C   2,C   3,C   4)          120.9173         0.437161   
     37. A(C   5,C   4,H  16)          120.2716         0.356993   
     38. A(C   3,C   4,H  16)          118.8201         0.356975   
     39. A(C   3,C   4,C   5)          120.9083         0.438088   
     40. A(C   4,C   5,C   8)          118.9411         0.430011   
     41. A(C   4,C   5,O   6)          125.4276         0.433439   
     42. A(O   6,C   5,C   8)          115.6312         0.425447   
     43. A(C   5,O   6,C   7)          118.3659         0.416766   
     44. A(H  18,C   7,H  19)          109.3013         0.289029   
     45. A(O   6,C   7,H  19)          111.6859         0.340460   
     46. A(O   6,C   7,H  18)          111.6644         0.340473   
     47. A(O   6,C   7,H  17)          105.6258         0.341818   
     48. A(H  17,C   7,H  18)          109.2347         0.290109   
     49. A(H  17,C   7,H  19)          109.2283         0.290099   
     50. A(O   9,C   8,C  11)          125.2204         0.434188   
     51. A(C   5,C   8,C  11)          119.4185         0.431405   
     52. A(C   5,C   8,O   9)          115.3611         0.424806   
     53. A(C   8,O   9,C  10)          118.3297         0.416245   
     54. A(O   9,C  10,H  20)          105.6293         0.341871   
     55. A(H  21,C  10,H  22)          109.3070         0.288977   
     56. A(H  20,C  10,H  22)          109.2191         0.290054   
     57. A(O   9,C  10,H  22)          111.6770         0.340512   
     58. A(H  20,C  10,H  21)          109.2040         0.290058   
     59. A(O   9,C  10,H  21)          111.7021         0.340516   
     60. A(C   2,C  11,C   8)          121.6569         0.434928   
     61. A(C   8,C  11,H  23)          120.0748         0.357928   
     62. A(C   2,C  11,H  23)          118.2683         0.353311   
     63. D(H  14,C   1,C   0,H  12)      0.1357         0.044197   
     64. D(H  14,C   1,C   0,H  13)   -179.9019         0.044197   
     65. D(C   2,C   1,C   0,H  12)   -179.9608         0.044197   
     66. D(C   2,C   1,C   0,H  13)      0.0016         0.044197   
     67. D(C   3,C   2,C   1,H  14)   -178.5652         0.016350   
     68. D(C   3,C   2,C   1,C   0)      1.5279         0.016350   
     69. D(C  11,C   2,C   1,C   0)   -178.5078         0.016350   
     70. D(C  11,C   2,C   1,H  14)      1.3991         0.016350   
     71. D(H  15,C   3,C   2,C  11)   -179.8539         0.027402   
     72. D(C   4,C   3,C   2,C   1)   -179.9916         0.027402   
     73. D(H  15,C   3,C   2,C   1)      0.1106         0.027402   
     74. D(C   4,C   3,C   2,C  11)      0.0440         0.027402   
     75. D(H  16,C   4,C   3,C   2)   -179.9621         0.028079   
     76. D(C   5,C   4,C   3,H  15)    179.9071         0.028079   
     77. D(C   5,C   4,C   3,C   2)      0.0076         0.028079   
     78. D(H  16,C   4,C   3,H  15)     -0.0627         0.028079   
     79. D(C   8,C   5,C   4,H  16)    179.9443         0.028097   
     80. D(C   8,C   5,C   4,C   3)     -0.0250         0.028097   
     81. D(O   6,C   5,C   4,H  16)     -0.0146         0.028097   
     82. D(O   6,C   5,C   4,C   3)   -179.9839         0.028097   
     83. D(C   7,O   6,C   5,C   8)   -179.6963         0.028368   
     84. D(C   7,O   6,C   5,C   4)      0.2638         0.028368   
     85. D(H  19,C   7,O   6,C   5)    -61.5513         0.022301   
     86. D(H  18,C   7,O   6,C   5)     61.1808         0.022301   
     87. D(H  17,C   7,O   6,C   5)    179.8128         0.022301   
     88. D(C  11,C   8,C   5,O   6)    179.9526         0.022573   
     89. D(C  11,C   8,C   5,C   4)     -0.0103         0.022573   
     90. D(O   9,C   8,C   5,O   6)     -0.0175         0.022573   
     91. D(O   9,C   8,C   5,C   4)   -179.9803         0.022573   
     92. D(C  10,O   9,C   8,C  11)     -0.2888         0.027859   
     93. D(C  10,O   9,C   8,C   5)    179.6792         0.027859   
     94. D(H  22,C  10,O   9,C   8)    -61.1768         0.022367   
     95. D(H  21,C  10,O   9,C   8)     61.5837         0.022367   
     96. D(H  20,C  10,O   9,C   8)   -179.7990         0.022367   
     97. D(H  23,C  11,C   8,O   9)     -0.0315         0.029199   
     98. D(H  23,C  11,C   8,C   5)   -179.9984         0.029199   
     99. D(C   2,C  11,C   8,O   9)   -179.9693         0.029199   
    100. D(C   2,C  11,C   8,C   5)      0.0638         0.029199   
    101. D(H  23,C  11,C   2,C   3)    179.9808         0.024820   
    102. D(H  23,C  11,C   2,C   1)      0.0146         0.024820   
    103. D(C   8,C  11,C   2,C   3)     -0.0802         0.024820   
    104. D(C   8,C  11,C   2,C   1)    179.9536         0.024820   
    -----------------------------------------------------------------

Number of atoms                         .... 24
Number of degrees of freedom            .... 104

         *************************************************************
         *                GEOMETRY OPTIMIZATION CYCLE   1            *
         *************************************************************
---------------------------------
CARTESIAN COORDINATES (ANGSTROEM)
---------------------------------
  C      4.011700    0.008200    0.348600
  C      2.895600    0.698400    0.142900
  C      1.536700    0.176300    0.108900
  C      1.225600   -1.159200    0.325700
  C     -0.086600   -1.600600    0.281100
  C     -1.124400   -0.721600    0.018800
  O     -2.442900   -1.054200   -0.046200
  C     -2.804900   -2.393800    0.172800
  C     -0.826100    0.641800   -0.204000
  O     -1.901700    1.441600   -0.454900
  C     -1.677100    2.809800   -0.678600
  C      0.486600    1.065300   -0.155300
  H      4.974000    0.490700    0.355400
  H      4.017300   -1.054600    0.517900
  H      2.969900    1.767000   -0.022100
  H      2.005900   -1.873200    0.534300
  H     -0.289900   -2.645400    0.455200
  H     -3.889200   -2.424100    0.076700
  H     -2.522000   -2.730300    1.176100
  H     -2.357900   -3.060900   -0.572300
  H     -2.660800    3.244300   -0.850900
  H     -1.049200    2.978400   -1.560400
  H     -1.217200    3.291900    0.191100
  H      0.726400    2.104000   -0.323800

----------------------------
CARTESIAN COORDINATES (A.U.)
----------------------------
  NO LB      ZA    FRAG     MASS         X           Y           Z
   0 C     6.0000    0    12.011    7.581014    0.015496    0.658759
   1 C     6.0000    0    12.011    5.471891    1.319785    0.270042
   2 C     6.0000    0    12.011    2.903942    0.333159    0.205791
   3 C     6.0000    0    12.011    2.316048   -2.190571    0.615484
   4 C     6.0000    0    12.011   -0.163650   -3.024696    0.531202
   5 C     6.0000    0    12.011   -2.124808   -1.363626    0.035527
   6 O     8.0000    0    15.999   -4.616412   -1.992149   -0.087305
   7 C     6.0000    0    12.011   -5.300493   -4.523626    0.326545
   8 C     6.0000    0    12.011   -1.561103    1.212826   -0.385504
   9 O     8.0000    0    15.999   -3.593692    2.724229   -0.859636
  10 C     6.0000    0    12.011   -3.169260    5.309752   -1.282368
  11 C     6.0000    0    12.011    0.919541    2.013125   -0.293474
  12 H     1.0000    0     1.008    9.399498    0.927289    0.671609
  13 H     1.0000    0     1.008    7.591597   -1.992905    0.978689
  14 H     1.0000    0     1.008    5.612298    3.339146   -0.041763
  15 H     1.0000    0     1.008    3.790602   -3.539835    1.009681
  16 H     1.0000    0     1.008   -0.547832   -4.999082    0.860203
  17 H     1.0000    0     1.008   -7.349523   -4.580885    0.144942
  18 H     1.0000    0     1.008   -4.765889   -5.159519    2.222507
  19 H     1.0000    0     1.008   -4.455785   -5.784263   -1.081490
  20 H     1.0000    0     1.008   -5.028183    6.130838   -1.607968
  21 H     1.0000    0     1.008   -1.982701    5.628360   -2.948729
  22 H     1.0000    0     1.008   -2.300175    6.220789    0.361127
  23 H     1.0000    0     1.008    1.372697    3.975984   -0.611893

--------------------------------
INTERNAL COORDINATES (ANGSTROEM)
--------------------------------
 C      0   0   0     0.000000000000     0.00000000     0.00000000
 C      1   0   0     1.328295050055     0.00000000     0.00000000
 C      2   1   0     1.456143406399   126.97349254     0.00000000
 C      3   2   1     1.388288766792   123.39403046     1.52786448
 C      4   3   2     1.385168567359   120.91732298   180.00837693
 C      5   4   3     1.385088852746   120.90829656     0.00000000
 O      6   5   4     1.361355945372   125.42764356   180.01611483
 C      7   6   5     1.404824957068   118.36586053     0.26378068
 C      6   5   4     1.413323137149   118.94113911   359.97503537
 O      9   6   5     1.363651792064   115.36110612   180.01967677
 C     10   9   6     1.404442270084   118.32967745   179.67923443
 C      9   6   5     1.380183042209   119.41851716     0.00000000
 H      1   2   3     1.076509999954   121.27786915   180.03919548
 H      1   2   3     1.076214518579   122.81103274     0.00000000
 H      2   1   3     1.083813383383   118.57397126   180.09646392
 H      4   3   2     1.078043621566   120.34106847     0.11055351
 H      5   4   3     1.078540096612   118.82011102   180.03787671
 H      8   7   6     1.088971895872   105.62578376   179.81284788
 H      8   7   6     1.095388310144   111.66439242    61.18081332
 H      8   7   6     1.095447588888   111.68591558   298.44870372
 H     11  10   9     1.089102029197   105.62927784   180.20103317
 H     11  10   9     1.095561778267   111.70206252    61.58365478
 H     11  10   9     1.095585008112   111.67702769   298.82320303
 H     12   9   6     1.079256216104   120.07479644   180.00162908

---------------------------
INTERNAL COORDINATES (A.U.)
---------------------------
 C      0   0   0     0.000000000000     0.00000000     0.00000000
 C      1   0   0     2.510113869647     0.00000000     0.00000000
 C      2   1   0     2.751712249810   126.97349254     0.00000000
 C      3   2   1     2.623485564036   123.39403046     1.52786448
 C      4   3   2     2.617589241625   120.91732298   180.00837693
 C      5   4   3     2.617438602836   120.90829656     0.00000000
 O      6   5   4     2.572589907539   125.42764356   180.01611483
 C      7   6   5     2.654734434955   118.36586053     0.26378068
 C      6   5   4     2.670793667946   118.94113911   359.97503537
 O      9   6   5     2.576928429032   115.36110612   180.01967677
 C     10   9   6     2.654011261362   118.32967745   179.67923443
 C      9   6   5     2.608167964456   119.41851716     0.00000000
 H      1   2   3     2.034309080340   121.27786915   180.03919548
 H      1   2   3     2.033750701464   122.81103274     0.00000000
 H      2   1   3     2.048110474872   118.57397126   180.09646392
 H      4   3   2     2.037207205181   120.34106847     0.11055351
 H      5   4   3     2.038145407050   118.82011102   180.03787671
 H      8   7   6     2.057858650736   105.62578376   179.81284788
 H      8   7   6     2.069983916471   111.66439242    61.18081332
 H      8   7   6     2.070095937062   111.68591558   298.44870372
 H     11  10   9     2.058104567079   105.62927784   180.20103317
 H     11  10   9     2.070311723717   111.70206252    61.58365478
 H     11  10   9     2.070355621762   111.67702769   298.82320303
 H     12   9   6     2.039498676769   120.07479644   180.00162908

---------------------
BASIS SET INFORMATION
---------------------
There are 3 groups of distinct atoms

 Group   1 Type C   : 19s6p3d2f contracted to 5s4p3d2f pattern {88111/3111/111/11}
 Group   2 Type O   : 19s6p3d2f contracted to 5s4p3d2f pattern {88111/3111/111/11}
 Group   3 Type H   : 5s2p1d contracted to 3s2p1d pattern {311/11/1}

Atom   0C    basis set group =>   1
Atom   1C    basis set group =>   1
Atom   2C    basis set group =>   1
Atom   3C    basis set group =>   1
Atom   4C    basis set group =>   1
Atom   5C    basis set group =>   1
Atom   6O    basis set group =>   2
Atom   7C    basis set group =>   1
Atom   8C    basis set group =>   1
Atom   9O    basis set group =>   2
Atom  10C    basis set group =>   1
Atom  11C    basis set group =>   1
Atom  12H    basis set group =>   3
Atom  13H    basis set group =>   3
Atom  14H    basis set group =>   3
Atom  15H    basis set group =>   3
Atom  16H    basis set group =>   3
Atom  17H    basis set group =>   3
Atom  18H    basis set group =>   3
Atom  19H    basis set group =>   3
Atom  20H    basis set group =>   3
Atom  21H    basis set group =>   3
Atom  22H    basis set group =>   3
Atom  23H    basis set group =>   3
---------------------------------
AUXILIARY/J BASIS SET INFORMATION
---------------------------------
There are 3 groups of distinct atoms

 Group   1 Type C   : 10s7p5d2f1g contracted to 10s7p5d2f1g pattern {1111111111/1111111/11111/11/1}
 Group   2 Type O   : 10s7p5d2f1g contracted to 10s7p5d2f1g pattern {1111111111/1111111/11111/11/1}
 Group   3 Type H   : 4s3p2d1f contracted to 4s3p2d1f pattern {1111/111/11/1}

Atom   0C    basis set group =>   1
Atom   1C    basis set group =>   1
Atom   2C    basis set group =>   1
Atom   3C    basis set group =>   1
Atom   4C    basis set group =>   1
Atom   5C    basis set group =>   1
Atom   6O    basis set group =>   2
Atom   7C    basis set group =>   1
Atom   8C    basis set group =>   1
Atom   9O    basis set group =>   2
Atom  10C    basis set group =>   1
Atom  11C    basis set group =>   1
Atom  12H    basis set group =>   3
Atom  13H    basis set group =>   3
Atom  14H    basis set group =>   3
Atom  15H    basis set group =>   3
Atom  16H    basis set group =>   3
Atom  17H    basis set group =>   3
Atom  18H    basis set group =>   3
Atom  19H    basis set group =>   3
Atom  20H    basis set group =>   3
Atom  21H    basis set group =>   3
Atom  22H    basis set group =>   3
Atom  23H    basis set group =>   3
---------------------------------
AUXILIARY/C BASIS SET INFORMATION
---------------------------------
There are 3 groups of distinct atoms

 Group   1 Type C   : 9s7p6d4f2g contracted to 9s7p6d4f2g pattern {111111111/1111111/111111/1111/11}
 Group   2 Type O   : 9s7p6d4f2g contracted to 9s7p6d4f2g pattern {111111111/1111111/111111/1111/11}
 Group   3 Type H   : 4s3p2d1f contracted to 4s3p2d1f pattern {1111/111/11/1}

Atom   0C    basis set group =>   1
Atom   1C    basis set group =>   1
Atom   2C    basis set group =>   1
Atom   3C    basis set group =>   1
Atom   4C    basis set group =>   1
Atom   5C    basis set group =>   1
Atom   6O    basis set group =>   2
Atom   7C    basis set group =>   1
Atom   8C    basis set group =>   1
Atom   9O    basis set group =>   2
Atom  10C    basis set group =>   1
Atom  11C    basis set group =>   1
Atom  12H    basis set group =>   3
Atom  13H    basis set group =>   3
Atom  14H    basis set group =>   3
Atom  15H    basis set group =>   3
Atom  16H    basis set group =>   3
Atom  17H    basis set group =>   3
Atom  18H    basis set group =>   3
Atom  19H    basis set group =>   3
Atom  20H    basis set group =>   3
Atom  21H    basis set group =>   3
Atom  22H    basis set group =>   3
Atom  23H    basis set group =>   3


           ************************************************************
           *        Program running with 4 parallel MPI-processes     *
           *              working on a common directory               *
           ************************************************************
------------------------------------------------------------------------------
                           ORCA GTO INTEGRAL CALCULATION
                           -- RI-GTO INTEGRALS CHOSEN --
------------------------------------------------------------------------------
------------------------------------------------------------------------------
                   ___                                                        
                  /   \      - P O W E R E D   B Y -                         
                 /     \                                                     
                 |  |  |   _    _      __       _____    __    __             
                 |  |  |  | |  | |    /  \     |  _  \  |  |  /  |          
                  \  \/   | |  | |   /    \    | | | |  |  | /  /          
                 / \  \   | |__| |  /  /\  \   | |_| |  |  |/  /          
                |  |  |   |  __  | /  /__\  \  |    /   |      \           
                |  |  |   | |  | | |   __   |  |    \   |  |\   \          
                \     /   | |  | | |  |  |  |  | |\  \  |  | \   \       
                 \___/    |_|  |_| |__|  |__|  |_| \__\ |__|  \__/        
                                                                              
                      - O R C A' S   B I G   F R I E N D -                    
                                      &                                       
                       - I N T E G R A L  F E E D E R -                       
                                                                              
 v1 FN, 2020, v2 2021                                                         
------------------------------------------------------------------------------


Reading SHARK input file wb97x-d3-train-7.SHARKINP.tmp ... ok
----------------------
SHARK INTEGRAL PACKAGE
----------------------

Number of atoms                             ...     24
Number of basis functions                   ...    792
Number of shells                            ...    312
Maximum angular momentum                    ...      3
Integral batch strategy                     ... SHARK/LIBINT Hybrid
RI-J (if used) integral strategy            ... SPLIT-RIJ (Revised 2003 algorithm where possible)
Printlevel                                  ...      1
Contraction scheme used                     ... PARTIAL GENERAL contraction
Coulomb Range Separation                    ... NOT USED
Exchange Range Separation                   ... Long Range
   Mu parameter                             ...  0.250000
   Scaling (regular/separated)              ...  0.195728  0.804272
Finite Nucleus Model                        ... NOT USED
Auxiliary Coulomb fitting basis             ... AVAILABLE
   # of basis functions in Aux-J            ...   1308
   # of shells in Aux-J                     ...    420
   Maximum angular momentum in Aux-J        ...      4
Auxiliary J/K fitting basis                 ... NOT available
Auxiliary Correlation fitting basis         ... AVAILABLE
   # of basis functions in Aux-C            ...   1632
   # of shells in Aux-C                     ...    456
   Maximum angular momentum in Aux-C        ...      4
Auxiliary 'external' fitting basis          ... NOT available
Integral threshold                          ...     2.500000e-11
Primitive cut-off                           ...     2.500000e-12
Primitive pair pre-selection threshold      ...     2.500000e-12

Calculating pre-screening integrals         ... done (  0.1 sec) Dimension = 312
Calculating pre-screening integrals (ORCA)  ... done (  0.3 sec) Dimension = 240
Organizing shell pair data                  ... done (  0.4 sec)
Shell pair information
Total number of shell pairs                 ...     48828
Shell pairs after pre-screening             ...     36287
Total number of primitive shell pairs       ...     65052
Primitive shell pairs kept                  ...     43818
          la=0 lb=0:   8646 shell pairs
          la=1 lb=0:   9236 shell pairs
          la=1 lb=1:   2254 shell pairs
          la=2 lb=0:   6058 shell pairs
          la=2 lb=1:   2915 shell pairs
          la=2 lb=2:    995 shell pairs
          la=3 lb=0:   3316 shell pairs
          la=3 lb=1:   1558 shell pairs
          la=3 lb=2:   1023 shell pairs
          la=3 lb=3:    286 shell pairs

Calculating one electron integrals          ... done (  0.1 sec)
Calculating RI/J V-Matrix + Cholesky decomp.... done (  0.4 sec)
Calculating RI/C V-Matrix + Cholesky decomp.... done (  0.2 sec)
Calculating Nuclear repulsion               ... done (  0.0 sec) ENN=    678.477881099406 Eh

SHARK setup successfully completed in   3.5 seconds

Maximum memory used throughout the entire GTOINT-calculation: 55.2 MB


           ************************************************************
           *        Program running with 4 parallel MPI-processes     *
           *              working on a common directory               *
           ************************************************************
-------------------------------------------------------------------------------
                                 ORCA SCF
-------------------------------------------------------------------------------

------------
SCF SETTINGS
------------
Hamiltonian:
 Density Functional     Method          .... DFT(GTOs)
 Exchange Functional    Exchange        .... WB97X-D3
 Correlation Functional Correlation     .... WB97X-D3
 Gradients option       PostSCFGGA      .... off
 Hybrid DFT is turned on
   Fraction HF Exchange ScalHFX         ....  0.195728
   Scaling of DF-GGA-X  ScalDFX         ....  0.000000
   Scaling of DF-GGA-C  ScalDFC         ....  1.000000
   Scaling of DF-LDA-C  ScalLDAC        ....  1.000000
   Perturbative correction              ....  0.000000
   Density functional embedding theory  .... OFF
 Long-range corrected/Screened/Range-Separated Hybrid DFT is turned on
   Amount of maximum screened exact exchange              ....  0.804272
   Range separation parameter mu (erf(mu*r12)/r12)        ....  0.250000
 RI-approximation to the Coulomb term is turned on
   Number of AuxJ basis functions       .... 1308
   RIJ-COSX (HFX calculated with COS-X)).... on


General Settings:
 Integral files         IntName         .... wb97x-d3-train-7
 Hartree-Fock type      HFTyp           .... RHF
 Total Charge           Charge          ....    0
 Multiplicity           Mult            ....    1
 Number of Electrons    NEL             ....   88
 Basis Dimension        Dim             ....  720
 Nuclear Repulsion      ENuc            ....    678.4778810994 Eh

Convergence Acceleration:
 DIIS                   CNVDIIS         .... on
   Start iteration      DIISMaxIt       ....    12
   Startup error        DIISStart       ....  0.200000
   # of expansion vecs  DIISMaxEq       ....     5
   Bias factor          DIISBfac        ....   1.050
   Max. coefficient     DIISMaxC        ....  10.000
 Trust-Rad. Augm. Hess. CNVTRAH         .... auto
   Auto Start mean grad. ratio tolernc. ....  1.125000
   Auto Start start iteration           ....    20
   Auto Start num. interpolation iter.  ....    10
   Max. Number of Micro iterations      ....    16
   Max. Number of Macro iterations      .... Maxiter - #DIIS iter
   Number of Davidson start vectors     ....     2
   Converg. threshold I  (grad. norm)   ....   1.000e-05
   Converg. threshold II (energy diff.) ....   1.000e-08
   Grad. Scal. Fac. for Micro threshold ....   0.100
   Minimum threshold for Micro iter.    ....   0.010
   NR start threshold (gradient norm)   ....   0.001
   Initial trust radius                 ....   0.400
   Minimum AH scaling param. (alpha)    ....   1.000
   Maximum AH scaling param. (alpha)    .... 1000.000
   Orbital update algorithm             .... Taylor
   White noise on init. David. guess    .... on
   Maximum white noise                  ....   0.010
   Quad. conv. algorithm                .... NR
 SOSCF                  CNVSOSCF        .... on
   Start iteration      SOSCFMaxIt      ....   150
   Startup grad/error   SOSCFStart      ....  0.003300
 Level Shifting         CNVShift        .... on
   Level shift para.    LevelShift      ....    0.2500
   Turn off err/grad.   ShiftErr        ....    0.0010
 Zerner damping         CNVZerner       .... off
 Static damping         CNVDamp         .... on
   Fraction old density DampFac         ....    0.7000
   Max. Damping (<1)    DampMax         ....    0.9800
   Min. Damping (>=0)   DampMin         ....    0.0000
   Turn off err/grad.   DampErr         ....    0.1000
 Fernandez-Rico         CNVRico         .... off

SCF Procedure:
 Maximum # iterations   MaxIter         ....   125
 SCF integral mode      SCFMode         .... Direct
   Integral package                     .... SHARK and LIBINT hybrid scheme
 Reset frequency        DirectResetFreq ....    20
 Integral Threshold     Thresh          ....  2.500e-11 Eh
 Primitive CutOff       TCut            ....  2.500e-12 Eh

Convergence Tolerance:
 Convergence Check Mode ConvCheckMode   .... Total+1el-Energy
 Convergence forced     ConvForced      .... 0
 Energy Change          TolE            ....  1.000e-08 Eh
 1-El. energy change                    ....  1.000e-05 Eh
 Orbital Gradient       TolG            ....  1.000e-05
 Orbital Rotation angle TolX            ....  1.000e-05
 DIIS Error             TolErr          ....  5.000e-07


Diagonalization of the overlap matrix:
Smallest eigenvalue                        ... 7.034e-07
Time for diagonalization                   ...    0.172 sec
Threshold for overlap eigenvalues          ... 1.000e-08
Number of eigenvalues below threshold      ... 0
Time for construction of square roots      ...    0.107 sec
Total time needed                          ...    0.283 sec

Time for model grid setup =    0.332 sec

------------------------------
INITIAL GUESS: MODEL POTENTIAL
------------------------------
Loading Hartree-Fock densities                     ... done
Calculating cut-offs                               ... done
Initializing the effective Hamiltonian             ... done
Setting up the integral package (SHARK)            ... done
Starting the Coulomb interaction                   ... done (   0.9 sec)
Reading the grid                                   ... done
Mapping shells                                     ... done
Starting the XC term evaluation                    ... done (   0.8 sec)
  promolecular density results
     # of electrons  =     87.996040858
     EX              =    -71.025303085
     EC              =     -2.926749590
     EX+EC           =    -73.952052676
Transforming the Hamiltonian                       ... done (   0.1 sec)
Diagonalizing the Hamiltonian                      ... done (   0.2 sec)
Back transforming the eigenvectors                 ... done (   0.0 sec)
Now organizing SCF variables                       ... done
                      ------------------
                      INITIAL GUESS DONE (   2.4 sec)
                      ------------------
-------------------
DFT GRID GENERATION
-------------------

General Integration Accuracy     IntAcc      ... 4.388
Radial Grid Type                 RadialGrid  ... OptM3 with GC (2021)
Angular Grid (max. ang.)         AngularGrid ... 4 (Lebedev-302)
Angular grid pruning method      GridPruning ... 4 (adaptive)
Weight generation scheme         WeightScheme... Becke
Basis function cutoff            BFCut       ... 1.0000e-11
Integration weight cutoff        WCut        ... 1.0000e-14
Angular grids for H and He will be reduced by one unit
Partially contracted basis set               ... off
Rotationally invariant grid construction     ... off

Total number of grid points                  ...   113677
Total number of batches                      ...     1790
Average number of points per batch           ...       63
Average number of grid points per atom       ...     4737
Time for grid setup =    1.238 sec

--------------------
COSX GRID GENERATION
--------------------

GRIDX 1
-------
General Integration Accuracy     IntAcc      ... 3.816
Radial Grid Type                 RadialGrid  ... OptM3 with GC (2021)
Angular Grid (max. ang.)         AngularGrid ... 1 (Lebedev-50)
Angular grid pruning method      GridPruning ... 4 (adaptive)
Weight generation scheme         WeightScheme... Becke
Basis function cutoff            BFCut       ... 1.0000e-11
Integration weight cutoff        WCut        ... 1.0000e-14
Angular grids for H and He will be reduced by one unit
Partially contracted basis set               ... on
Rotationally invariant grid construction     ... off

Total number of grid points                  ...    14556
Total number of batches                      ...      237
Average number of points per batch           ...       61
Average number of grid points per atom       ...      606
UseSFitting                                  ... on

GRIDX 2
-------
General Integration Accuracy     IntAcc      ... 4.020
Radial Grid Type                 RadialGrid  ... OptM3 with GC (2021)
Angular Grid (max. ang.)         AngularGrid ... 2 (Lebedev-110)
Angular grid pruning method      GridPruning ... 4 (adaptive)
Weight generation scheme         WeightScheme... Becke
Basis function cutoff            BFCut       ... 1.0000e-11
Integration weight cutoff        WCut        ... 1.0000e-14
Angular grids for H and He will be reduced by one unit
Partially contracted basis set               ... on
Rotationally invariant grid construction     ... off

Total number of grid points                  ...    33856
Total number of batches                      ...      543
Average number of points per batch           ...       62
Average number of grid points per atom       ...     1411
UseSFitting                                  ... on

GRIDX 3
-------
General Integration Accuracy     IntAcc      ... 4.338
Radial Grid Type                 RadialGrid  ... OptM3 with GC (2021)
Angular Grid (max. ang.)         AngularGrid ... 3 (Lebedev-194)
Angular grid pruning method      GridPruning ... 4 (adaptive)
Weight generation scheme         WeightScheme... Becke
Basis function cutoff            BFCut       ... 1.0000e-11
Integration weight cutoff        WCut        ... 1.0000e-14
Angular grids for H and He will be reduced by one unit
Partially contracted basis set               ... on
Rotationally invariant grid construction     ... off

Total number of grid points                  ...    73054
Total number of batches                      ...     1153
Average number of points per batch           ...       63
Average number of grid points per atom       ...     3044
UseSFitting                                  ... on

Time for X-Grid setup             =    2.672 sec


--------------------
CPCM SOLVATION MODEL
--------------------
CPCM parameters:
  Epsilon                                         ...       2.0165
  Refrac                                          ...       1.4266
  Rsolv                                           ...       1.3000
  Surface type                                    ... GAUSSIAN VDW
  Epsilon function type                           ...         CPCM
Solvent:                                     ... CYCLOHEXANE
SMD-CDS solvent descriptors:
  Soln                                       ...    1.4266
  Soln25                                     ...    1.4235
  Sola                                       ...    0.0000
  Solb                                       ...    0.0000
  Solg                                       ...   35.4800
  Solc                                       ...    0.0000
  Solh                                       ...    0.0000
Radii:
 Radius for C  used is    3.4960 Bohr (=   1.8500 Ang.)
 Radius for O  used is    4.3350 Bohr (=   2.2940 Ang.)
 Radius for H  used is    2.2677 Bohr (=   1.2000 Ang.)
Calculating surface                               ...        done! (  0.0s)
GEPOL surface points                              ...         1353
GEPOL Volume                                      ...    1335.3336
GEPOL Surface-area                                ...     750.0000
Calculating surface distance matrix               ...        done! (  0.0s)
Performing Cholesky decomposition & store         ...        done! (  0.1s)
Overall time for CPCM initialization              ...                 0.1s
 re-compute Schwartz prescreening matrix in partically contracted basis (1) ...done (   0.172 sec)
--------------
SCF ITERATIONS
--------------
ITER       Energy         Delta-E        Max-DP      RMS-DP      [F,P]     Damp
               ***  Starting incremental Fock matrix formation  ***
  0   -538.4658899177   0.000000000000 0.08649079  0.00101092  0.1637309 0.7000
  1   -538.5657326850  -0.099842767286 0.06539726  0.00075958  0.0994881 0.7000
                               ***Turning on DIIS***
  2   -538.6202378554  -0.054505170351 0.12133965  0.00172786  0.0522370 0.0000
  3   -538.7123956262  -0.092157770848 0.04263736  0.00062257  0.0370616 0.0000
  4   -538.7234623366  -0.011066710415 0.01285533  0.00019099  0.0054051 0.0000
  5   -538.7237797260  -0.000317389335 0.00536928  0.00006865  0.0033836 0.0000
                      *** Initiating the SOSCF procedure ***
                           *** Shutting down DIIS ***
                      *** Re-Reading the Fockian *** 
                      *** Removing any level shift *** 
ITER      Energy       Delta-E        Grad      Rot      Max-DP    RMS-DP
  6   -538.72385073  -0.0000709999  0.000726  0.000726  0.001393  0.000023
               *** Restarting incremental Fock matrix formation ***
  7   -538.72388556  -0.0000348318  0.000518  0.001635  0.009244  0.000141
  8   -538.72389152  -0.0000059621  0.000137  0.001157  0.007033  0.000082
  9   -538.72389421  -0.0000026936  0.000045  0.000113  0.004298  0.000061
 10   -538.72389443  -0.0000002124  0.000024  0.000074  0.001313  0.000019
 11   -538.72389444  -0.0000000154  0.000008  0.000042  0.002164  0.000016
 12   -538.72389445  -0.0000000065  0.000003  0.000021  0.001996  0.000022
                  ***Gradient check signals convergence***
              ***Rediagonalizing the Fockian in SOSCF/NRSCF***

               *****************************************************
               *                     SUCCESS                       *
               *           SCF CONVERGED AFTER  13 CYCLES          *
               *****************************************************

Old exchange energy                            =    -23.637370592 Eh
New exchange energy                            =    -23.637348914 Eh
Exchange energy change after final integration =      0.000021678 Eh
Total energy after final integration           =   -538.723872786 Eh
Final COS-X integration done in                =    84.330 sec

SMD CDS free energy correction energy :                -2.58603     Kcal/mol
Total Energy after SMD CDS correction =              -538.727993882 Eh

----------------
TOTAL SCF ENERGY
----------------

Total Energy       :         -538.72799388 Eh          -14659.53399 eV

Components:
Nuclear Repulsion  :          678.47788110 Eh           18462.32175 eV
Electronic Energy  :        -1217.20587498 Eh          -33121.85574 eV
One Electron Energy:        -2076.48620271 Eh          -56504.06219 eV
Two Electron Energy:          859.28032772 Eh           23382.20645 eV
Max COSX asymmetry :            0.00002898 Eh               0.00079 eV
CPCM Dielectric    :           -0.00663240 Eh              -0.18048 eV
SMD CDS (Gcds)     :           -0.00412110 Eh              -0.11214 eV

Virial components:
Potential Energy   :        -1074.41465681 Eh          -29236.30916 eV
Kinetic Energy     :          535.68666293 Eh           14576.77517 eV
Virial Ratio       :            2.00567744


DFT components:
N(Alpha)           :       43.999997836864 electrons
N(Beta)            :       43.999997836864 electrons
N(Total)           :       87.999995673727 electrons
E(XC)              :      -52.243378422501 Eh       
DFET-embed. en.    :        0.000000000000 Eh       
CPCM Solvation Model Properties:
Surface-charge          :           -0.04670079
Charge-correction       :            0.00007282 Eh               0.00198 eV
Free-energy (cav+disp)  :           -0.00412110 Eh              -0.11214 eV

---------------
SCF CONVERGENCE
---------------

  Last Energy change         ...   -1.6620e-08  Tolerance :   1.0000e-08
  Last MAX-Density change    ...    4.4409e-15  Tolerance :   1.0000e-07
  Last RMS-Density change    ...    1.7998e-17  Tolerance :   5.0000e-09
  Last Orbital Gradient      ...    1.8146e-06  Tolerance :   1.0000e-05
  Last Orbital Rotation      ...    5.6647e-06  Tolerance :   1.0000e-05

             **** THE GBW FILE WAS UPDATED (wb97x-d3-train-7.gbw) ****
             **** DENSITY wb97x-d3-train-7.scfp WAS UPDATED ****
             **** ENERGY FILE WAS UPDATED (wb97x-d3-train-7.en.tmp) ****
             **** THE GBW FILE WAS UPDATED (wb97x-d3-train-7.gbw) ****
             **** DENSITY wb97x-d3-train-7.scfp WAS UPDATED ****
----------------
ORBITAL ENERGIES
----------------

  NO   OCC          E(Eh)            E(eV) 
   0   2.0000     -19.264740      -524.2202 
   1   2.0000     -19.263524      -524.1871 
   2   2.0000     -10.341272      -281.4003 
   3   2.0000     -10.340460      -281.3782 
   4   2.0000     -10.322954      -280.9019 
   5   2.0000     -10.322440      -280.8879 
   6   2.0000     -10.285373      -279.8792 
   7   2.0000     -10.282190      -279.7926 
   8   2.0000     -10.279398      -279.7166 
   9   2.0000     -10.278624      -279.6956 
  10   2.0000     -10.275155      -279.6012 
  11   2.0000     -10.266308      -279.3605 
  12   2.0000      -1.195103       -32.5204 
  13   2.0000      -1.174426       -31.9578 
  14   2.0000      -0.980760       -26.6878 
  15   2.0000      -0.911175       -24.7943 
  16   2.0000      -0.872244       -23.7350 
  17   2.0000      -0.856177       -23.2978 
  18   2.0000      -0.815591       -22.1934 
  19   2.0000      -0.796961       -21.6864 
  20   2.0000      -0.728121       -19.8132 
  21   2.0000      -0.709538       -19.3075 
  22   2.0000      -0.666206       -18.1284 
  23   2.0000      -0.639277       -17.3956 
  24   2.0000      -0.611372       -16.6363 
  25   2.0000      -0.599600       -16.3160 
  26   2.0000      -0.580225       -15.7887 
  27   2.0000      -0.571556       -15.5528 
  28   2.0000      -0.562314       -15.3013 
  29   2.0000      -0.548698       -14.9308 
  30   2.0000      -0.535649       -14.5757 
  31   2.0000      -0.523103       -14.2344 
  32   2.0000      -0.504964       -13.7408 
  33   2.0000      -0.492288       -13.3958 
  34   2.0000      -0.482577       -13.1316 
  35   2.0000      -0.463780       -12.6201 
  36   2.0000      -0.446973       -12.1628 
  37   2.0000      -0.439893       -11.9701 
  38   2.0000      -0.423846       -11.5334 
  39   2.0000      -0.418352       -11.3839 
  40   2.0000      -0.417898       -11.3716 
  41   2.0000      -0.372633       -10.1399 
  42   2.0000      -0.325258        -8.8507 
  43   2.0000      -0.280778        -7.6404 
  44   0.0000       0.036002         0.9797 
  45   0.0000       0.049611         1.3500 
  46   0.0000       0.052314         1.4235 
  47   0.0000       0.054544         1.4842 
  48   0.0000       0.067258         1.8302 
  49   0.0000       0.069465         1.8902 
  50   0.0000       0.069592         1.8937 
  51   0.0000       0.078260         2.1296 
  52   0.0000       0.079538         2.1643 
  53   0.0000       0.090152         2.4532 
  54   0.0000       0.094195         2.5632 
  55   0.0000       0.097743         2.6597 
  56   0.0000       0.101136         2.7521 
  57   0.0000       0.102976         2.8021 
  58   0.0000       0.109175         2.9708 
  59   0.0000       0.117702         3.2028 
  60   0.0000       0.123417         3.3583 
  61   0.0000       0.126396         3.4394 
  62   0.0000       0.132181         3.5968 
  63   0.0000       0.140185         3.8146 
  64   0.0000       0.141175         3.8416 
  65   0.0000       0.154046         4.1918 
  66   0.0000       0.156770         4.2659 
  67   0.0000       0.159289         4.3345 
  68   0.0000       0.162643         4.4257 
  69   0.0000       0.164366         4.4726 
  70   0.0000       0.169072         4.6007 
  71   0.0000       0.172798         4.7021 
  72   0.0000       0.175350         4.7715 
  73   0.0000       0.181148         4.9293 
  74   0.0000       0.182679         4.9710 
  75   0.0000       0.189196         5.1483 
  76   0.0000       0.194292         5.2870 
  77   0.0000       0.195089         5.3086 
  78   0.0000       0.201202         5.4750 
  79   0.0000       0.204712         5.5705 
  80   0.0000       0.208185         5.6650 
  81   0.0000       0.210588         5.7304 
  82   0.0000       0.222275         6.0484 
  83   0.0000       0.229536         6.2460 
  84   0.0000       0.235013         6.3950 
  85   0.0000       0.236250         6.4287 
  86   0.0000       0.238015         6.4767 
  87   0.0000       0.242848         6.6082 
  88   0.0000       0.244149         6.6436 
  89   0.0000       0.251184         6.8351 
  90   0.0000       0.253090         6.8869 
  91   0.0000       0.257183         6.9983 
  92   0.0000       0.258930         7.0458 
  93   0.0000       0.267455         7.2778 
  94   0.0000       0.267739         7.2856 
  95   0.0000       0.284174         7.7328 
  96   0.0000       0.285340         7.7645 
  97   0.0000       0.290655         7.9091 
  98   0.0000       0.293246         7.9796 
  99   0.0000       0.301026         8.1913 
 100   0.0000       0.306900         8.3512 
 101   0.0000       0.308656         8.3990 
 102   0.0000       0.315167         8.5761 
 103   0.0000       0.325237         8.8501 
 104   0.0000       0.329389         8.9631 
 105   0.0000       0.332378         9.0445 
 106   0.0000       0.335162         9.1202 
 107   0.0000       0.337388         9.1808 
 108   0.0000       0.340764         9.2726 
 109   0.0000       0.345167         9.3925 
 110   0.0000       0.349552         9.5118 
 111   0.0000       0.353582         9.6215 
 112   0.0000       0.356367         9.6972 
 113   0.0000       0.363280         9.8854 
 114   0.0000       0.369936        10.0665 
 115   0.0000       0.372549        10.1376 
 116   0.0000       0.375742        10.2245 
 117   0.0000       0.382699        10.4138 
 118   0.0000       0.388491        10.5714 
 119   0.0000       0.388973        10.5845 
 120   0.0000       0.401568        10.9272 
 121   0.0000       0.411182        11.1888 
 122   0.0000       0.415701        11.3118 
 123   0.0000       0.420080        11.4309 
 124   0.0000       0.420891        11.4530 
 125   0.0000       0.427354        11.6289 
 126   0.0000       0.431702        11.7472 
 127   0.0000       0.434816        11.8319 
 128   0.0000       0.446979        12.1629 
 129   0.0000       0.447467        12.1762 
 130   0.0000       0.451388        12.2829 
 131   0.0000       0.456008        12.4086 
 132   0.0000       0.461353        12.5541 
 133   0.0000       0.463697        12.6178 
 134   0.0000       0.469036        12.7631 
 135   0.0000       0.472273        12.8512 
 136   0.0000       0.472398        12.8546 
 137   0.0000       0.474453        12.9105 
 138   0.0000       0.479418        13.0456 
 139   0.0000       0.487029        13.2527 
 140   0.0000       0.492811        13.4101 
 141   0.0000       0.496941        13.5225 
 142   0.0000       0.497632        13.5413 
 143   0.0000       0.501887        13.6570 
 144   0.0000       0.508296        13.8314 
 145   0.0000       0.519458        14.1352 
 146   0.0000       0.525688        14.3047 
 147   0.0000       0.530364        14.4319 
 148   0.0000       0.531505        14.4630 
 149   0.0000       0.534847        14.5539 
 150   0.0000       0.537622        14.6294 
 151   0.0000       0.551129        14.9970 
 152   0.0000       0.560144        15.2423 
 153   0.0000       0.567920        15.4539 
 154   0.0000       0.574551        15.6343 
 155   0.0000       0.576347        15.6832 
 156   0.0000       0.579884        15.7795 
 157   0.0000       0.584178        15.8963 
 158   0.0000       0.588907        16.0250 
 159   0.0000       0.590572        16.0703 
 160   0.0000       0.595675        16.2091 
 161   0.0000       0.610692        16.6178 
 162   0.0000       0.612494        16.6668 
 163   0.0000       0.623567        16.9681 
 164   0.0000       0.637191        17.3389 
 165   0.0000       0.640598        17.4316 
 166   0.0000       0.648180        17.6379 
 167   0.0000       0.661474        17.9996 
 168   0.0000       0.669926        18.2296 
 169   0.0000       0.670746        18.2519 
 170   0.0000       0.676915        18.4198 
 171   0.0000       0.685222        18.6458 
 172   0.0000       0.691810        18.8251 
 173   0.0000       0.699010        19.0210 
 174   0.0000       0.707122        19.2418 
 175   0.0000       0.709569        19.3084 
 176   0.0000       0.713393        19.4124 
 177   0.0000       0.715863        19.4796 
 178   0.0000       0.733939        19.9715 
 179   0.0000       0.748160        20.3585 
 180   0.0000       0.750020        20.4091 
 181   0.0000       0.752869        20.4866 
 182   0.0000       0.754262        20.5245 
 183   0.0000       0.759968        20.6798 
 184   0.0000       0.766763        20.8647 
 185   0.0000       0.768590        20.9144 
 186   0.0000       0.771101        20.9827 
 187   0.0000       0.775584        21.1047 
 188   0.0000       0.785809        21.3829 
 189   0.0000       0.790194        21.5023 
 190   0.0000       0.795996        21.6601 
 191   0.0000       0.802440        21.8355 
 192   0.0000       0.810902        22.0658 
 193   0.0000       0.811301        22.0766 
 194   0.0000       0.819467        22.2988 
 195   0.0000       0.824178        22.4270 
 196   0.0000       0.831899        22.6371 
 197   0.0000       0.834492        22.7077 
 198   0.0000       0.838410        22.8143 
 199   0.0000       0.842972        22.9384 
 200   0.0000       0.845840        23.0165 
 201   0.0000       0.856646        23.3105 
 202   0.0000       0.860846        23.4248 
 203   0.0000       0.862902        23.4808 
 204   0.0000       0.868614        23.6362 
 205   0.0000       0.886554        24.1244 
 206   0.0000       0.888077        24.1658 
 207   0.0000       0.896384        24.3919 
 208   0.0000       0.904031        24.5999 
 209   0.0000       0.905996        24.6534 
 210   0.0000       0.910111        24.7654 
 211   0.0000       0.912171        24.8214 
 212   0.0000       0.922829        25.1115 
 213   0.0000       0.925447        25.1827 
 214   0.0000       0.931405        25.3448 
 215   0.0000       0.934932        25.4408 
 216   0.0000       0.939674        25.5698 
 217   0.0000       0.950624        25.8678 
 218   0.0000       0.959265        26.1029 
 219   0.0000       0.966311        26.2947 
 220   0.0000       0.970670        26.4133 
 221   0.0000       0.984161        26.7804 
 222   0.0000       0.995108        27.0783 
 223   0.0000       1.000280        27.2190 
 224   0.0000       1.000326        27.2202 
 225   0.0000       1.008754        27.4496 
 226   0.0000       1.019666        27.7465 
 227   0.0000       1.022627        27.8271 
 228   0.0000       1.033623        28.1263 
 229   0.0000       1.035217        28.1697 
 230   0.0000       1.042360        28.3640 
 231   0.0000       1.047010        28.4906 
 232   0.0000       1.052630        28.6435 
 233   0.0000       1.056603        28.7516 
 234   0.0000       1.062481        28.9116 
 235   0.0000       1.071715        29.1629 
 236   0.0000       1.076836        29.3022 
 237   0.0000       1.083322        29.4787 
 238   0.0000       1.095400        29.8073 
 239   0.0000       1.096580        29.8394 
 240   0.0000       1.099799        29.9271 
 241   0.0000       1.120703        30.4959 
 242   0.0000       1.122358        30.5409 
 243   0.0000       1.127183        30.6722 
 244   0.0000       1.129402        30.7326 
 245   0.0000       1.141712        31.0676 
 246   0.0000       1.147575        31.2271 
 247   0.0000       1.162941        31.6452 
 248   0.0000       1.178017        32.0555 
 249   0.0000       1.181015        32.1371 
 250   0.0000       1.196707        32.5640 
 251   0.0000       1.204758        32.7831 
 252   0.0000       1.207794        32.8658 
 253   0.0000       1.210482        32.9389 
 254   0.0000       1.216604        33.1055 
 255   0.0000       1.229990        33.4697 
 256   0.0000       1.238350        33.6972 
 257   0.0000       1.249885        34.0111 
 258   0.0000       1.255385        34.1608 
 259   0.0000       1.257311        34.2132 
 260   0.0000       1.263897        34.3924 
 261   0.0000       1.276568        34.7372 
 262   0.0000       1.291570        35.1454 
 263   0.0000       1.302785        35.4506 
 264   0.0000       1.307413        35.5765 
 265   0.0000       1.322737        35.9935 
 266   0.0000       1.324177        36.0327 
 267   0.0000       1.328233        36.1431 
 268   0.0000       1.344191        36.5773 
 269   0.0000       1.351652        36.7803 
 270   0.0000       1.355260        36.8785 
 271   0.0000       1.360439        37.0194 
 272   0.0000       1.367453        37.2103 
 273   0.0000       1.371640        37.3242 
 274   0.0000       1.374053        37.3899 
 275   0.0000       1.381761        37.5996 
 276   0.0000       1.384518        37.6747 
 277   0.0000       1.391072        37.8530 
 278   0.0000       1.400257        38.1029 
 279   0.0000       1.406180        38.2641 
 280   0.0000       1.416001        38.5314 
 281   0.0000       1.419610        38.6296 
 282   0.0000       1.426663        38.8215 
 283   0.0000       1.427589        38.8467 
 284   0.0000       1.435932        39.0737 
 285   0.0000       1.447669        39.3931 
 286   0.0000       1.458726        39.6940 
 287   0.0000       1.460777        39.7498 
 288   0.0000       1.474008        40.1098 
 289   0.0000       1.477509        40.2051 
 290   0.0000       1.482553        40.3423 
 291   0.0000       1.492920        40.6244 
 292   0.0000       1.499119        40.7931 
 293   0.0000       1.499864        40.8134 
 294   0.0000       1.511023        41.1170 
 295   0.0000       1.513840        41.1937 
 296   0.0000       1.523073        41.4449 
 297   0.0000       1.526007        41.5248 
 298   0.0000       1.538968        41.8774 
 299   0.0000       1.549562        42.1657 
 300   0.0000       1.558887        42.4195 
 301   0.0000       1.561368        42.4870 
 302   0.0000       1.573478        42.8165 
 303   0.0000       1.575190        42.8631 
 304   0.0000       1.577592        42.9285 
 305   0.0000       1.588433        43.2235 
 306   0.0000       1.590037        43.2671 
 307   0.0000       1.592868        43.3442 
 308   0.0000       1.599951        43.5369 
 309   0.0000       1.602936        43.6181 
 310   0.0000       1.608798        43.7776 
 311   0.0000       1.611593        43.8537 
 312   0.0000       1.622082        44.1391 
 313   0.0000       1.626153        44.2499 
 314   0.0000       1.644289        44.7434 
 315   0.0000       1.649571        44.8871 
 316   0.0000       1.663751        45.2730 
 317   0.0000       1.667375        45.3716 
 318   0.0000       1.676089        45.6087 
 319   0.0000       1.677359        45.6433 
[...]
   Time for K (COSX):            38.122
   Time for XC-Integration:      18.162
   Time for LR-CPCM terms:        8.888
   Time for Sigma-Completion:     0.161
   Size of expansion space: 30
   Lowest Energy          :     0.196650792658
   Maximum Energy change  :     0.260371508348 (vector 9)
   Maximum residual norm  :     0.022500296351

                       ****Iteration    1****
   Time for densities:            0.078
   Time for RI-J (Direct):        3.966
   Time for K (COSX):            16.258
   Time for XC-Integration:       6.375
   Time for LR-CPCM terms:        4.197
   Time for Sigma-Completion:     0.059
   Size of expansion space: 40
   Lowest Energy          :     0.181300847101
   Maximum Energy change  :     0.017528798411 (vector 5)
   Maximum residual norm  :     0.001260536004

                       ****Iteration    2****
   Time for densities:            0.078
   Time for RI-J (Direct):        3.960
   Time for K (COSX):            16.351
   Time for XC-Integration:       6.407
   Time for LR-CPCM terms:        4.201
   Time for Sigma-Completion:     0.059
   Size of expansion space: 50
   Lowest Energy          :     0.179600720685
   Maximum Energy change  :     0.003379788355 (vector 8)
   Maximum residual norm  :     0.000869841480

                       ****Iteration    3****
   Time for densities:            0.091
   Time for RI-J (Direct):        4.009
   Time for K (COSX):            16.335
   Time for XC-Integration:       6.506
   Time for LR-CPCM terms:        4.173
   Time for Sigma-Completion:     0.054
   Size of expansion space: 60
   Lowest Energy          :     0.179426431655
   Maximum Energy change  :     0.001916429180 (vector 8)
   Maximum residual norm  :     0.000296525209

                       ****Iteration    4****
   Time for densities:            0.078
   Time for RI-J (Direct):        3.984
   Time for K (COSX):            16.332
   Time for XC-Integration:       6.528
   Time for LR-CPCM terms:        4.192
   Time for Sigma-Completion:     0.068
   Size of expansion space: 70
   Lowest Energy          :     0.179403817598
   Maximum Energy change  :     0.000485883279 (vector 8)
   Maximum residual norm  :     0.000030896708
   Rebuilding the expansion space

                       ****Iteration    5****
   Time for densities:            0.153
   Time for RI-J (Direct):        5.322
   Time for K (COSX):            26.389
   Time for XC-Integration:      12.625
   Time for LR-CPCM terms:        6.579
   Time for Sigma-Completion:     0.108
   Size of expansion space: 20
   Lowest Energy          :     0.179401647344
   Maximum Energy change  :     0.000051045139 (vector 8)
   Maximum residual norm  :     0.000007599350

                       ****Iteration    6****
   Time for densities:            0.078
   Time for RI-J (Direct):        3.990
   Time for K (COSX):            16.384
   Time for XC-Integration:       6.591
   Time for LR-CPCM terms:        4.188
   Time for Sigma-Completion:     0.059
   Size of expansion space: 30
   Lowest Energy          :     0.179401427334
   Maximum Energy change  :     0.000014550606 (vector 8)
   Maximum residual norm  :     0.000002004068

                       ****Iteration    7****
   Time for densities:            0.078
   Time for RI-J (Direct):        3.964
   Time for K (COSX):            16.294
   Time for XC-Integration:       6.471
   Time for LR-CPCM terms:        4.186
   Time for Sigma-Completion:     0.059
   Size of expansion space: 40
   Lowest Energy          :     0.179401397068
   Maximum Energy change  :     0.000005015320 (vector 9)
   Maximum residual norm  :     0.000001048961

                       ****Iteration    8****
   Time for densities:            0.078
   Time for RI-J (Direct):        3.998
   Time for K (COSX):            16.383
   Time for XC-Integration:       6.605
   Time for LR-CPCM terms:        4.210
   Time for Sigma-Completion:     0.054
   Size of expansion space: 50
   Lowest Energy          :     0.179401393392
   Maximum Energy change  :     0.000002668175 (vector 9)
   Maximum residual norm  :     0.000000557818

      *** CONVERGENCE OF RESIDUAL NORM REACHED ***

Storing the converged CI vectors               ... wb97x-d3-train-7_job2.cis1

                 *** DAVIDSON DONE ***

Total time for solving the CIS problem:   343.217sec

------------------------------------
TD-DFT/TDA EXCITED STATES (SINGLETS)
------------------------------------

the weight of the individual excitations are printed if larger than 1.0e-02

STATE  1:  E=   0.179401 au      4.882 eV    39374.1 cm**-1 <S**2> =   0.000000
    41a ->  44a  :     0.013678 (c= -0.11695385)
    43a ->  44a  :     0.873217 (c=  0.93446056)
    43a ->  50a  :     0.020584 (c= -0.14347235)

STATE  2:  E=   0.183214 au      4.985 eV    40210.8 cm**-1 <S**2> =   0.000000
    42a ->  44a  :     0.286155 (c= -0.53493457)
    43a ->  44a  :     0.046690 (c=  0.21607776)
    43a ->  48a  :     0.058483 (c=  0.24183223)
    43a ->  49a  :     0.068344 (c=  0.26142748)
    43a ->  50a  :     0.357656 (c=  0.59804346)
    43a ->  51a  :     0.064214 (c= -0.25340440)
    43a ->  52a  :     0.041982 (c= -0.20489584)

STATE  3:  E=   0.210422 au      5.726 eV    46182.4 cm**-1 <S**2> =   0.000000
    43a ->  45a  :     0.013434 (c= -0.11590675)
    43a ->  46a  :     0.309252 (c= -0.55610437)
    43a ->  48a  :     0.015686 (c= -0.12524344)
    43a ->  50a  :     0.023298 (c=  0.15263674)
    43a ->  51a  :     0.308795 (c=  0.55569282)
    43a ->  52a  :     0.149159 (c= -0.38621163)
    43a ->  54a  :     0.015688 (c= -0.12525175)
    43a ->  55a  :     0.030561 (c= -0.17481663)
    43a ->  56a  :     0.020228 (c=  0.14222482)
    43a ->  57a  :     0.013712 (c=  0.11709982)

STATE  4:  E=   0.223568 au      6.084 eV    49067.6 cm**-1 <S**2> =   0.000000
    41a ->  47a  :     0.011072 (c=  0.10522121)
    42a ->  46a  :     0.012638 (c=  0.11241665)
    43a ->  45a  :     0.013606 (c= -0.11664316)
    43a ->  46a  :     0.097446 (c= -0.31216352)
    43a ->  47a  :     0.500751 (c= -0.70763768)
    43a ->  48a  :     0.011763 (c=  0.10845938)
    43a ->  49a  :     0.076131 (c=  0.27591779)
    43a ->  50a  :     0.044794 (c= -0.21164601)
    43a ->  51a  :     0.017244 (c= -0.13131775)
    43a ->  55a  :     0.013726 (c=  0.11715827)
    43a ->  57a  :     0.013714 (c= -0.11710887)
    43a ->  58a  :     0.024231 (c= -0.15566423)
    43a ->  66a  :     0.021040 (c= -0.14505114)
    43a ->  69a  :     0.010279 (c=  0.10138578)

STATE  5:  E=   0.227159 au      6.181 eV    49855.7 cm**-1 <S**2> =   0.000000
    42a ->  44a  :     0.503189 (c=  0.70935826)
    43a ->  45a  :     0.112711 (c= -0.33572432)
    43a ->  49a  :     0.055063 (c=  0.23465490)
    43a ->  50a  :     0.130001 (c=  0.36055714)
    43a ->  51a  :     0.049490 (c= -0.22246307)
    43a ->  52a  :     0.025724 (c= -0.16038698)
    43a ->  59a  :     0.010613 (c=  0.10302145)

STATE  6:  E=   0.227718 au      6.197 eV    49978.3 cm**-1 <S**2> =   0.000000
    42a ->  44a  :     0.104444 (c=  0.32317851)
    43a ->  45a  :     0.567004 (c=  0.75299681)
    43a ->  47a  :     0.012222 (c= -0.11055520)
    43a ->  48a  :     0.126848 (c=  0.35615667)
    43a ->  49a  :     0.010751 (c= -0.10368938)
    43a ->  50a  :     0.019794 (c=  0.14068980)
    43a ->  52a  :     0.010025 (c= -0.10012610)
    43a ->  56a  :     0.012369 (c=  0.11121662)
    43a ->  57a  :     0.025933 (c= -0.16103577)

STATE  7:  E=   0.236701 au      6.441 eV    51949.9 cm**-1 <S**2> =   0.000000
    41a ->  44a  :     0.010201 (c= -0.10099838)
    42a ->  44a  :     0.017929 (c=  0.13389780)
    42a ->  48a  :     0.038174 (c= -0.19538183)
    42a ->  49a  :     0.042831 (c= -0.20695541)
    42a ->  50a  :     0.211479 (c= -0.45986833)
    42a ->  51a  :     0.013996 (c=  0.11830604)
    42a ->  52a  :     0.022148 (c=  0.14882148)
    43a ->  48a  :     0.096823 (c=  0.31116348)
    43a ->  49a  :     0.068069 (c=  0.26089975)
    43a ->  50a  :     0.032110 (c=  0.17919132)
    43a ->  51a  :     0.099303 (c=  0.31512386)
    43a ->  52a  :     0.163266 (c=  0.40406154)
    43a ->  56a  :     0.010865 (c=  0.10423745)
    43a ->  59a  :     0.043008 (c= -0.20738282)
    43a ->  63a  :     0.011186 (c=  0.10576336)

STATE  8:  E=   0.238215 au      6.482 eV    52282.2 cm**-1 <S**2> =   0.000000
    41a ->  44a  :     0.023409 (c= -0.15300159)
    42a ->  45a  :     0.012609 (c= -0.11228992)
    42a ->  46a  :     0.010697 (c=  0.10342411)
    42a ->  48a  :     0.028940 (c= -0.17011897)
    42a ->  49a  :     0.026839 (c= -0.16382720)
    42a ->  50a  :     0.146812 (c= -0.38315991)
    43a ->  46a  :     0.158267 (c=  0.39782778)
    43a ->  47a  :     0.129679 (c= -0.36011031)
    43a ->  48a  :     0.060184 (c= -0.24532413)
    43a ->  49a  :     0.065438 (c= -0.25580910)
    43a ->  50a  :     0.017401 (c=  0.13191153)
    43a ->  52a  :     0.096142 (c= -0.31006808)
    43a ->  58a  :     0.044538 (c= -0.21104067)
    43a ->  62a  :     0.030690 (c= -0.17518432)
    43a ->  63a  :     0.013415 (c= -0.11582111)
    43a ->  67a  :     0.011256 (c=  0.10609251)

STATE  9:  E=   0.239764 au      6.524 eV    52622.1 cm**-1 <S**2> =   0.000000
    41a ->  44a  :     0.031632 (c= -0.17785460)
    42a ->  45a  :     0.010590 (c=  0.10290826)
    42a ->  46a  :     0.011996 (c= -0.10952717)
    42a ->  48a  :     0.028750 (c= -0.16955844)
    42a ->  49a  :     0.034699 (c= -0.18627779)
    42a ->  50a  :     0.140465 (c= -0.37478611)
    42a ->  51a  :     0.010312 (c=  0.10154692)
    43a ->  46a  :     0.173055 (c= -0.41599900)
    43a ->  47a  :     0.079087 (c=  0.28122481)
    43a ->  50a  :     0.059187 (c= -0.24328327)
    43a ->  51a  :     0.177468 (c= -0.42126972)
    43a ->  52a  :     0.063907 (c= -0.25279832)
    43a ->  56a  :     0.040192 (c= -0.20047909)
    43a ->  63a  :     0.013604 (c= -0.11663801)
    43a ->  66a  :     0.011977 (c= -0.10943850)

STATE 10:  E=   0.243966 au      6.639 eV    53544.3 cm**-1 <S**2> =   0.000000
    41a ->  45a  :     0.025759 (c= -0.16049628)
    41a ->  48a  :     0.012597 (c= -0.11223548)
    42a ->  45a  :     0.020086 (c= -0.14172348)
    42a ->  46a  :     0.177848 (c=  0.42172010)
    42a ->  51a  :     0.106158 (c= -0.32581911)
    42a ->  52a  :     0.047831 (c=  0.21870194)
    42a ->  55a  :     0.020167 (c=  0.14201122)
    43a ->  45a  :     0.026079 (c= -0.16149022)
    43a ->  47a  :     0.012928 (c=  0.11370033)
    43a ->  48a  :     0.196243 (c=  0.44299350)
    43a ->  49a  :     0.162626 (c= -0.40326889)
    43a ->  56a  :     0.010651 (c= -0.10320253)
    43a ->  57a  :     0.035020 (c=  0.18713713)


-----------------------------
TD-DFT/TDA-EXCITATION SPECTRA
-----------------------------

Center of mass = ( -0.2993,  0.0087, -0.0350)
Calculating the Dipole integrals                  ... done
Transforming integrals                            ... done
Calculating the Linear Momentum integrals         ... done
Transforming integrals                            ... done
Calculating angular momentum integrals            ... done
Transforming integrals                            ... done

-----------------------------------------------------------------------------
         ABSORPTION SPECTRUM VIA TRANSITION ELECTRIC DIPOLE MOMENTS
-----------------------------------------------------------------------------
State   Energy    Wavelength  fosc         T2        TX        TY        TZ  
        (cm-1)      (nm)                 (au**2)    (au)      (au)      (au) 
-----------------------------------------------------------------------------
   1   39374.1    254.0   0.534726263   4.47092  -1.98097  -0.73848   0.03657
   2   40210.8    248.7   0.026976142   0.22086  -0.29107  -0.35800   0.08928
   3   46182.4    216.5   0.016769745   0.11954  -0.02981   0.09511   0.33107
   4   49067.6    203.8   0.002625704   0.01762  -0.11635   0.00449   0.06372
   5   49855.7    200.6   0.949039335   6.26679   2.19681  -1.14423   0.36267
   6   49978.3    200.1   0.171021424   1.12653   0.89076  -0.49834   0.29110
   7   51949.9    192.5   0.134990433   0.85545  -0.74433  -0.54876   0.01680
   8   52282.2    191.3   0.035198694   0.22164  -0.34604  -0.31912   0.00758
   9   52622.1    190.0   0.055589785   0.34778  -0.46747  -0.33867   0.12063
  10   53544.3    186.8   0.009768544   0.06006   0.10049   0.19170   0.11494

-----------------------------------------------------------------------------
         ABSORPTION SPECTRUM VIA TRANSITION VELOCITY DIPOLE MOMENTS
-----------------------------------------------------------------------------
State   Energy    Wavelength   fosc        P2         PX        PY        PZ  
        (cm-1)      (nm)                 (au**2)     (au)      (au)      (au) 
-----------------------------------------------------------------------------
   1   39374.1    254.0   0.221435668   0.05959   0.22650   0.09101   0.00170
   2   40210.8    248.7   0.024546141   0.00675   0.07615   0.03076   0.00125
   3   46182.4    216.5   0.005566496   0.00176   0.00111  -0.00928  -0.04086
   4   49067.6    203.8   0.008904074   0.00299   0.01742   0.00247  -0.05173
   5   49855.7    200.6   0.296536843   0.10104  -0.29805   0.10489  -0.03476
   6   49978.3    200.1   0.052393000   0.01790  -0.11808   0.04266  -0.04618
   7   51949.9    192.5   0.043335131   0.01539   0.11903   0.03391   0.00833
   8   52282.2    191.3   0.007338359   0.00262   0.04104   0.01840   0.02449
   9   52622.1    190.0   0.016625036   0.00598   0.06956   0.01082  -0.03198
  10   53544.3    186.8   0.005098966   0.00187  -0.01420  -0.02299  -0.03370

-------------------------------------------------------------------
                             CD SPECTRUM
-------------------------------------------------------------------
State  Energy     Wavelength     R         MX        MY        MZ   
       (cm-1)       (nm)     (1e40*cgs)   (au)      (au)      (au)  
-------------------------------------------------------------------
   1   39374.1    254.0    -14.29394   0.02133  -0.00763   0.17247
   2   40210.8    248.7      2.97486   0.00368   0.02411   0.17936
   3   46182.4    216.5     -6.48909   0.00052  -0.10359  -0.01177
   4   49067.6    203.8     -4.09310   0.03978  -0.07666  -0.05822
   5   49855.7    200.6    -168.78097  -0.09724   0.11778  -0.02651
   6   49978.3    200.1    129.34354   0.18092  -0.20086   0.04499
   7   51949.9    192.5     -6.62825  -0.02644   0.06231   0.02686
   8   52282.2    191.3     41.50256  -0.01257  -0.26097   0.05308
   9   52622.1    190.0    -37.44883   0.03327   0.20196   0.03743
  10   53544.3    186.8    -35.06597  -0.34831  -0.19885  -0.01093

-------------------------------------------------------------------
         CD SPECTRUM VIA TRANSITION VELOCITY DIPOLE MOMENTS        
-------------------------------------------------------------------
State  Energy     Wavelength     R         MX        MY        MZ   
       (cm-1)       (nm)     (1e40*cgs)   (au)      (au)      (au)  
-------------------------------------------------------------------
   1   39374.1    254.0     11.64450   0.02133  -0.00763   0.17247
   2   40210.8    248.7      3.20554   0.00368   0.02411   0.17936
   3   46182.4    216.5      3.23145   0.00052  -0.10359  -0.01177
   4   49067.6    203.8      7.41354   0.03978  -0.07666  -0.05822
   5   49855.7    200.6     87.70358  -0.09724   0.11778  -0.02651
   6   49978.3    200.1    -66.27321   0.18092  -0.20086   0.04499
   7   51949.9    192.5     -1.61472  -0.02644   0.06231   0.02686
   8   52282.2    191.3     -7.95059  -0.01257  -0.26097   0.05308
   9   52622.1    190.0      6.49239   0.03327   0.20196   0.03743
  10   53544.3    186.8     19.10737  -0.34831  -0.19885  -0.01093

Total run time:      346.140 sec

           *** ORCA-CIS/TD-DFT FINISHED WITHOUT ERROR ***

Maximum memory used throughout the entire CIS-calculation: 798.3 MB

-----------------------
CIS/TD-DFT TOTAL ENERGY
-----------------------

    E(SCF)  =   -538.728698987 Eh
    DE(CIS) =      0.179401393 Eh (Root  1)
    ----------------------------- ---------
    E(tot)  =   -538.549297594 Eh



-------------------------------------------------------------------------------
                          DFT DISPERSION CORRECTION                            
                                                                               
                              DFTD3 V3.1  Rev 1                                
                              USING zero damping                               
-------------------------------------------------------------------------------
The omegaB97X-D3 functional is recognized. Fit by Chai et al.
Active option DFTDOPT                   ...         3   

molecular C6(AA) [au] = 5768.069375 


            DFT-D V3
 parameters
 s6 scaling factor         :     1.0000 
 rs6 scaling factor        :     1.2810 
 s8 scaling factor         :     1.0000 
 rs8 scaling factor        :     1.0940 
 Damping factor alpha6     :    14.0000 
 Damping factor alpha8     :    16.0000 
 ad hoc parameters k1-k3   :    16.0000     1.3333    -4.0000 

 Edisp/kcal,au: -4.607608860851  -0.007342691321 
 E6   /kcal   :  -2.089600327 
 E8   /kcal   :  -2.518008534 
 % E8         :  54.648921164 

-------------------------   ----------------
Dispersion correction           -0.007342691
-------------------------   ----------------


-------------------------   --------------------
FINAL SINGLE POINT ENERGY      -538.556640285371
-------------------------   --------------------


                            ***************************************
                            *     ORCA property calculations      *
                            ***************************************

                                    ---------------------
                                    Active property flags
                                    ---------------------
   (+) Dipole Moment


------------------------------------------------------------------------------
                       ORCA ELECTRIC PROPERTIES CALCULATION
------------------------------------------------------------------------------

Dipole Moment Calculation                       ... on
Quadrupole Moment Calculation                   ... off
Polarizability Calculation                      ... off
GBWName                                         ... wb97x-d3-train-7_job2.gbw
Electron density                                ... wb97x-d3-train-7_job2.scfp
The origin for moment calculation is the CENTER OF MASS  = (-0.299321,  0.008744 -0.035040)

-------------
DIPOLE MOMENT
-------------
                                X             Y             Z
Electronic contribution:     -2.55639      -0.06060      -0.07840
Nuclear contribution   :      2.46543       0.01586       0.09973
                        -----------------------------------------
Total Dipole Moment    :     -0.09096      -0.04473       0.02132
                        -----------------------------------------
Magnitude (a.u.)       :      0.10359
Magnitude (Debye)      :      0.26330



--------------------
Rotational spectrum 
--------------------
 
Rotational constants in cm-1:     0.044838     0.022563     0.015126 
Rotational constants in MHz :  1344.207953   676.432161   453.478210 

 Dipole components along the rotational axes: 
x,y,z [a.u.] :    -0.094473    -0.036866     0.021123 
x,y,z [Debye]:    -0.240131    -0.093706     0.053691 

 

Timings for individual modules:

Sum of individual times         ...      523.066 sec (=   8.718 min)
GTO integral calculation        ...        2.765 sec (=   0.046 min)   0.5 %
SCF iterations                  ...      173.522 sec (=   2.892 min)  33.2 %
CIS module                      ...      346.778 sec (=   5.780 min)  66.3 %



                             ****ORCA TERMINATED NORMALLY****
TOTAL RUN TIME: 0 days 1 hours 59 minutes 21 seconds 972 msec
