
                                 *****************
                                 * O   R   C   A *
                                 *****************

                                            #,                                       
                                            ###                                      
                                            ####                                     
                                            #####                                    
                                            ######                                   
                                           ########,                                 
                                     ,,################,,,,,                         
                               ,,#################################,,                 
                          ,,##########################################,,             
                       ,#########################################, ''#####,          
                    ,#############################################,,   '####,        
                  ,##################################################,,,,####,       
                ,###########''''           ''''###############################       
              ,#####''   ,,,,##########,,,,          '''####'''          '####       
            ,##' ,,,,###########################,,,                        '##       
           ' ,,###''''                  '''############,,,                           
         ,,##''                                '''############,,,,        ,,,,,,###''
      ,#''                                            '''#######################'''  
     '                                                          ''''####''''         
             ,#######,   #######,   ,#######,      ##                                
            ,#'     '#,  ##    ##  ,#'     '#,    #''#        ######   ,####,        
            ##       ##  ##   ,#'  ##            #'  '#       #        #'  '#        
            ##       ##  #######   ##           ,######,      #####,   #    #        
            '#,     ,#'  ##    ##  '#,     ,#' ,#      #,         ##   #,  ,#        
             '#######'   ##     ##  '#######'  #'      '#     #####' # '####'        



                  #######################################################
                  #                        -***-                        #
                  #          Department of theory and spectroscopy      #
                  #    Directorship and core code : Frank Neese         #
                  #        Max Planck Institute fuer Kohlenforschung    #
                  #                Kaiser Wilhelm Platz 1               #
                  #                 D-45470 Muelheim/Ruhr               #
                  #                      Germany                        #
                  #                                                     #
                  #                  All rights reserved                #
                  #                        -***-                        #
                  #######################################################


                         Program Version 5.0.2 -  RELEASE  -


 With contributions from (in alphabetic order):
   Daniel Aravena         : Magnetic Suceptibility
   Michael Atanasov       : Ab Initio Ligand Field Theory (pilot matlab implementation)
   Alexander A. Auer      : GIAO ZORA, VPT2 properties, NMR spectrum
   Ute Becker             : Parallelization
   Giovanni Bistoni       : ED, misc. LED, open-shell LED, HFLD
   Martin Brehm           : Molecular dynamics
   Dmytro Bykov           : SCF Hessian
   Vijay G. Chilkuri      : MRCI spin determinant printing, contributions to CSF-ICE
   Dipayan Datta          : RHF DLPNO-CCSD density
   Achintya Kumar Dutta   : EOM-CC, STEOM-CC
   Dmitry Ganyushin       : Spin-Orbit,Spin-Spin,Magnetic field MRCI
   Miquel Garcia          : C-PCM and meta-GGA Hessian, CC/C-PCM, Gaussian charge scheme
   Yang Guo               : DLPNO-NEVPT2, F12-NEVPT2, CIM, IAO-localization
   Andreas Hansen         : Spin unrestricted coupled pair/coupled cluster methods
   Benjamin Helmich-Paris : MC-RPA, TRAH-SCF, COSX integrals
   Lee Huntington         : MR-EOM, pCC
   Robert Izsak           : Overlap fitted RIJCOSX, COSX-SCS-MP3, EOM
   Marcus Kettner         : VPT2
   Christian Kollmar      : KDIIS, OOCD, Brueckner-CCSD(T), CCSD density, CASPT2, CASPT2-K
   Simone Kossmann        : Meta GGA functionals, TD-DFT gradient, OOMP2, MP2 Hessian
   Martin Krupicka        : Initial AUTO-CI
   Lucas Lang             : DCDCAS
   Marvin Lechner         : AUTO-CI (C++ implementation), FIC-MRCC
   Dagmar Lenk            : GEPOL surface, SMD
   Dimitrios Liakos       : Extrapolation schemes; Compound Job, initial MDCI parallelization
   Dimitrios Manganas     : Further ROCIS development; embedding schemes
   Dimitrios Pantazis     : SARC Basis sets
   Anastasios Papadopoulos: AUTO-CI, single reference methods and gradients
   Taras Petrenko         : DFT Hessian,TD-DFT gradient, ASA, ECA, R-Raman, ABS, FL, XAS/XES, NRVS
   Peter Pinski           : DLPNO-MP2, DLPNO-MP2 Gradient
   Christoph Reimann      : Effective Core Potentials
   Marius Retegan         : Local ZFS, SOC
   Christoph Riplinger    : Optimizer, TS searches, QM/MM, DLPNO-CCSD(T), (RO)-DLPNO pert. Triples
   Tobias Risthaus        : Range-separated hybrids, TD-DFT gradient, RPA, STAB
   Michael Roemelt        : Original ROCIS implementation
   Masaaki Saitow         : Open-shell DLPNO-CCSD energy and density
   Barbara Sandhoefer     : DKH picture change effects
   Avijit Sen             : IP-ROCIS
   Kantharuban Sivalingam : CASSCF convergence, NEVPT2, FIC-MRCI
   Bernardo de Souza      : ESD, SOC TD-DFT
   Georgi Stoychev        : AutoAux, RI-MP2 NMR, DLPNO-MP2 response
   Willem Van den Heuvel  : Paramagnetic NMR
   Boris Wezisla          : Elementary symmetry handling
   Frank Wennmohs         : Technical directorship


 We gratefully acknowledge several colleagues who have allowed us to
 interface, adapt or use parts of their codes:
   Stefan Grimme, W. Hujo, H. Kruse, P. Pracht,  : VdW corrections, initial TS optimization,
                  C. Bannwarth, S. Ehlert          DFT functionals, gCP, sTDA/sTD-DF
   Ed Valeev, F. Pavosevic, A. Kumar             : LibInt (2-el integral package), F12 methods
   Garnet Chan, S. Sharma, J. Yang, R. Olivares  : DMRG
   Ulf Ekstrom                                   : XCFun DFT Library
   Mihaly Kallay                                 : mrcc  (arbitrary order and MRCC methods)
   Jiri Pittner, Ondrej Demel                    : Mk-CCSD
   Frank Weinhold                                : gennbo (NPA and NBO analysis)
   Christopher J. Cramer and Donald G. Truhlar   : smd solvation model
   Lars Goerigk                                  : TD-DFT with DH, B97 family of functionals
   V. Asgeirsson, H. Jonsson                     : NEB implementation
   FAccTs GmbH                                   : IRC, NEB, NEB-TS, DLPNO-Multilevel, CI-OPT
                                                   MM, QMMM, 2- and 3-layer-ONIOM, Crystal-QMMM,
                                                   LR-CPCM, SF, NACMEs, symmetry and pop. for TD-DFT,
                                                   nearIR, NL-DFT gradient (VV10), updates on ESD,
                                                   ML-optimized integration grids
   S Lehtola, MJT Oliveira, MAL Marques          : LibXC Library
   Liviu Ungur et al                             : ANISO software


 Your calculation uses the libint2 library for the computation of 2-el integrals
 For citations please refer to: http://libint.valeyev.net

 Your ORCA version has been built with support for libXC version: 5.1.0
 For citations please refer to: https://tddft.org/programs/libxc/

 This ORCA versions uses:
   CBLAS   interface :  Fast vector & matrix operations
   LAPACKE interface :  Fast linear algebra routines
   SCALAPACK package :  Parallel linear algebra routines
   Shared memory     :  Shared parallel matrices
   BLAS/LAPACK       :  OpenBLAS 0.3.15  USE64BITINT DYNAMIC_ARCH NO_AFFINITY Haswell SINGLE_THREADED
        Core in use  :  Haswell
   Copyright (c) 2011-2014, The OpenBLAS Project


Your calculation utilizes the SMD solvation module
Please cite in your paper:
A.V. Marenich, C.J. Cramer, D.G. Truhlar J. Phys. Chem. B, 113, (2009), 6378 

================================================================================

----- Orbital basis set information -----
Your calculation utilizes the basis: aug-cc-pVTZ 
    H, B-Ne : Obtained from the ccRepo (grant-hill.group.shef.ac.uk/ccrepo) Feb. 2017
              R. A. Kendall, T. H. Dunning, Jr., R. J. Harrison, J. Chem. Phys. 96, 6796 (1992)
         He : Obtained from the ccRepo (grant-hill.group.shef.ac.uk/ccrepo) Feb. 2017
              D. E. Woon, T. H. Dunning, Jr., J. Chem. Phys. 100, 2975 (1994)
  Li-Be, Na : Obtained from the ccRepo (grant-hill.group.shef.ac.uk/ccrepo) Feb. 2017
              B. P. Prascher, D. E. Woon, K. A. Peterson, T. H. Dunning, Jr., A. K. Wilson, Theor. Chem. Acc. 128, 69 (2011)
         Mg : Obtained from the Peterson Research Group Website (tyr0.chem.wsu.edu/~kipeters) Feb. 2017
              B. P. Prascher, D. E. Woon, K. A. Peterson, T. H. Dunning, Jr., A. K. Wilson, Theor. Chem. Acc. 128, 69 (2011)
      Al-Ar : Obtained from the ccRepo (grant-hill.group.shef.ac.uk/ccrepo) Feb. 2017
              D. E. Woon, T. H. Dunning, Jr., J. Chem. Phys. 98, 1358 (1993)
      Sc-Zn : Obtained from the ccRepo (grant-hill.group.shef.ac.uk/ccrepo) Feb. 2017
              N. B. Balabanov, K. A. Peterson, J. Chem. Phys. 123, 064107 (2005)
              N. B. Balabanov, K. A. Peterson, J. Chem. Phys. 125, 074110 (2006)
      Ga-Kr : Obtained from the ccRepo (grant-hill.group.shef.ac.uk/ccrepo) Feb. 2017
              A. K. Wilson, D. E. Woon, K. A. Peterson, T. H. Dunning, Jr., J. Chem. Phys. 110, 7667 (1999)
     Ag, Au : Obtained from the Peterson Research Group Website (tyr0.chem.wsu.edu/~kipeters) Feb. 2017
              K. A. Peterson, C. Puzzarini, Theor. Chem. Acc. 114, 283 (2005)

The basis set includes element-specific modifications.

Your calculation utilizes the basis: cc-pVTZ 
       H, B-Ne : Obtained from the ccRepo (grant-hill.group.shef.ac.uk/ccrepo) Feb. 2017
                 T. H. Dunning, Jr., J. Chem. Phys. 90, 1007 (1989)
            He : Obtained from the ccRepo (grant-hill.group.shef.ac.uk/ccrepo) Feb. 2017
                 D. E. Woon, T. H. Dunning, Jr., J. Chem. Phys. 100, 2975 (1994)
  Li-Be, Na-Mg : Obtained from the ccRepo (grant-hill.group.shef.ac.uk/ccrepo) Feb. 2017
                 B. P. Prascher, D. E. Woon, K. A. Peterson, T. H. Dunning, Jr., A. K. Wilson, Theor. Chem. Acc. 128, 69 (2011)
         Al-Ar : Obtained from the ccRepo (grant-hill.group.shef.ac.uk/ccrepo) Feb. 2017
                 D. E. Woon, T. H. Dunning, Jr., J. Chem. Phys. 98, 1358 (1993)
            Ca : Obtained from the Peterson Research Group Website (tyr0.chem.wsu.edu/~kipeters) Feb. 2017
                 J. Koput, K. A. Peterson, J. Phys. Chem. 106, 9595 (2002)
         Sc-Zn : Obtained from the ccRepo (grant-hill.group.shef.ac.uk/ccrepo) Feb. 2017
                 N. B. Balabanov, K. A. Peterson, J. Chem. Phys. 123, 064107 (2005)
                 N. B. Balabanov, K. A. Peterson, J. Chem. Phys. 125, 074110 (2006)
         Ga-Kr : Obtained from the ccRepo (grant-hill.group.shef.ac.uk/ccrepo) Feb. 2017
                 A. K. Wilson, D. E. Woon, K. A. Peterson, T. H. Dunning, Jr., J. Chem. Phys. 110, 7667 (1999)
             Y : Obtained from the ccRepo (grant-hill.group.shef.ac.uk/ccrepo) Feb. 2017
                 K. A. Peterson, D. Figgen, M. Dolg, H. Stoll, J. Chem. Phys. 126, 124101 (2007)
        Ag, Au : Obtained from the Peterson Research Group Website (tyr0.chem.wsu.edu/~kipeters) Feb. 2017
                 K. A. Peterson, C. Puzzarini, Theor. Chem. Acc. 114, 283 (2005)

----- AuxJ basis set information -----
Your calculation utilizes the auxiliary basis: aug-cc-pVTZ/JK 
  H, B-F, Al-Cl, Ga-Br : Obtained from the TURBOMOLE 7.0 basis set library

The basis set includes element-specific modifications.

Your calculation utilizes the auxiliary basis: cc-pVTZ/JK 
  H, B-F, Al-Cl, Ga-Br : Obtained from the TURBOMOLE 7.0 basis set library

----- AuxC basis set information -----
Your calculation utilizes the auxiliary basis: aug-cc-pVTZ/C 
  H-He, B-F, Al-Ar, Ga-Kr : Obtained from the EMSL Basis Set Exchange (bse.pnl.gov) Feb. 2017
                            F. Weigend, A. Kohn, C. Hattig, J. Chem. Phys. 116, 3175 (2002)
                   Be, Mg : Obtained from the TURBOMOLE 7.0 basis set library
                            C. Haettig, Phys. Chem. Chem. Phys. 7, 59 (2005)
                       Ne : Obtained from the EMSL Basis Set Exchange (bse.pnl.gov) Feb. 2017
                            C. Haettig, Phys. Chem. Chem. Phys. 7, 59 (2005)
                            F. Weigend, A. Kohn, C. Hattig, J. Chem. Phys. 116, 3175 (2002)
                    Sc-Zn : Obtained from the EMSL Basis Set Exchange (bse.pnl.gov) Feb. 2017
                            J. G. Hill, J. A. Platts, J. Chem. Phys. 128, 044104 (2008)

The basis set includes element-specific modifications.

Your calculation utilizes the auxiliary basis: cc-pVTZ/C 
  Obtained from the EMSL Basis Set Exchange (bse.pnl.gov) Feb. 2017
  H-He, B-F, Al-Ar, Ga-Kr : F. Weigend, A. Kohn, C. Hattig, J. Chem. Phys. 116, 3175 (2002)
             Li-Be, Na-Mg : C. Haettig, Phys. Chem. Chem. Phys. 7, 59 (2005)
                       Ne : C. Haettig, Phys. Chem. Chem. Phys. 7, 59 (2005)
                            F. Weigend, A. Kohn, C. Hattig, J. Chem. Phys. 116, 3175 (2002)
                    Sc-Zn : J. G. Hill, J. A. Platts, J. Chem. Phys. 128, 044104 (2008)

================================================================================
                                        WARNINGS
                       Please study these warnings very carefully!
================================================================================


WARNING: Geometry Optimization
  ===> : Switching off AutoStart
         For restart on a previous wavefunction, please use MOREAD

INFO   : the flag for use of the SHARK integral package has been found!



***************************************
The coordinates will be read from file: 
***************************************


Your calculation utilizes the SMD solvation module
Please cite in your paper:
A.V. Marenich, C.J. Cramer, D.G. Truhlar J. Phys. Chem. B, 113, (2009), 6378 

================================================================================

----- Orbital basis set information -----
Your calculation utilizes the basis: aug-cc-pVTZ 
    H, B-Ne : Obtained from the ccRepo (grant-hill.group.shef.ac.uk/ccrepo) Feb. 2017
              R. A. Kendall, T. H. Dunning, Jr., R. J. Harrison, J. Chem. Phys. 96, 6796 (1992)
         He : Obtained from the ccRepo (grant-hill.group.shef.ac.uk/ccrepo) Feb. 2017
              D. E. Woon, T. H. Dunning, Jr., J. Chem. Phys. 100, 2975 (1994)
  Li-Be, Na : Obtained from the ccRepo (grant-hill.group.shef.ac.uk/ccrepo) Feb. 2017
              B. P. Prascher, D. E. Woon, K. A. Peterson, T. H. Dunning, Jr., A. K. Wilson, Theor. Chem. Acc. 128, 69 (2011)
         Mg : Obtained from the Peterson Research Group Website (tyr0.chem.wsu.edu/~kipeters) Feb. 2017
              B. P. Prascher, D. E. Woon, K. A. Peterson, T. H. Dunning, Jr., A. K. Wilson, Theor. Chem. Acc. 128, 69 (2011)
      Al-Ar : Obtained from the ccRepo (grant-hill.group.shef.ac.uk/ccrepo) Feb. 2017
              D. E. Woon, T. H. Dunning, Jr., J. Chem. Phys. 98, 1358 (1993)
      Sc-Zn : Obtained from the ccRepo (grant-hill.group.shef.ac.uk/ccrepo) Feb. 2017
              N. B. Balabanov, K. A. Peterson, J. Chem. Phys. 123, 064107 (2005)
              N. B. Balabanov, K. A. Peterson, J. Chem. Phys. 125, 074110 (2006)
      Ga-Kr : Obtained from the ccRepo (grant-hill.group.shef.ac.uk/ccrepo) Feb. 2017
              A. K. Wilson, D. E. Woon, K. A. Peterson, T. H. Dunning, Jr., J. Chem. Phys. 110, 7667 (1999)
     Ag, Au : Obtained from the Peterson Research Group Website (tyr0.chem.wsu.edu/~kipeters) Feb. 2017
              K. A. Peterson, C. Puzzarini, Theor. Chem. Acc. 114, 283 (2005)

The basis set includes element-specific modifications.

Your calculation utilizes the basis: cc-pVTZ 
       H, B-Ne : Obtained from the ccRepo (grant-hill.group.shef.ac.uk/ccrepo) Feb. 2017
                 T. H. Dunning, Jr., J. Chem. Phys. 90, 1007 (1989)
            He : Obtained from the ccRepo (grant-hill.group.shef.ac.uk/ccrepo) Feb. 2017
                 D. E. Woon, T. H. Dunning, Jr., J. Chem. Phys. 100, 2975 (1994)
  Li-Be, Na-Mg : Obtained from the ccRepo (grant-hill.group.shef.ac.uk/ccrepo) Feb. 2017
                 B. P. Prascher, D. E. Woon, K. A. Peterson, T. H. Dunning, Jr., A. K. Wilson, Theor. Chem. Acc. 128, 69 (2011)
         Al-Ar : Obtained from the ccRepo (grant-hill.group.shef.ac.uk/ccrepo) Feb. 2017
                 D. E. Woon, T. H. Dunning, Jr., J. Chem. Phys. 98, 1358 (1993)
            Ca : Obtained from the Peterson Research Group Website (tyr0.chem.wsu.edu/~kipeters) Feb. 2017
                 J. Koput, K. A. Peterson, J. Phys. Chem. 106, 9595 (2002)
         Sc-Zn : Obtained from the ccRepo (grant-hill.group.shef.ac.uk/ccrepo) Feb. 2017
                 N. B. Balabanov, K. A. Peterson, J. Chem. Phys. 123, 064107 (2005)
                 N. B. Balabanov, K. A. Peterson, J. Chem. Phys. 125, 074110 (2006)
         Ga-Kr : Obtained from the ccRepo (grant-hill.group.shef.ac.uk/ccrepo) Feb. 2017
                 A. K. Wilson, D. E. Woon, K. A. Peterson, T. H. Dunning, Jr., J. Chem. Phys. 110, 7667 (1999)
             Y : Obtained from the ccRepo (grant-hill.group.shef.ac.uk/ccrepo) Feb. 2017
                 K. A. Peterson, D. Figgen, M. Dolg, H. Stoll, J. Chem. Phys. 126, 124101 (2007)
        Ag, Au : Obtained from the Peterson Research Group Website (tyr0.chem.wsu.edu/~kipeters) Feb. 2017
                 K. A. Peterson, C. Puzzarini, Theor. Chem. Acc. 114, 283 (2005)

----- AuxJ basis set information -----
Your calculation utilizes the auxiliary basis: aug-cc-pVTZ/JK 
  H, B-F, Al-Cl, Ga-Br : Obtained from the TURBOMOLE 7.0 basis set library

The basis set includes element-specific modifications.

Your calculation utilizes the auxiliary basis: cc-pVTZ/JK 
  H, B-F, Al-Cl, Ga-Br : Obtained from the TURBOMOLE 7.0 basis set library

----- AuxC basis set information -----
Your calculation utilizes the auxiliary basis: aug-cc-pVTZ/C 
  H-He, B-F, Al-Ar, Ga-Kr : Obtained from the EMSL Basis Set Exchange (bse.pnl.gov) Feb. 2017
                            F. Weigend, A. Kohn, C. Hattig, J. Chem. Phys. 116, 3175 (2002)
                   Be, Mg : Obtained from the TURBOMOLE 7.0 basis set library
                            C. Haettig, Phys. Chem. Chem. Phys. 7, 59 (2005)
                       Ne : Obtained from the EMSL Basis Set Exchange (bse.pnl.gov) Feb. 2017
                            C. Haettig, Phys. Chem. Chem. Phys. 7, 59 (2005)
                            F. Weigend, A. Kohn, C. Hattig, J. Chem. Phys. 116, 3175 (2002)
                    Sc-Zn : Obtained from the EMSL Basis Set Exchange (bse.pnl.gov) Feb. 2017
                            J. G. Hill, J. A. Platts, J. Chem. Phys. 128, 044104 (2008)

The basis set includes element-specific modifications.

Your calculation utilizes the auxiliary basis: cc-pVTZ/C 
  Obtained from the EMSL Basis Set Exchange (bse.pnl.gov) Feb. 2017
  H-He, B-F, Al-Ar, Ga-Kr : F. Weigend, A. Kohn, C. Hattig, J. Chem. Phys. 116, 3175 (2002)
             Li-Be, Na-Mg : C. Haettig, Phys. Chem. Chem. Phys. 7, 59 (2005)
                       Ne : C. Haettig, Phys. Chem. Chem. Phys. 7, 59 (2005)
                            F. Weigend, A. Kohn, C. Hattig, J. Chem. Phys. 116, 3175 (2002)
                    Sc-Zn : J. G. Hill, J. A. Platts, J. Chem. Phys. 128, 044104 (2008)

================================================================================
                                        WARNINGS
                       Please study these warnings very carefully!
================================================================================

INFO   : Checking CIS options ...

INFO   : the flag for use of the SHARK integral package has been found!

================================================================================
                                       INPUT FILE
================================================================================
NAME = x3lyp-train-7.inp
|  1> ! x3lyp aug-cc-PVTZ RIJCOSX Opt
|  2> %maxcore 4000
|  3> %basis
|  4>  AuxJ "aug-cc-PVTZ/JK"
|  5>  AuxC "aug-cc-PVTZ/C"
|  6>  newGTO H "cc-PVTZ" end
|  7>  newAuxJGTO H "cc-PVTZ/JK" end
|  8>  newAuxCGTO H "cc-PVTZ/C" end
|  9> end
| 10> %cpcm
| 11>  SMD true
| 12>  SMDsolvent "cyclohexane"
| 13> end
| 14> %pal nprocs 4 end
| 15> * xyz 0 1
| 16> C          4.01170        0.00820        0.34860
| 17> C          2.89560        0.69840        0.14290
| 18> C          1.53670        0.17630        0.10890
| 19> C          1.22560       -1.15920        0.32570
| 20> C         -0.08660       -1.60060        0.28110
| 21> C         -1.12440       -0.72160        0.01880
| 22> O         -2.44290       -1.05420       -0.04620
| 23> C         -2.80490       -2.39380        0.17280
| 24> C         -0.82610        0.64180       -0.20400
| 25> O         -1.90170        1.44160       -0.45490
| 26> C         -1.67710        2.80980       -0.67860
| 27> C          0.48660        1.06530       -0.15530
| 28> H          4.97400        0.49070        0.35540
| 29> H          4.01730       -1.05460        0.51790
| 30> H          2.96990        1.76700       -0.02210
| 31> H          2.00590       -1.87320        0.53430
| 32> H         -0.28990       -2.64540        0.45520
| 33> H         -3.88920       -2.42410        0.07670
| 34> H         -2.52200       -2.73030        1.17610
| 35> H         -2.35790       -3.06090       -0.57230
| 36> H         -2.66080        3.24430       -0.85090
| 37> H         -1.04920        2.97840       -1.56040
| 38> H         -1.21720        3.29190        0.19110
| 39> H          0.72640        2.10400       -0.32380
| 40> *
| 41> 
| 42> 
| 43> $new_job
| 44> ! x3lyp aug-cc-PVTZ RIJCOSX SP
| 45> %maxcore 4000
| 46> %basis
| 47>  AuxJ "aug-cc-PVTZ/JK"
| 48>  AuxC "aug-cc-PVTZ/C"
| 49>  newGTO H "cc-PVTZ" end
| 50>  newAuxJGTO H "cc-PVTZ/JK" end
| 51>  newAuxCGTO H "cc-PVTZ/C" end
| 52> end
| 53> %cpcm
| 54>  SMD true
| 55>  SMDsolvent "cyclohexane"
| 56> end
| 57> %pal nprocs 4 end
| 58> %tddft
| 59>  nroots 10
| 60>  maxdim 7
| 61> end
| 62> * xyzfile 0 1
| 63> 
| 64>                          ****END OF INPUT****
================================================================================


                 $$$$$$$$$$$$$$$$$$$$$$$$$$$$$$$$$$$$$$$$$$$$$$ 
                 $ THERE ARE  2 JOBS TO BE PROCESSED THIS RUN $
                 $$$$$$$$$$$$$$$$$$$$$$$$$$$$$$$$$$$$$$$$$$$$$$ 




                 $$$$$$$$$$$$$$$$  JOB NUMBER  1 $$$$$$$$$$$$$$


                       *****************************
                       * Geometry Optimization Run *
                       *****************************

Geometry optimization settings:
Update method            Update   .... BFGS
Choice of coordinates    CoordSys .... Z-matrix Internals
Initial Hessian          InHess   .... Almoef's Model

Convergence Tolerances:
Energy Change            TolE     ....  5.0000e-06 Eh
Max. Gradient            TolMAXG  ....  3.0000e-04 Eh/bohr
RMS Gradient             TolRMSG  ....  1.0000e-04 Eh/bohr
Max. Displacement        TolMAXD  ....  4.0000e-03 bohr
RMS Displacement         TolRMSD  ....  2.0000e-03 bohr
Strict Convergence                ....  False
------------------------------------------------------------------------------
                        ORCA OPTIMIZATION COORDINATE SETUP
------------------------------------------------------------------------------

The optimization will be done in new redundant internal coordinates
Making redundant internal coordinates   ...  (new redundants) done
Evaluating the initial hessian          ...  (Almloef) done
Evaluating the coordinates              ...  done
Calculating the B-matrix                .... done
Calculating the G-matrix                .... done
Diagonalizing the G-matrix              .... done
Small eigenvalue found = 1.125e-02
Small eigenvalue found = 1.336e-02
The first mode is                       ....   38
The number of degrees of freedom        ....   66

    -----------------------------------------------------------------
                    Redundant Internal Coordinates


    -----------------------------------------------------------------
         Definition                    Initial Value    Approx d2E/dq
    -----------------------------------------------------------------
      1. B(C   1,C   0)                  1.3283         0.783763   
      2. B(C   2,C   1)                  1.4561         0.490017   
      3. B(C   3,C   2)                  1.3883         0.628737   
      4. B(C   4,C   3)                  1.3852         0.635985   
      5. B(C   5,C   4)                  1.3851         0.636171   
      6. B(O   6,C   5)                  1.3614         0.621692   
      7. B(C   7,O   6)                  1.4048         0.529936   
      8. B(C   8,C   5)                  1.4133         0.573493   
      9. B(O   9,C   8)                  1.3637         0.616471   
     10. B(C  10,O   9)                  1.4044         0.530681   
     11. B(C  11,C   8)                  1.3802         0.647740   
     12. B(C  11,C   2)                  1.4010         0.600027   
     13. B(H  12,C   0)                  1.0765         0.378395   
     14. B(H  13,C   0)                  1.0762         0.378806   
     15. B(H  14,C   1)                  1.0838         0.368378   
     16. B(H  15,C   3)                  1.0780         0.376269   
     17. B(H  16,C   4)                  1.0785         0.375584   
     18. B(H  17,C   7)                  1.0890         0.361463   
     19. B(H  18,C   7)                  1.0954         0.353042   
     20. B(H  19,C   7)                  1.0954         0.352965   
     21. B(H  20,C  10)                  1.0891         0.361290   
     22. B(H  21,C  10)                  1.0956         0.352817   
     23. B(H  22,C  10)                  1.0956         0.352787   
     24. B(H  23,C  11)                  1.0793         0.374597   
     25. A(C   1,C   0,H  12)          121.2779         0.370427   
     26. A(H  12,C   0,H  13)          115.9111         0.295469   
     27. A(C   1,C   0,H  13)          122.8110         0.370496   
     28. A(C   0,C   1,C   2)          126.9735         0.433996   
     29. A(C   0,C   1,H  14)          118.5740         0.368723   
     30. A(C   2,C   1,H  14)          114.4525         0.340513   
     31. A(C   3,C   2,C  11)          118.1578         0.432605   
     32. A(C   1,C   2,C   3)          123.3940         0.417209   
     33. A(C   1,C   2,C  11)          118.4482         0.413755   
     34. A(C   4,C   3,H  15)          118.7415         0.357086   
     35. A(C   2,C   3,H  15)          120.3411         0.356391   
     36. A(C   2,C   3,C   4)          120.9173         0.437161   
     37. A(C   5,C   4,H  16)          120.2716         0.356993   
     38. A(C   3,C   4,H  16)          118.8201         0.356975   
     39. A(C   3,C   4,C   5)          120.9083         0.438088   
     40. A(C   4,C   5,C   8)          118.9411         0.430011   
     41. A(C   4,C   5,O   6)          125.4276         0.433439   
     42. A(O   6,C   5,C   8)          115.6312         0.425447   
     43. A(C   5,O   6,C   7)          118.3659         0.416766   
     44. A(H  18,C   7,H  19)          109.3013         0.289029   
     45. A(O   6,C   7,H  19)          111.6859         0.340460   
     46. A(O   6,C   7,H  18)          111.6644         0.340473   
     47. A(O   6,C   7,H  17)          105.6258         0.341818   
     48. A(H  17,C   7,H  18)          109.2347         0.290109   
     49. A(H  17,C   7,H  19)          109.2283         0.290099   
     50. A(O   9,C   8,C  11)          125.2204         0.434188   
     51. A(C   5,C   8,C  11)          119.4185         0.431405   
     52. A(C   5,C   8,O   9)          115.3611         0.424806   
     53. A(C   8,O   9,C  10)          118.3297         0.416245   
     54. A(O   9,C  10,H  20)          105.6293         0.341871   
     55. A(H  21,C  10,H  22)          109.3070         0.288977   
     56. A(H  20,C  10,H  22)          109.2191         0.290054   
     57. A(O   9,C  10,H  22)          111.6770         0.340512   
     58. A(H  20,C  10,H  21)          109.2040         0.290058   
     59. A(O   9,C  10,H  21)          111.7021         0.340516   
     60. A(C   2,C  11,C   8)          121.6569         0.434928   
     61. A(C   8,C  11,H  23)          120.0748         0.357928   
     62. A(C   2,C  11,H  23)          118.2683         0.353311   
     63. D(H  14,C   1,C   0,H  12)      0.1357         0.044197   
     64. D(H  14,C   1,C   0,H  13)   -179.9019         0.044197   
     65. D(C   2,C   1,C   0,H  12)   -179.9608         0.044197   
     66. D(C   2,C   1,C   0,H  13)      0.0016         0.044197   
     67. D(C   3,C   2,C   1,H  14)   -178.5652         0.016350   
     68. D(C   3,C   2,C   1,C   0)      1.5279         0.016350   
     69. D(C  11,C   2,C   1,C   0)   -178.5078         0.016350   
     70. D(C  11,C   2,C   1,H  14)      1.3991         0.016350   
     71. D(H  15,C   3,C   2,C  11)   -179.8539         0.027402   
     72. D(C   4,C   3,C   2,C   1)   -179.9916         0.027402   
     73. D(H  15,C   3,C   2,C   1)      0.1106         0.027402   
     74. D(C   4,C   3,C   2,C  11)      0.0440         0.027402   
     75. D(H  16,C   4,C   3,C   2)   -179.9621         0.028079   
     76. D(C   5,C   4,C   3,H  15)    179.9071         0.028079   
     77. D(C   5,C   4,C   3,C   2)      0.0076         0.028079   
     78. D(H  16,C   4,C   3,H  15)     -0.0627         0.028079   
     79. D(C   8,C   5,C   4,H  16)    179.9443         0.028097   
     80. D(C   8,C   5,C   4,C   3)     -0.0250         0.028097   
     81. D(O   6,C   5,C   4,H  16)     -0.0146         0.028097   
     82. D(O   6,C   5,C   4,C   3)   -179.9839         0.028097   
     83. D(C   7,O   6,C   5,C   8)   -179.6963         0.028368   
     84. D(C   7,O   6,C   5,C   4)      0.2638         0.028368   
     85. D(H  19,C   7,O   6,C   5)    -61.5513         0.022301   
     86. D(H  18,C   7,O   6,C   5)     61.1808         0.022301   
     87. D(H  17,C   7,O   6,C   5)    179.8128         0.022301   
     88. D(C  11,C   8,C   5,O   6)    179.9526         0.022573   
     89. D(C  11,C   8,C   5,C   4)     -0.0103         0.022573   
     90. D(O   9,C   8,C   5,O   6)     -0.0175         0.022573   
     91. D(O   9,C   8,C   5,C   4)   -179.9803         0.022573   
     92. D(C  10,O   9,C   8,C  11)     -0.2888         0.027859   
     93. D(C  10,O   9,C   8,C   5)    179.6792         0.027859   
     94. D(H  22,C  10,O   9,C   8)    -61.1768         0.022367   
     95. D(H  21,C  10,O   9,C   8)     61.5837         0.022367   
     96. D(H  20,C  10,O   9,C   8)   -179.7990         0.022367   
     97. D(H  23,C  11,C   8,O   9)     -0.0315         0.029199   
     98. D(H  23,C  11,C   8,C   5)   -179.9984         0.029199   
     99. D(C   2,C  11,C   8,O   9)   -179.9693         0.029199   
    100. D(C   2,C  11,C   8,C   5)      0.0638         0.029199   
    101. D(H  23,C  11,C   2,C   3)    179.9808         0.024820   
    102. D(H  23,C  11,C   2,C   1)      0.0146         0.024820   
    103. D(C   8,C  11,C   2,C   3)     -0.0802         0.024820   
    104. D(C   8,C  11,C   2,C   1)    179.9536         0.024820   
    -----------------------------------------------------------------

Number of atoms                         .... 24
Number of degrees of freedom            .... 104

         *************************************************************
         *                GEOMETRY OPTIMIZATION CYCLE   1            *
         *************************************************************
---------------------------------
CARTESIAN COORDINATES (ANGSTROEM)
---------------------------------
  C      4.011700    0.008200    0.348600
  C      2.895600    0.698400    0.142900
  C      1.536700    0.176300    0.108900
  C      1.225600   -1.159200    0.325700
  C     -0.086600   -1.600600    0.281100
  C     -1.124400   -0.721600    0.018800
  O     -2.442900   -1.054200   -0.046200
  C     -2.804900   -2.393800    0.172800
  C     -0.826100    0.641800   -0.204000
  O     -1.901700    1.441600   -0.454900
  C     -1.677100    2.809800   -0.678600
  C      0.486600    1.065300   -0.155300
  H      4.974000    0.490700    0.355400
  H      4.017300   -1.054600    0.517900
  H      2.969900    1.767000   -0.022100
  H      2.005900   -1.873200    0.534300
  H     -0.289900   -2.645400    0.455200
  H     -3.889200   -2.424100    0.076700
  H     -2.522000   -2.730300    1.176100
  H     -2.357900   -3.060900   -0.572300
  H     -2.660800    3.244300   -0.850900
  H     -1.049200    2.978400   -1.560400
  H     -1.217200    3.291900    0.191100
  H      0.726400    2.104000   -0.323800

----------------------------
CARTESIAN COORDINATES (A.U.)
----------------------------
  NO LB      ZA    FRAG     MASS         X           Y           Z
   0 C     6.0000    0    12.011    7.581014    0.015496    0.658759
   1 C     6.0000    0    12.011    5.471891    1.319785    0.270042
   2 C     6.0000    0    12.011    2.903942    0.333159    0.205791
   3 C     6.0000    0    12.011    2.316048   -2.190571    0.615484
   4 C     6.0000    0    12.011   -0.163650   -3.024696    0.531202
   5 C     6.0000    0    12.011   -2.124808   -1.363626    0.035527
   6 O     8.0000    0    15.999   -4.616412   -1.992149   -0.087305
   7 C     6.0000    0    12.011   -5.300493   -4.523626    0.326545
   8 C     6.0000    0    12.011   -1.561103    1.212826   -0.385504
   9 O     8.0000    0    15.999   -3.593692    2.724229   -0.859636
  10 C     6.0000    0    12.011   -3.169260    5.309752   -1.282368
  11 C     6.0000    0    12.011    0.919541    2.013125   -0.293474
  12 H     1.0000    0     1.008    9.399498    0.927289    0.671609
  13 H     1.0000    0     1.008    7.591597   -1.992905    0.978689
  14 H     1.0000    0     1.008    5.612298    3.339146   -0.041763
  15 H     1.0000    0     1.008    3.790602   -3.539835    1.009681
  16 H     1.0000    0     1.008   -0.547832   -4.999082    0.860203
  17 H     1.0000    0     1.008   -7.349523   -4.580885    0.144942
  18 H     1.0000    0     1.008   -4.765889   -5.159519    2.222507
  19 H     1.0000    0     1.008   -4.455785   -5.784263   -1.081490
  20 H     1.0000    0     1.008   -5.028183    6.130838   -1.607968
  21 H     1.0000    0     1.008   -1.982701    5.628360   -2.948729
  22 H     1.0000    0     1.008   -2.300175    6.220789    0.361127
  23 H     1.0000    0     1.008    1.372697    3.975984   -0.611893

--------------------------------
INTERNAL COORDINATES (ANGSTROEM)
--------------------------------
 C      0   0   0     0.000000000000     0.00000000     0.00000000
 C      1   0   0     1.328295050055     0.00000000     0.00000000
 C      2   1   0     1.456143406399   126.97349254     0.00000000
 C      3   2   1     1.388288766792   123.39403046     1.52786448
 C      4   3   2     1.385168567359   120.91732298   180.00837693
 C      5   4   3     1.385088852746   120.90829656     0.00000000
 O      6   5   4     1.361355945372   125.42764356   180.01611483
 C      7   6   5     1.404824957068   118.36586053     0.26378068
 C      6   5   4     1.413323137149   118.94113911   359.97503537
 O      9   6   5     1.363651792064   115.36110612   180.01967677
 C     10   9   6     1.404442270084   118.32967745   179.67923443
 C      9   6   5     1.380183042209   119.41851716     0.00000000
 H      1   2   3     1.076509999954   121.27786915   180.03919548
 H      1   2   3     1.076214518579   122.81103274     0.00000000
 H      2   1   3     1.083813383383   118.57397126   180.09646392
 H      4   3   2     1.078043621566   120.34106847     0.11055351
 H      5   4   3     1.078540096612   118.82011102   180.03787671
 H      8   7   6     1.088971895872   105.62578376   179.81284788
 H      8   7   6     1.095388310144   111.66439242    61.18081332
 H      8   7   6     1.095447588888   111.68591558   298.44870372
 H     11  10   9     1.089102029197   105.62927784   180.20103317
 H     11  10   9     1.095561778267   111.70206252    61.58365478
 H     11  10   9     1.095585008112   111.67702769   298.82320303
 H     12   9   6     1.079256216104   120.07479644   180.00162908

---------------------------
INTERNAL COORDINATES (A.U.)
---------------------------
 C      0   0   0     0.000000000000     0.00000000     0.00000000
 C      1   0   0     2.510113869647     0.00000000     0.00000000
 C      2   1   0     2.751712249810   126.97349254     0.00000000
 C      3   2   1     2.623485564036   123.39403046     1.52786448
 C      4   3   2     2.617589241625   120.91732298   180.00837693
 C      5   4   3     2.617438602836   120.90829656     0.00000000
 O      6   5   4     2.572589907539   125.42764356   180.01611483
 C      7   6   5     2.654734434955   118.36586053     0.26378068
 C      6   5   4     2.670793667946   118.94113911   359.97503537
 O      9   6   5     2.576928429032   115.36110612   180.01967677
 C     10   9   6     2.654011261362   118.32967745   179.67923443
 C      9   6   5     2.608167964456   119.41851716     0.00000000
 H      1   2   3     2.034309080340   121.27786915   180.03919548
 H      1   2   3     2.033750701464   122.81103274     0.00000000
 H      2   1   3     2.048110474872   118.57397126   180.09646392
 H      4   3   2     2.037207205181   120.34106847     0.11055351
 H      5   4   3     2.038145407050   118.82011102   180.03787671
 H      8   7   6     2.057858650736   105.62578376   179.81284788
 H      8   7   6     2.069983916471   111.66439242    61.18081332
 H      8   7   6     2.070095937062   111.68591558   298.44870372
 H     11  10   9     2.058104567079   105.62927784   180.20103317
 H     11  10   9     2.070311723717   111.70206252    61.58365478
 H     11  10   9     2.070355621762   111.67702769   298.82320303
 H     12   9   6     2.039498676769   120.07479644   180.00162908

---------------------
BASIS SET INFORMATION
---------------------
There are 3 groups of distinct atoms

 Group   1 Type C   : 19s6p3d2f contracted to 5s4p3d2f pattern {88111/3111/111/11}
 Group   2 Type O   : 19s6p3d2f contracted to 5s4p3d2f pattern {88111/3111/111/11}
 Group   3 Type H   : 5s2p1d contracted to 3s2p1d pattern {311/11/1}

Atom   0C    basis set group =>   1
Atom   1C    basis set group =>   1
Atom   2C    basis set group =>   1
Atom   3C    basis set group =>   1
Atom   4C    basis set group =>   1
Atom   5C    basis set group =>   1
Atom   6O    basis set group =>   2
Atom   7C    basis set group =>   1
Atom   8C    basis set group =>   1
Atom   9O    basis set group =>   2
Atom  10C    basis set group =>   1
Atom  11C    basis set group =>   1
Atom  12H    basis set group =>   3
Atom  13H    basis set group =>   3
Atom  14H    basis set group =>   3
Atom  15H    basis set group =>   3
Atom  16H    basis set group =>   3
Atom  17H    basis set group =>   3
Atom  18H    basis set group =>   3
Atom  19H    basis set group =>   3
Atom  20H    basis set group =>   3
Atom  21H    basis set group =>   3
Atom  22H    basis set group =>   3
Atom  23H    basis set group =>   3
---------------------------------
AUXILIARY/J BASIS SET INFORMATION
---------------------------------
There are 3 groups of distinct atoms

 Group   1 Type C   : 10s7p5d2f1g contracted to 10s7p5d2f1g pattern {1111111111/1111111/11111/11/1}
 Group   2 Type O   : 10s7p5d2f1g contracted to 10s7p5d2f1g pattern {1111111111/1111111/11111/11/1}
 Group   3 Type H   : 4s3p2d1f contracted to 4s3p2d1f pattern {1111/111/11/1}

Atom   0C    basis set group =>   1
Atom   1C    basis set group =>   1
Atom   2C    basis set group =>   1
Atom   3C    basis set group =>   1
Atom   4C    basis set group =>   1
Atom   5C    basis set group =>   1
Atom   6O    basis set group =>   2
Atom   7C    basis set group =>   1
Atom   8C    basis set group =>   1
Atom   9O    basis set group =>   2
Atom  10C    basis set group =>   1
Atom  11C    basis set group =>   1
Atom  12H    basis set group =>   3
Atom  13H    basis set group =>   3
Atom  14H    basis set group =>   3
Atom  15H    basis set group =>   3
Atom  16H    basis set group =>   3
Atom  17H    basis set group =>   3
Atom  18H    basis set group =>   3
Atom  19H    basis set group =>   3
Atom  20H    basis set group =>   3
Atom  21H    basis set group =>   3
Atom  22H    basis set group =>   3
Atom  23H    basis set group =>   3
---------------------------------
AUXILIARY/C BASIS SET INFORMATION
---------------------------------
There are 3 groups of distinct atoms

 Group   1 Type C   : 9s7p6d4f2g contracted to 9s7p6d4f2g pattern {111111111/1111111/111111/1111/11}
 Group   2 Type O   : 9s7p6d4f2g contracted to 9s7p6d4f2g pattern {111111111/1111111/111111/1111/11}
 Group   3 Type H   : 4s3p2d1f contracted to 4s3p2d1f pattern {1111/111/11/1}

Atom   0C    basis set group =>   1
Atom   1C    basis set group =>   1
Atom   2C    basis set group =>   1
Atom   3C    basis set group =>   1
Atom   4C    basis set group =>   1
Atom   5C    basis set group =>   1
Atom   6O    basis set group =>   2
Atom   7C    basis set group =>   1
Atom   8C    basis set group =>   1
Atom   9O    basis set group =>   2
Atom  10C    basis set group =>   1
Atom  11C    basis set group =>   1
Atom  12H    basis set group =>   3
Atom  13H    basis set group =>   3
Atom  14H    basis set group =>   3
Atom  15H    basis set group =>   3
Atom  16H    basis set group =>   3
Atom  17H    basis set group =>   3
Atom  18H    basis set group =>   3
Atom  19H    basis set group =>   3
Atom  20H    basis set group =>   3
Atom  21H    basis set group =>   3
Atom  22H    basis set group =>   3
Atom  23H    basis set group =>   3


           ************************************************************
           *        Program running with 4 parallel MPI-processes     *
           *              working on a common directory               *
           ************************************************************
------------------------------------------------------------------------------
                           ORCA GTO INTEGRAL CALCULATION
                           -- RI-GTO INTEGRALS CHOSEN --
------------------------------------------------------------------------------
------------------------------------------------------------------------------
                   ___                                                        
                  /   \      - P O W E R E D   B Y -                         
                 /     \                                                     
                 |  |  |   _    _      __       _____    __    __             
                 |  |  |  | |  | |    /  \     |  _  \  |  |  /  |          
                  \  \/   | |  | |   /    \    | | | |  |  | /  /          
                 / \  \   | |__| |  /  /\  \   | |_| |  |  |/  /          
                |  |  |   |  __  | /  /__\  \  |    /   |      \           
                |  |  |   | |  | | |   __   |  |    \   |  |\   \          
                \     /   | |  | | |  |  |  |  | |\  \  |  | \   \       
                 \___/    |_|  |_| |__|  |__|  |_| \__\ |__|  \__/        
                                                                              
                      - O R C A' S   B I G   F R I E N D -                    
                                      &                                       
                       - I N T E G R A L  F E E D E R -                       
                                                                              
 v1 FN, 2020, v2 2021                                                         
------------------------------------------------------------------------------


Reading SHARK input file x3lyp-train-7.SHARKINP.tmp ... ok
----------------------
SHARK INTEGRAL PACKAGE
----------------------

Number of atoms                             ...     24
Number of basis functions                   ...    792
Number of shells                            ...    312
Maximum angular momentum                    ...      3
Integral batch strategy                     ... SHARK/LIBINT Hybrid
RI-J (if used) integral strategy            ... SPLIT-RIJ (Revised 2003 algorithm where possible)
Printlevel                                  ...      1
Contraction scheme used                     ... PARTIAL GENERAL contraction
Coulomb Range Separation                    ... NOT USED
Exchange Range Separation                   ... NOT USED
Finite Nucleus Model                        ... NOT USED
Auxiliary Coulomb fitting basis             ... AVAILABLE
   # of basis functions in Aux-J            ...   1308
   # of shells in Aux-J                     ...    420
   Maximum angular momentum in Aux-J        ...      4
Auxiliary J/K fitting basis                 ... NOT available
Auxiliary Correlation fitting basis         ... AVAILABLE
   # of basis functions in Aux-C            ...   1632
   # of shells in Aux-C                     ...    456
   Maximum angular momentum in Aux-C        ...      4
Auxiliary 'external' fitting basis          ... NOT available
Integral threshold                          ...     2.500000e-11
Primitive cut-off                           ...     2.500000e-12
Primitive pair pre-selection threshold      ...     2.500000e-12

Calculating pre-screening integrals         ... done (  0.1 sec) Dimension = 312
Calculating pre-screening integrals (ORCA)  ... done (  0.3 sec) Dimension = 240
Organizing shell pair data                  ... done (  0.5 sec)
Shell pair information
Total number of shell pairs                 ...     48828
Shell pairs after pre-screening             ...     36287
Total number of primitive shell pairs       ...     65052
Primitive shell pairs kept                  ...     43818
          la=0 lb=0:   8646 shell pairs
          la=1 lb=0:   9236 shell pairs
          la=1 lb=1:   2254 shell pairs
          la=2 lb=0:   6058 shell pairs
          la=2 lb=1:   2915 shell pairs
          la=2 lb=2:    995 shell pairs
          la=3 lb=0:   3316 shell pairs
          la=3 lb=1:   1558 shell pairs
          la=3 lb=2:   1023 shell pairs
          la=3 lb=3:    286 shell pairs

Calculating one electron integrals          ... done (  0.1 sec)
Calculating RI/J V-Matrix + Cholesky decomp.... done (  0.3 sec)
Calculating RI/C V-Matrix + Cholesky decomp.... done (  0.2 sec)
Calculating Nuclear repulsion               ... done (  0.0 sec) ENN=    678.477881099406 Eh

SHARK setup successfully completed in   3.5 seconds

Maximum memory used throughout the entire GTOINT-calculation: 55.2 MB


           ************************************************************
           *        Program running with 4 parallel MPI-processes     *
           *              working on a common directory               *
           ************************************************************
-------------------------------------------------------------------------------
                                 ORCA SCF
-------------------------------------------------------------------------------

------------
SCF SETTINGS
------------
Hamiltonian:
 Density Functional     Method          .... DFT(GTOs)
 Exchange Functional    Exchange        .... X
 Correlation Functional Correlation     .... LYP
 LDA part of GGA corr.  LDAOpt          .... VWN-5
 Gradients option       PostSCFGGA      .... off
 Hybrid DFT is turned on
   Fraction HF Exchange ScalHFX         ....  0.218000
   Scaling of DF-GGA-X  ScalDFX         ....  0.709000
   Scaling of DF-GGA-C  ScalDFC         ....  0.871000
   Scaling of DF-LDA-C  ScalLDAC        ....  1.000000
   Perturbative correction              ....  0.000000
   Density functional embedding theory  .... OFF
 RI-approximation to the Coulomb term is turned on
   Number of AuxJ basis functions       .... 1308
   RIJ-COSX (HFX calculated with COS-X)).... on


General Settings:
 Integral files         IntName         .... x3lyp-train-7
 Hartree-Fock type      HFTyp           .... RHF
 Total Charge           Charge          ....    0
 Multiplicity           Mult            ....    1
 Number of Electrons    NEL             ....   88
 Basis Dimension        Dim             ....  720
 Nuclear Repulsion      ENuc            ....    678.4778810994 Eh

Convergence Acceleration:
 DIIS                   CNVDIIS         .... on
   Start iteration      DIISMaxIt       ....    12
   Startup error        DIISStart       ....  0.200000
   # of expansion vecs  DIISMaxEq       ....     5
   Bias factor          DIISBfac        ....   1.050
   Max. coefficient     DIISMaxC        ....  10.000
 Trust-Rad. Augm. Hess. CNVTRAH         .... auto
   Auto Start mean grad. ratio tolernc. ....  1.125000
   Auto Start start iteration           ....    20
   Auto Start num. interpolation iter.  ....    10
   Max. Number of Micro iterations      ....    16
   Max. Number of Macro iterations      .... Maxiter - #DIIS iter
   Number of Davidson start vectors     ....     2
   Converg. threshold I  (grad. norm)   ....   1.000e-05
   Converg. threshold II (energy diff.) ....   1.000e-08
   Grad. Scal. Fac. for Micro threshold ....   0.100
   Minimum threshold for Micro iter.    ....   0.010
   NR start threshold (gradient norm)   ....   0.001
   Initial trust radius                 ....   0.400
   Minimum AH scaling param. (alpha)    ....   1.000
   Maximum AH scaling param. (alpha)    .... 1000.000
   Orbital update algorithm             .... Taylor
   White noise on init. David. guess    .... on
   Maximum white noise                  ....   0.010
   Quad. conv. algorithm                .... NR
 SOSCF                  CNVSOSCF        .... on
   Start iteration      SOSCFMaxIt      ....   150
   Startup grad/error   SOSCFStart      ....  0.003300
 Level Shifting         CNVShift        .... on
   Level shift para.    LevelShift      ....    0.2500
   Turn off err/grad.   ShiftErr        ....    0.0010
 Zerner damping         CNVZerner       .... off
 Static damping         CNVDamp         .... on
   Fraction old density DampFac         ....    0.7000
   Max. Damping (<1)    DampMax         ....    0.9800
   Min. Damping (>=0)   DampMin         ....    0.0000
   Turn off err/grad.   DampErr         ....    0.1000
 Fernandez-Rico         CNVRico         .... off

SCF Procedure:
 Maximum # iterations   MaxIter         ....   125
 SCF integral mode      SCFMode         .... Direct
   Integral package                     .... SHARK and LIBINT hybrid scheme
 Reset frequency        DirectResetFreq ....    20
 Integral Threshold     Thresh          ....  2.500e-11 Eh
 Primitive CutOff       TCut            ....  2.500e-12 Eh

Convergence Tolerance:
 Convergence Check Mode ConvCheckMode   .... Total+1el-Energy
 Convergence forced     ConvForced      .... 0
 Energy Change          TolE            ....  1.000e-08 Eh
 1-El. energy change                    ....  1.000e-05 Eh
 Orbital Gradient       TolG            ....  1.000e-05
 Orbital Rotation angle TolX            ....  1.000e-05
 DIIS Error             TolErr          ....  5.000e-07


Diagonalization of the overlap matrix:
Smallest eigenvalue                        ... 7.034e-07
Time for diagonalization                   ...    0.117 sec
Threshold for overlap eigenvalues          ... 1.000e-08
Number of eigenvalues below threshold      ... 0
Time for construction of square roots      ...    0.071 sec
Total time needed                          ...    0.192 sec

Time for model grid setup =    0.363 sec

------------------------------
INITIAL GUESS: MODEL POTENTIAL
------------------------------
Loading Hartree-Fock densities                     ... done
Calculating cut-offs                               ... done
Initializing the effective Hamiltonian             ... done
Setting up the integral package (SHARK)            ... done
Starting the Coulomb interaction                   ... done (   1.0 sec)
Reading the grid                                   ... done
Mapping shells                                     ... done
Starting the XC term evaluation                    ... done (   0.9 sec)
  promolecular density results
     # of electrons  =     87.996040858
     EX              =    -71.854797902
     EC              =     -2.966047392
     EX+EC           =    -74.820845294
Transforming the Hamiltonian                       ... done (   0.1 sec)
Diagonalizing the Hamiltonian                      ... done (   0.1 sec)
Back transforming the eigenvectors                 ... done (   0.0 sec)
Now organizing SCF variables                       ... done
                      ------------------
                      INITIAL GUESS DONE (   2.5 sec)
                      ------------------
-------------------
DFT GRID GENERATION
-------------------

General Integration Accuracy     IntAcc      ... 4.388
Radial Grid Type                 RadialGrid  ... OptM3 with GC (2021)
Angular Grid (max. ang.)         AngularGrid ... 4 (Lebedev-302)
Angular grid pruning method      GridPruning ... 4 (adaptive)
Weight generation scheme         WeightScheme... Becke
Basis function cutoff            BFCut       ... 1.0000e-11
Integration weight cutoff        WCut        ... 1.0000e-14
Angular grids for H and He will be reduced by one unit
Partially contracted basis set               ... off
Rotationally invariant grid construction     ... off

Total number of grid points                  ...   113677
Total number of batches                      ...     1790
Average number of points per batch           ...       63
Average number of grid points per atom       ...     4737
Time for grid setup =    1.191 sec

--------------------
COSX GRID GENERATION
--------------------

GRIDX 1
-------
General Integration Accuracy     IntAcc      ... 3.816
Radial Grid Type                 RadialGrid  ... OptM3 with GC (2021)
Angular Grid (max. ang.)         AngularGrid ... 1 (Lebedev-50)
Angular grid pruning method      GridPruning ... 4 (adaptive)
Weight generation scheme         WeightScheme... Becke
Basis function cutoff            BFCut       ... 1.0000e-11
Integration weight cutoff        WCut        ... 1.0000e-14
Angular grids for H and He will be reduced by one unit
Partially contracted basis set               ... on
Rotationally invariant grid construction     ... off

Total number of grid points                  ...    14556
Total number of batches                      ...      237
Average number of points per batch           ...       61
Average number of grid points per atom       ...      606
UseSFitting                                  ... on

GRIDX 2
-------
General Integration Accuracy     IntAcc      ... 4.020
Radial Grid Type                 RadialGrid  ... OptM3 with GC (2021)
Angular Grid (max. ang.)         AngularGrid ... 2 (Lebedev-110)
Angular grid pruning method      GridPruning ... 4 (adaptive)
Weight generation scheme         WeightScheme... Becke
Basis function cutoff            BFCut       ... 1.0000e-11
Integration weight cutoff        WCut        ... 1.0000e-14
Angular grids for H and He will be reduced by one unit
Partially contracted basis set               ... on
Rotationally invariant grid construction     ... off

Total number of grid points                  ...    33856
Total number of batches                      ...      543
Average number of points per batch           ...       62
Average number of grid points per atom       ...     1411
UseSFitting                                  ... on

GRIDX 3
-------
General Integration Accuracy     IntAcc      ... 4.338
Radial Grid Type                 RadialGrid  ... OptM3 with GC (2021)
Angular Grid (max. ang.)         AngularGrid ... 3 (Lebedev-194)
Angular grid pruning method      GridPruning ... 4 (adaptive)
Weight generation scheme         WeightScheme... Becke
Basis function cutoff            BFCut       ... 1.0000e-11
Integration weight cutoff        WCut        ... 1.0000e-14
Angular grids for H and He will be reduced by one unit
Partially contracted basis set               ... on
Rotationally invariant grid construction     ... off

Total number of grid points                  ...    73054
Total number of batches                      ...     1153
Average number of points per batch           ...       63
Average number of grid points per atom       ...     3044
UseSFitting                                  ... on

Time for X-Grid setup             =    2.262 sec


--------------------
CPCM SOLVATION MODEL
--------------------
CPCM parameters:
  Epsilon                                         ...       2.0165
  Refrac                                          ...       1.4266
  Rsolv                                           ...       1.3000
  Surface type                                    ... GAUSSIAN VDW
  Epsilon function type                           ...         CPCM
Solvent:                                     ... CYCLOHEXANE
SMD-CDS solvent descriptors:
  Soln                                       ...    1.4266
  Soln25                                     ...    1.4235
  Sola                                       ...    0.0000
  Solb                                       ...    0.0000
  Solg                                       ...   35.4800
  Solc                                       ...    0.0000
  Solh                                       ...    0.0000
Radii:
 Radius for C  used is    3.4960 Bohr (=   1.8500 Ang.)
 Radius for O  used is    4.3350 Bohr (=   2.2940 Ang.)
 Radius for H  used is    2.2677 Bohr (=   1.2000 Ang.)
Calculating surface                               ...        done! (  0.0s)
GEPOL surface points                              ...         1353
GEPOL Volume                                      ...    1335.3336
GEPOL Surface-area                                ...     750.0000
Calculating surface distance matrix               ...        done! (  0.0s)
Performing Cholesky decomposition & store         ...        done! (  0.1s)
Overall time for CPCM initialization              ...                 0.1s
 re-compute Schwartz prescreening matrix in partically contracted basis (1) ...done (   0.152 sec)
--------------
SCF ITERATIONS
--------------
ITER       Energy         Delta-E        Max-DP      RMS-DP      [F,P]     Damp
               ***  Starting incremental Fock matrix formation  ***
  0   -538.1165364669   0.000000000000 0.07551363  0.00110672  0.1962453 0.7000
  1   -538.2559617025  -0.139425235653 0.05070718  0.00073570  0.0963597 0.7000
                               ***Turning on DIIS***
  2   -538.3178644180  -0.061902715472 0.10315987  0.00137342  0.0414831 0.0000
  3   -538.4076406600  -0.089776242053 0.03761565  0.00043516  0.0530733 0.0000
  4   -538.4296893184  -0.022048658364 0.00693350  0.00010861  0.0086181 0.0000
  5   -538.4306447090  -0.000955390640 0.00514530  0.00004388  0.0058142 0.0000
                      *** Initiating the SOSCF procedure ***
                           *** Shutting down DIIS ***
                      *** Re-Reading the Fockian *** 
                      *** Removing any level shift *** 
ITER      Energy       Delta-E        Grad      Rot      Max-DP    RMS-DP
  6   -538.43076473  -0.0001200242  0.000350  0.000350  0.003376  0.000036
               *** Restarting incremental Fock matrix formation ***
  7   -538.43078069  -0.0000159614  0.000584  0.002869  0.003523  0.000057
  8   -538.43075980   0.0000208928  0.001170  0.001911  0.001606  0.000016
  9   -538.43078782  -0.0000280196  0.000030  0.000115  0.000412  0.000005
 10   -538.43078780   0.0000000238  0.000048  0.000068  0.001665  0.000017
                  ***Gradient check signals convergence***
              ***Rediagonalizing the Fockian in SOSCF/NRSCF***

               *****************************************************
               *                     SUCCESS                       *
               *           SCF CONVERGED AFTER  11 CYCLES          *
               *****************************************************

Old exchange energy                            =    -15.825637831 Eh
New exchange energy                            =    -15.825610480 Eh
Exchange energy change after final integration =      0.000027352 Eh
Total energy after final integration           =   -538.430760533 Eh
Final COS-X integration done in                =    47.942 sec

SMD CDS free energy correction energy :                -2.58603     Kcal/mol
Total Energy after SMD CDS correction =              -538.434881630 Eh

----------------
TOTAL SCF ENERGY
----------------

Total Energy       :         -538.43488163 Eh          -14651.55800 eV

Components:
Nuclear Repulsion  :          678.47788110 Eh           18462.32175 eV
Electronic Energy  :        -1216.91276273 Eh          -33113.87975 eV
One Electron Energy:        -2076.38367252 Eh          -56501.27220 eV
Two Electron Energy:          859.47090979 Eh           23387.39245 eV
Max COSX asymmetry :            0.00003257 Eh               0.00089 eV
CPCM Dielectric    :           -0.00621669 Eh              -0.16916 eV
SMD CDS (Gcds)     :           -0.00412110 Eh              -0.11214 eV

Virial components:
Potential Energy   :        -1074.02532610 Eh          -29225.71493 eV
Kinetic Energy     :          535.59044447 Eh           14574.15693 eV
Virial Ratio       :            2.00531084


DFT components:
N(Alpha)           :       44.000002242898 electrons
N(Beta)            :       44.000002242898 electrons
N(Total)           :       88.000004485795 electrons
E(X)               :      -56.413934802826 Eh       
E(C)               :       -3.335428576504 Eh       
E(XC)              :      -59.749363379330 Eh       
DFET-embed. en.    :        0.000000000000 Eh       
CPCM Solvation Model Properties:
Surface-charge          :           -0.05178761
Charge-correction       :            0.00010475 Eh               0.00285 eV
Free-energy (cav+disp)  :           -0.00412110 Eh              -0.11214 eV

---------------
SCF CONVERGENCE
---------------

  Last Energy change         ...   -8.7767e-08  Tolerance :   1.0000e-08
  Last MAX-Density change    ...    2.6645e-15  Tolerance :   1.0000e-07
  Last RMS-Density change    ...    1.7189e-17  Tolerance :   5.0000e-09
  Last Orbital Gradient      ...    1.9840e-06  Tolerance :   1.0000e-05
  Last Orbital Rotation      ...    8.3511e-06  Tolerance :   1.0000e-05

             **** THE GBW FILE WAS UPDATED (x3lyp-train-7.gbw) ****
             **** DENSITY x3lyp-train-7.scfp WAS UPDATED ****
             **** ENERGY FILE WAS UPDATED (x3lyp-train-7.en.tmp) ****
             **** THE GBW FILE WAS UPDATED (x3lyp-train-7.gbw) ****
             **** DENSITY x3lyp-train-7.scfp WAS UPDATED ****
----------------
ORBITAL ENERGIES
----------------

  NO   OCC          E(Eh)            E(eV) 
   0   2.0000     -19.189997      -522.1864 
   1   2.0000     -19.188382      -522.1424 
   2   2.0000     -10.255628      -279.0698 
   3   2.0000     -10.254780      -279.0467 
   4   2.0000     -10.240203      -278.6501 
   5   2.0000     -10.239508      -278.6312 
   6   2.0000     -10.199468      -277.5416 
   7   2.0000     -10.196331      -277.4563 
   8   2.0000     -10.194633      -277.4101 
   9   2.0000     -10.193264      -277.3728 
  10   2.0000     -10.189620      -277.2737 
  11   2.0000     -10.180960      -277.0380 
  12   2.0000      -1.085626       -29.5414 
  13   2.0000      -1.065774       -29.0012 
  14   2.0000      -0.866605       -23.5815 
  15   2.0000      -0.798467       -21.7274 
  16   2.0000      -0.761276       -20.7154 
  17   2.0000      -0.745675       -20.2909 
  18   2.0000      -0.707695       -19.2574 
  19   2.0000      -0.688557       -18.7366 
  20   2.0000      -0.621938       -16.9238 
  21   2.0000      -0.605167       -16.4674 
  22   2.0000      -0.563376       -15.3302 
  23   2.0000      -0.539069       -14.6688 
  24   2.0000      -0.511564       -13.9204 
  25   2.0000      -0.502841       -13.6830 
  26   2.0000      -0.479440       -13.0462 
  27   2.0000      -0.473431       -12.8827 
  28   2.0000      -0.464185       -12.6311 
  29   2.0000      -0.451753       -12.2928 
  30   2.0000      -0.440346       -11.9824 
  31   2.0000      -0.428439       -11.6584 
  32   2.0000      -0.411734       -11.2038 
  33   2.0000      -0.392891       -10.6911 
  34   2.0000      -0.390889       -10.6366 
  35   2.0000      -0.372527       -10.1370 
  36   2.0000      -0.355118        -9.6633 
  37   2.0000      -0.343903        -9.3581 
  38   2.0000      -0.334737        -9.1087 
  39   2.0000      -0.328142        -8.9292 
  40   2.0000      -0.326895        -8.8953 
  41   2.0000      -0.281169        -7.6510 
  42   2.0000      -0.241998        -6.5851 
  43   2.0000      -0.203026        -5.5246 
  44   0.0000      -0.031936        -0.8690 
  45   0.0000       0.000521         0.0142 
  46   0.0000       0.001143         0.0311 
  47   0.0000       0.004221         0.1149 
  48   0.0000       0.010207         0.2777 
  49   0.0000       0.021091         0.5739 
  50   0.0000       0.024019         0.6536 
  51   0.0000       0.031029         0.8444 
  52   0.0000       0.031811         0.8656 
  53   0.0000       0.043834         1.1928 
  54   0.0000       0.049928         1.3586 
  55   0.0000       0.052922         1.4401 
  56   0.0000       0.053820         1.4645 
  57   0.0000       0.056665         1.5419 
  58   0.0000       0.057121         1.5543 
  59   0.0000       0.064034         1.7425 
  60   0.0000       0.078674         2.1408 
  61   0.0000       0.079521         2.1639 
  62   0.0000       0.084639         2.3031 
  63   0.0000       0.092111         2.5065 
  64   0.0000       0.093605         2.5471 
  65   0.0000       0.099488         2.7072 
  66   0.0000       0.105677         2.8756 
  67   0.0000       0.109853         2.9893 
  68   0.0000       0.110893         3.0176 
  69   0.0000       0.117489         3.1970 
  70   0.0000       0.121650         3.3103 
  71   0.0000       0.122533         3.3343 
  72   0.0000       0.123848         3.3701 
  73   0.0000       0.131208         3.5704 
  74   0.0000       0.135720         3.6931 
  75   0.0000       0.138539         3.7698 
  76   0.0000       0.141983         3.8635 
  77   0.0000       0.148429         4.0390 
  78   0.0000       0.149028         4.0553 
  79   0.0000       0.152266         4.1434 
  80   0.0000       0.156098         4.2476 
  81   0.0000       0.160507         4.3676 
  82   0.0000       0.168684         4.5901 
  83   0.0000       0.170390         4.6365 
  84   0.0000       0.178843         4.8666 
  85   0.0000       0.179877         4.8947 
  86   0.0000       0.182586         4.9684 
  87   0.0000       0.183054         4.9811 
  88   0.0000       0.186491         5.0747 
  89   0.0000       0.189499         5.1565 
  90   0.0000       0.192775         5.2457 
  91   0.0000       0.193238         5.2583 
  92   0.0000       0.193704         5.2710 
  93   0.0000       0.199083         5.4173 
  94   0.0000       0.208910         5.6847 
  95   0.0000       0.217108         5.9078 
  96   0.0000       0.223631         6.0853 
  97   0.0000       0.227554         6.1921 
  98   0.0000       0.233872         6.3640 
  99   0.0000       0.237184         6.4541 
 100   0.0000       0.238622         6.4932 
 101   0.0000       0.242229         6.5914 
 102   0.0000       0.251392         6.8407 
 103   0.0000       0.261350         7.1117 
 104   0.0000       0.262091         7.1319 
 105   0.0000       0.267572         7.2810 
 106   0.0000       0.268835         7.3154 
 107   0.0000       0.269704         7.3390 
 108   0.0000       0.274664         7.4740 
 109   0.0000       0.275899         7.5076 
 110   0.0000       0.278187         7.5699 
 111   0.0000       0.282107         7.6765 
 112   0.0000       0.287204         7.8152 
 113   0.0000       0.294562         8.0154 
 114   0.0000       0.296167         8.0591 
 115   0.0000       0.304355         8.2819 
 116   0.0000       0.307572         8.3694 
 117   0.0000       0.310813         8.4577 
 118   0.0000       0.313962         8.5433 
 119   0.0000       0.323651         8.8070 
 120   0.0000       0.329495         8.9660 
 121   0.0000       0.337122         9.1736 
 122   0.0000       0.343500         9.3471 
 123   0.0000       0.344720         9.3803 
 124   0.0000       0.347869         9.4660 
 125   0.0000       0.355483         9.6732 
 126   0.0000       0.357892         9.7387 
 127   0.0000       0.365964         9.9584 
 128   0.0000       0.372556        10.1378 
 129   0.0000       0.374823        10.1994 
 130   0.0000       0.375304        10.2125 
 131   0.0000       0.384350        10.4587 
 132   0.0000       0.390581        10.6282 
 133   0.0000       0.394431        10.7330 
 134   0.0000       0.399154        10.8615 
 135   0.0000       0.402239        10.9455 
 136   0.0000       0.404079        10.9955 
 137   0.0000       0.405669        11.0388 
 138   0.0000       0.408498        11.1158 
 139   0.0000       0.409630        11.1466 
 140   0.0000       0.417527        11.3615 
 141   0.0000       0.420789        11.4502 
 142   0.0000       0.426272        11.5994 
 143   0.0000       0.428695        11.6654 
 144   0.0000       0.438193        11.9238 
 145   0.0000       0.444697        12.1008 
 146   0.0000       0.451171        12.2770 
 147   0.0000       0.452691        12.3183 
 148   0.0000       0.456553        12.4235 
 149   0.0000       0.458518        12.4769 
 150   0.0000       0.463854        12.6221 
 151   0.0000       0.474103        12.9010 
 152   0.0000       0.484253        13.1772 
 153   0.0000       0.492332        13.3970 
 154   0.0000       0.495783        13.4910 
 155   0.0000       0.497027        13.5248 
 156   0.0000       0.501960        13.6590 
 157   0.0000       0.504457        13.7270 
 158   0.0000       0.506334        13.7780 
 159   0.0000       0.512852        13.9554 
 160   0.0000       0.519090        14.1252 
 161   0.0000       0.531087        14.4516 
 162   0.0000       0.532342        14.4858 
 163   0.0000       0.545075        14.8322 
 164   0.0000       0.558230        15.1902 
 165   0.0000       0.561471        15.2784 
 166   0.0000       0.569417        15.4946 
 167   0.0000       0.580508        15.7964 
 168   0.0000       0.587263        15.9802 
 169   0.0000       0.590067        16.0565 
 170   0.0000       0.598389        16.2830 
 171   0.0000       0.602919        16.4063 
 172   0.0000       0.610892        16.6232 
 173   0.0000       0.614874        16.7316 
 174   0.0000       0.622539        16.9402 
 175   0.0000       0.626760        17.0550 
 176   0.0000       0.633446        17.2369 
 177   0.0000       0.636463        17.3190 
 178   0.0000       0.655378        17.8337 
 179   0.0000       0.663544        18.0559 
 180   0.0000       0.667415        18.1613 
 181   0.0000       0.673031        18.3141 
 182   0.0000       0.673976        18.3398 
 183   0.0000       0.679990        18.5035 
 184   0.0000       0.683410        18.5965 
 185   0.0000       0.689628        18.7657 
 186   0.0000       0.689663        18.7667 
 187   0.0000       0.694111        18.8877 
 188   0.0000       0.705520        19.1982 
 189   0.0000       0.710650        19.3378 
 190   0.0000       0.713389        19.4123 
 191   0.0000       0.721633        19.6366 
 192   0.0000       0.729724        19.8568 
 193   0.0000       0.731182        19.8965 
 194   0.0000       0.736765        20.0484 
 195   0.0000       0.744905        20.2699 
 196   0.0000       0.750734        20.4285 
 197   0.0000       0.756339        20.5810 
 198   0.0000       0.758118        20.6294 
 199   0.0000       0.762968        20.7614 
 200   0.0000       0.766865        20.8675 
 201   0.0000       0.770834        20.9755 
 202   0.0000       0.777244        21.1499 
 203   0.0000       0.782286        21.2871 
 204   0.0000       0.789436        21.4816 
 205   0.0000       0.803882        21.8747 
 206   0.0000       0.805680        21.9237 
 207   0.0000       0.814626        22.1671 
 208   0.0000       0.819500        22.2997 
 209   0.0000       0.825395        22.4602 
 210   0.0000       0.826257        22.4836 
 211   0.0000       0.828002        22.5311 
 212   0.0000       0.842490        22.9253 
 213   0.0000       0.842855        22.9353 
 214   0.0000       0.848224        23.0813 
 215   0.0000       0.855351        23.2753 
 216   0.0000       0.856596        23.3092 
 217   0.0000       0.869553        23.6617 
 218   0.0000       0.875606        23.8265 
 219   0.0000       0.883101        24.0304 
 220   0.0000       0.888841        24.1866 
 221   0.0000       0.899232        24.4693 
 222   0.0000       0.911263        24.7967 
 223   0.0000       0.914900        24.8957 
 224   0.0000       0.920991        25.0614 
 225   0.0000       0.924705        25.1625 
 226   0.0000       0.937718        25.5166 
 227   0.0000       0.940284        25.5864 
 228   0.0000       0.950792        25.8724 
 229   0.0000       0.953596        25.9487 
 230   0.0000       0.956916        26.0390 
 231   0.0000       0.962516        26.1914 
 232   0.0000       0.969509        26.3817 
 233   0.0000       0.972913        26.4743 
 234   0.0000       0.979161        26.6443 
 235   0.0000       0.988781        26.9061 
 236   0.0000       0.993290        27.0288 
 237   0.0000       0.999729        27.2040 
 238   0.0000       1.011297        27.5188 
 239   0.0000       1.012511        27.5518 
 240   0.0000       1.017771        27.6950 
 241   0.0000       1.034434        28.1484 
 242   0.0000       1.038918        28.2704 
 243   0.0000       1.041058        28.3286 
 244   0.0000       1.045555        28.4510 
 245   0.0000       1.055497        28.7215 
 246   0.0000       1.063561        28.9410 
 247   0.0000       1.079709        29.3804 
 248   0.0000       1.092354        29.7245 
 249   0.0000       1.093070        29.7439 
 250   0.0000       1.109218        30.1834 
 251   0.0000       1.120616        30.4935 
 252   0.0000       1.121425        30.5155 
 253   0.0000       1.125260        30.6199 
 254   0.0000       1.128677        30.7129 
 255   0.0000       1.143436        31.1145 
 256   0.0000       1.152361        31.3573 
 257   0.0000       1.163030        31.6477 
 258   0.0000       1.167925        31.7808 
 259   0.0000       1.172949        31.9176 
 260   0.0000       1.179471        32.0950 
 261   0.0000       1.192158        32.4403 
 262   0.0000       1.204401        32.7734 
 263   0.0000       1.214375        33.0448 
 264   0.0000       1.219739        33.1908 
 265   0.0000       1.236826        33.6558 
 266   0.0000       1.236946        33.6590 
 267   0.0000       1.241174        33.7741 
 268   0.0000       1.257242        34.2113 
 269   0.0000       1.264356        34.4049 
 270   0.0000       1.268935        34.5295 
 271   0.0000       1.273973        34.6666 
 272   0.0000       1.278760        34.7968 
 273   0.0000       1.284653        34.9572 
 274   0.0000       1.287358        35.0308 
 275   0.0000       1.294364        35.2214 
 276   0.0000       1.296528        35.2803 
 277   0.0000       1.304538        35.4983 
 278   0.0000       1.310239        35.6534 
 279   0.0000       1.317644        35.8549 
 280   0.0000       1.327165        36.1140 
 281   0.0000       1.332064        36.2473 
 282   0.0000       1.339472        36.4489 
 283   0.0000       1.341467        36.5032 
 284   0.0000       1.348102        36.6837 
 285   0.0000       1.359866        37.0038 
 286   0.0000       1.371301        37.3150 
 287   0.0000       1.372580        37.3498 
 288   0.0000       1.387153        37.7464 
 289   0.0000       1.390339        37.8330 
 290   0.0000       1.395202        37.9654 
 291   0.0000       1.404654        38.2226 
 292   0.0000       1.411678        38.4137 
 293   0.0000       1.413072        38.4517 
 294   0.0000       1.423362        38.7316 
 295   0.0000       1.425696        38.7952 
 296   0.0000       1.436276        39.0830 
 297   0.0000       1.437356        39.1124 
 298   0.0000       1.451915        39.5086 
 299   0.0000       1.462162        39.7875 
 300   0.0000       1.471191        40.0331 
 301   0.0000       1.472868        40.0788 
 302   0.0000       1.486445        40.4482 
 303   0.0000       1.487451        40.4756 
 304   0.0000       1.489337        40.5269 
 305   0.0000       1.500465        40.8297 
 306   0.0000       1.502432        40.8833 
 307   0.0000       1.505009        40.9534 
 308   0.0000       1.511956        41.1424 
 309   0.0000       1.514798        41.2198 
 310   0.0000       1.519554        41.3492 
 311   0.0000       1.523396        41.4537 
 312   0.0000       1.533550        41.7300 
 313   0.0000       1.537092        41.8264 
 314   0.0000       1.556145        42.3449 
 315   0.0000       1.559302        42.4308 
 316   0.0000       1.573879        42.8274 
 317   0.0000       1.579384        42.9772 
 318   0.0000       1.586670        43.1755 
 319   0.0000       1.589131        43.2425 
 320   0.0000       1.599959        43.5371 
 321   0.0000       1.602645        43.6102 
 322   0.0000       1.618406        44.0391 
 323   0.0000       1.620980        44.1091 
 324   0.0000       1.628260        44.3072 
 325   0.0000       1.629448        44.3395 
 326   0.0000       1.639813        44.6216 
 327   0.0000       1.663048        45.2538 
 328   0.0000       1.668101        45.3913 
 329   0.0000       1.673479        45.5377 
 330   0.0000       1.677940        45.6591 
 331   0.0000       1.681624        45.7593 
 332   0.0000       1.688335        45.9419 
 333   0.0000       1.689262        45.9672 
 334   0.0000       1.700110        46.2623 
 335   0.0000       1.709299        46.5124 
 336   0.0000       1.714537        46.6549 
 337   0.0000       1.721094        46.8334 
 338   0.0000       1.729870        47.0722 
 339   0.0000       1.737995        47.2933 
 340   0.0000       1.755156        47.7602 
 341   0.0000       1.760428        47.9037 
 342   0.0000       1.760824        47.9144 
 343   0.0000       1.768682        48.1283 
 344   0.0000       1.776041        48.3285 
 345   0.0000       1.784972        48.5716 
 346   0.0000       1.793971        48.8164 
 347   0.0000       1.806321        49.1525 
 348   0.0000       1.815727        49.4084 
 349   0.0000       1.831195        49.8293 
 350   0.0000       1.839870        50.0654 
 351   0.0000       1.863023        50.6954 
 352   0.0000       1.865796        50.7709 
 353   0.0000       1.873478        50.9799 
 354   0.0000       1.882956        51.2378 
 355   0.0000       1.886658        51.3386 
 356   0.0000       1.909834        51.9692 
 357   0.0000       1.912400        52.0391 
 358   0.0000       1.921315        52.2816 
 359   0.0000       1.929883        52.5148 
[...]


-------
TIMINGS
-------

Total SCF time: 0 days 0 hours 1 min 55 sec 

Total time                  ....     115.700 sec
Sum of individual times     ....     113.924 sec  ( 98.5%)

Fock matrix formation       ....     109.556 sec  ( 94.7%)
  Split-RI-J                ....       5.828 sec  (  5.3% of F)
  Chain of spheres X        ....      94.273 sec  ( 86.1% of F)
  XC integration            ....       5.765 sec  (  5.3% of F)
    Basis function eval.    ....       1.103 sec  ( 19.1% of XC)
    Density eval.           ....       2.097 sec  ( 36.4% of XC)
    XC-Functional eval.     ....       0.114 sec  (  2.0% of XC)
    XC-Potential eval.      ....       2.322 sec  ( 40.3% of XC)
Diagonalization             ....       0.217 sec  (  0.2%)
Density matrix formation    ....       0.019 sec  (  0.0%)
Population analysis         ....       0.166 sec  (  0.1%)
Initial guess               ....       0.242 sec  (  0.2%)
Orbital Transformation      ....       0.000 sec  (  0.0%)
Orbital Orthonormalization  ....       0.203 sec  (  0.2%)
DIIS solution               ....       0.080 sec  (  0.1%)
SOSCF solution              ....       0.143 sec  (  0.1%)
Grid generation             ....       3.501 sec  (  3.0%)

Maximum memory used throughout the entire SCF-calculation: 166.2 MB


           ************************************************************
           *        Program running with 4 parallel MPI-processes     *
           *              working on a common directory               *
           ************************************************************
------------------------------------------------------------------------------
                        ORCA TD-DFT/TDA CALCULATION
------------------------------------------------------------------------------

Input orbitals are from        ... x3lyp-train-7_job2.gbw
CI-vector output               ... x3lyp-train-7_job2.cis
Tamm-Dancoff approximation     ... operative
CIS-Integral strategy          ... AO-integrals
Integral handling              ... AO integral Direct
Max. core memory used          ... 4000 MB
Reference state                ... RHF
Generation of triplets         ... off
Follow IRoot                   ... off
Number of operators            ... 1
Orbital ranges used for CIS calculation:
 Operator 0:  Orbitals  12... 43  to  44...719
XAS localization array:
 Operator 0:  Orbitals  -1... -1

-------------------
XC-INTEGRATION GRID
-------------------

General Integration Accuracy     IntAcc      ... 3.467
Radial Grid Type                 RadialGrid  ... OptM3 with GC (2021)
Angular Grid (max. ang.)         AngularGrid ... 1 (Lebedev-50)
Angular grid pruning method      GridPruning ... 4 (adaptive)
Weight generation scheme         WeightScheme... Becke
Basis function cutoff            BFCut       ... 1.0000e-11
Integration weight cutoff        WCut        ... 1.0000e-14
Angular grids for H and He will be reduced by one unit
Partially contracted basis set               ... off
Rotationally invariant grid construction     ... off

Total number of grid points                  ...    16623
Total number of batches                      ...      270
Average number of points per batch           ...       61
Average number of grid points per atom       ...      693

---------------------
COSX-INTEGRATION GRID
---------------------

General Integration Accuracy     IntAcc      ... 3.067
Radial Grid Type                 RadialGrid  ... OptM3 with GC (2021)
Angular Grid (max. ang.)         AngularGrid ... 1 (Lebedev-50)
Angular grid pruning method      GridPruning ... 4 (adaptive)
Weight generation scheme         WeightScheme... Becke
Basis function cutoff            BFCut       ... 1.0000e-11
Integration weight cutoff        WCut        ... 1.0000e-14
Angular grids for H and He will be reduced by one unit
Partially contracted basis set               ... on
Rotationally invariant grid construction     ... off

Total number of grid points                  ...     7645
Total number of batches                      ...      136
Average number of points per batch           ...       56
Average number of grid points per atom       ...      319

---------------
TD-DFT XC SETUP
---------------

DFT calculation                         ... on
Name of the grid file                   ... x3lyp-train-7_job2.grid_cis.tmp
Exchange functional (TD-DFT)            ... X
Correlation functional (TD-DFT)         ... LYP
 LDA part of GGA corr.  LDAOpt (TD-DFT) ... VWN-5
Hybrid DFT                              ... on
   Exchange mixing (TD-DFT)             ...  0.218
   GGA exch. scaling (TD-DFT)           ...  0.709
   GGA corr. scaling (TD-DFT)           ...  0.871

Building densities             ... done
Calculating rho(r) on the grid ... done
Building xc-kernel on the grid ... done
                    *** TD-DFT CALCULATION INITIALIZED ***

---------------------------------
    LR-CPCM (non-equilibrium)
---------------------------------

Setting up LR-CPCM             ... done

------------------------
DAVIDSON-DIAGONALIZATION
------------------------

Dimension of the eigenvalue problem            ...  21632
Number of roots to be determined               ...     10
Maximum size of the expansion space            ...     70
Maximum number of iterations                   ...    100
Convergence tolerance for the residual         ...    1.000e-06
Convergence tolerance for the energies         ...    1.000e-06
Orthogonality tolerance                        ...    1.000e-14
Level Shift                                    ...    0.000e+00
Constructing the preconditioner                ... o.k.
Building the initial guess                     ... o.k.
Number of trial vectors determined             ...     70


                       ****Iteration    0****

   Memory handling for direct AO based CIS:
   Memory per vector needed      ...    23 MB
   Memory needed                 ...   711 MB
   Memory available              ...  4000 MB
   Number of vectors per batch   ...   168
   Number of batches             ...     1
   Time for densities:            0.282
   Time for RI-J (Direct):        7.107
   Time for K (COSX):            39.514
   Time for XC-Integration:      21.223
   Time for LR-CPCM terms:        9.511
   Time for Sigma-Completion:     0.188
   Size of expansion space: 30
   Lowest Energy          :     0.170814322679
   Maximum Energy change  :     0.214266601637 (vector 9)
   Maximum residual norm  :     0.009446364898

                       ****Iteration    1****
   Time for densities:            0.092
   Time for RI-J (Direct):        4.248
   Time for K (COSX):            15.012
   Time for XC-Integration:       7.342
   Time for LR-CPCM terms:        4.426
   Time for Sigma-Completion:     0.064
   Size of expansion space: 40
   Lowest Energy          :     0.159058578338
   Maximum Energy change  :     0.011755744341 (vector 0)
   Maximum residual norm  :     0.001171279789

                       ****Iteration    2****
   Time for densities:            0.095
   Time for RI-J (Direct):        4.189
   Time for K (COSX):            14.572
   Time for XC-Integration:       7.406
   Time for LR-CPCM terms:        4.350
   Time for Sigma-Completion:     0.054
   Size of expansion space: 50
   Lowest Energy          :     0.158686606696
   Maximum Energy change  :     0.003636338792 (vector 9)
   Maximum residual norm  :     0.000683129507

                       ****Iteration    3****
   Time for densities:            0.076
   Time for RI-J (Direct):        4.119
   Time for K (COSX):            14.997
   Time for XC-Integration:       7.922
   Time for LR-CPCM terms:        4.401
   Time for Sigma-Completion:     0.064
   Size of expansion space: 60
   Lowest Energy          :     0.158641330002
   Maximum Energy change  :     0.001047625315 (vector 6)
   Maximum residual norm  :     0.000053565580

                       ****Iteration    4****
   Time for densities:            0.093
   Time for RI-J (Direct):        4.273
   Time for K (COSX):            14.900
   Time for XC-Integration:       7.920
   Time for LR-CPCM terms:        4.287
   Time for Sigma-Completion:     0.056
   Size of expansion space: 70
   Lowest Energy          :     0.158640063103
   Maximum Energy change  :     0.000063838842 (vector 6)
   Maximum residual norm  :     0.000001482565
   Rebuilding the expansion space

                       ****Iteration    5****
   Time for densities:            0.150
   Time for RI-J (Direct):        5.411
   Time for K (COSX):            26.772
   Time for XC-Integration:      17.349
   Time for LR-CPCM terms:        6.874
   Time for Sigma-Completion:     0.221
   Size of expansion space: 20
   Lowest Energy          :     0.158639474282
   Maximum Energy change  :     0.000002635240 (vector 6)
   Maximum residual norm  :     0.000000176769

      *** CONVERGENCE OF RESIDUAL NORM REACHED ***

Storing the converged CI vectors               ... x3lyp-train-7_job2.cis1

                 *** DAVIDSON DONE ***

Total time for solving the CIS problem:   260.703sec

------------------------------------
TD-DFT/TDA EXCITED STATES (SINGLETS)
------------------------------------

the weight of the individual excitations are printed if larger than 1.0e-02

STATE  1:  E=   0.158639 au      4.317 eV    34817.3 cm**-1 <S**2> =   0.000000
    42a ->  44a  :     0.020994 (c= -0.14489418)
    42a ->  45a  :     0.011349 (c= -0.10653246)
    43a ->  44a  :     0.928409 (c= -0.96353979)

STATE  2:  E=   0.169112 au      4.602 eV    37115.8 cm**-1 <S**2> =   0.000000
    41a ->  44a  :     0.012720 (c= -0.11278290)
    42a ->  44a  :     0.385903 (c=  0.62121086)
    43a ->  44a  :     0.015463 (c= -0.12434974)
    43a ->  45a  :     0.559972 (c= -0.74831272)

STATE  3:  E=   0.176491 au      4.803 eV    38735.4 cm**-1 <S**2> =   0.000000
    43a ->  46a  :     0.939438 (c=  0.96924606)
    43a ->  49a  :     0.025754 (c= -0.16048183)
    43a ->  51a  :     0.016107 (c=  0.12691461)

STATE  4:  E=   0.182735 au      4.972 eV    40105.6 cm**-1 <S**2> =   0.000000
    43a ->  47a  :     0.973106 (c=  0.98646153)
    43a ->  50a  :     0.010327 (c=  0.10162002)

STATE  5:  E=   0.186753 au      5.082 eV    40987.6 cm**-1 <S**2> =   0.000000
    43a ->  48a  :     0.897670 (c= -0.94745466)
    43a ->  49a  :     0.067221 (c= -0.25927027)
    43a ->  50a  :     0.010319 (c= -0.10158315)

STATE  6:  E=   0.194894 au      5.303 eV    42774.2 cm**-1 <S**2> =   0.000000
    43a ->  46a  :     0.034564 (c= -0.18591481)
    43a ->  48a  :     0.073701 (c=  0.27148003)
    43a ->  49a  :     0.841922 (c= -0.91756297)
    43a ->  50a  :     0.010944 (c= -0.10461284)
    43a ->  51a  :     0.014631 (c=  0.12096042)

STATE  7:  E=   0.200590 au      5.458 eV    44024.3 cm**-1 <S**2> =   0.000000
    41a ->  44a  :     0.015107 (c= -0.12290962)
    42a ->  44a  :     0.485602 (c= -0.69685141)
    43a ->  45a  :     0.323970 (c= -0.56918368)
    43a ->  50a  :     0.010147 (c= -0.10073209)
    43a ->  51a  :     0.012119 (c=  0.11008838)
    43a ->  52a  :     0.067886 (c=  0.26054999)
    43a ->  58a  :     0.011814 (c= -0.10869183)

STATE  8:  E=   0.202362 au      5.507 eV    44413.4 cm**-1 <S**2> =   0.000000
    42a ->  46a  :     0.010724 (c= -0.10355799)
    43a ->  49a  :     0.017764 (c=  0.13328159)
    43a ->  50a  :     0.924286 (c= -0.96139769)

STATE  9:  E=   0.207993 au      5.660 eV    45649.2 cm**-1 <S**2> =   0.000000
    42a ->  44a  :     0.046887 (c= -0.21653497)
    43a ->  45a  :     0.016539 (c= -0.12860272)
    43a ->  51a  :     0.376810 (c= -0.61384865)
    43a ->  52a  :     0.517782 (c= -0.71957101)

STATE 10:  E=   0.208926 au      5.685 eV    45853.9 cm**-1 <S**2> =   0.000000
    43a ->  46a  :     0.010256 (c= -0.10126997)
    43a ->  49a  :     0.021611 (c=  0.14700833)
    43a ->  51a  :     0.548553 (c=  0.74064338)
    43a ->  52a  :     0.381640 (c= -0.61777002)


-----------------------------
TD-DFT/TDA-EXCITATION SPECTRA
-----------------------------

Center of mass = ( -0.2969,  0.0062, -0.0368)
Calculating the Dipole integrals                  ... done
Transforming integrals                            ... done
Calculating the Linear Momentum integrals         ... done
Transforming integrals                            ... done
Calculating angular momentum integrals            ... done
Transforming integrals                            ... done

-----------------------------------------------------------------------------
         ABSORPTION SPECTRUM VIA TRANSITION ELECTRIC DIPOLE MOMENTS
-----------------------------------------------------------------------------
State   Energy    Wavelength  fosc         T2        TX        TY        TZ  
        (cm-1)      (nm)                 (au**2)    (au)      (au)      (au) 
-----------------------------------------------------------------------------
   1   34817.3    287.2   0.445836554   4.21556   1.86019   0.86905  -0.00170
   2   37115.8    269.4   0.016671194   0.14787   0.31795   0.21566  -0.01641
   3   38735.4    258.2   0.011322379   0.09623   0.02382  -0.04978  -0.30526
   4   40105.6    249.3   0.000564870   0.00464  -0.00474   0.01175   0.06691
   5   40987.6    244.0   0.000249628   0.00201   0.00154  -0.00810   0.04401
   6   42774.2    233.8   0.000615816   0.00474  -0.00707  -0.01798  -0.06608
   7   44024.3    227.1   0.684131507   5.11591  -2.11419   0.73179  -0.33252
   8   44413.4    225.2   0.012074893   0.08950   0.25328  -0.12469  -0.09903
   9   45649.2    219.1   0.186517299   1.34512  -1.10103   0.31994  -0.17460
  10   45853.9    218.1   0.019887416   0.14278  -0.36352   0.09714  -0.03468

-----------------------------------------------------------------------------
         ABSORPTION SPECTRUM VIA TRANSITION VELOCITY DIPOLE MOMENTS
-----------------------------------------------------------------------------
State   Energy    Wavelength   fosc        P2         PX        PY        PZ  
        (cm-1)      (nm)                 (au**2)     (au)      (au)      (au) 
-----------------------------------------------------------------------------
   1   34817.3    287.2   0.137992358   0.03284  -0.16648  -0.07152  -0.00209
   2   37115.8    269.4   0.017201358   0.00436  -0.06438  -0.01440  -0.00332
   3   38735.4    258.2   0.006233200   0.00165  -0.00279   0.00641   0.04002
   4   40105.6    249.3   0.000642273   0.00018   0.00113  -0.00234  -0.01301
   5   40987.6    244.0   0.004124029   0.00116   0.00202  -0.00386  -0.03371
   6   42774.2    233.8   0.000901085   0.00026   0.00396  -0.00284  -0.01548
   7   44024.3    227.1   0.173949849   0.05234   0.22632  -0.02143   0.02567
   8   44413.4    225.2   0.004090159   0.00124  -0.02810   0.00885   0.01933
   9   45649.2    219.1   0.061063012   0.01905   0.13544  -0.01569   0.02145
  10   45853.9    218.1   0.006931976   0.00217   0.04575  -0.00568  -0.00683

-------------------------------------------------------------------
                             CD SPECTRUM
-------------------------------------------------------------------
State  Energy     Wavelength     R         MX        MY        MZ   
       (cm-1)       (nm)     (1e40*cgs)   (au)      (au)      (au)  
-------------------------------------------------------------------
   1   34817.3    287.2     -1.63503   0.01074  -0.02734  -0.18405
   2   37115.8    269.4      0.21380   0.01234  -0.02846  -0.16263
   3   38735.4    258.2     -0.50017  -0.00065   0.04423  -0.00379
   4   40105.6    249.3      0.08310   0.11450  -0.10344   0.02891
   5   40987.6    244.0      0.42200   0.03804  -0.06511   0.00702
   6   42774.2    233.8     -0.89182  -0.00719   0.25895  -0.04105
   7   44024.3    227.1     -6.40273   0.01232   0.00289  -0.03110
   8   44413.4    225.2      0.86865   0.08064   0.16528  -0.02048
   9   45649.2    219.1      8.14223   0.00676   0.05940  -0.03272
  10   45853.9    218.1     -7.61421  -0.00344  -0.17253   0.01854

-------------------------------------------------------------------
         CD SPECTRUM VIA TRANSITION VELOCITY DIPOLE MOMENTS        
-------------------------------------------------------------------
State  Energy     Wavelength     R         MX        MY        MZ   
       (cm-1)       (nm)     (1e40*cgs)   (au)      (au)      (au)  
-------------------------------------------------------------------
   1   34817.3    287.2      1.64168   0.01074  -0.02734  -0.18405
   2   37115.8    269.4      0.43526   0.01234  -0.02846  -0.16263
   3   38735.4    258.2      0.35706  -0.00065   0.04423  -0.00379
   4   40105.6    249.3     -0.01396   0.11450  -0.10344   0.02891
   5   40987.6    244.0      0.23152   0.03804  -0.06511   0.00702
   6   42774.2    233.8     -0.30926  -0.00719   0.25895  -0.04105
   7   44024.3    227.1      4.52877   0.01232   0.00289  -0.03110
   8   44413.4    225.2     -2.79117   0.08064   0.16528  -0.02048
   9   45649.2    219.1     -1.62798   0.00676   0.05940  -0.03272
  10   45853.9    218.1      1.57217  -0.00344  -0.17253   0.01854

Total run time:      265.095 sec

           *** ORCA-CIS/TD-DFT FINISHED WITHOUT ERROR ***

Maximum memory used throughout the entire CIS-calculation: 678.1 MB

-----------------------
CIS/TD-DFT TOTAL ENERGY
-----------------------

    E(SCF)  =   -538.435614898 Eh
    DE(CIS) =      0.158639474 Eh (Root  1)
    ----------------------------- ---------
    E(tot)  =   -538.276975424 Eh


-------------------------   --------------------
FINAL SINGLE POINT ENERGY      -538.276975423666
-------------------------   --------------------


                            ***************************************
                            *     ORCA property calculations      *
                            ***************************************

                                    ---------------------
                                    Active property flags
                                    ---------------------
   (+) Dipole Moment


------------------------------------------------------------------------------
                       ORCA ELECTRIC PROPERTIES CALCULATION
------------------------------------------------------------------------------

Dipole Moment Calculation                       ... on
Quadrupole Moment Calculation                   ... off
Polarizability Calculation                      ... off
GBWName                                         ... x3lyp-train-7_job2.gbw
Electron density                                ... x3lyp-train-7_job2.scfp
The origin for moment calculation is the CENTER OF MASS  = (-0.296916,  0.006249 -0.036822)

-------------
DIPOLE MOMENT
-------------
                                X             Y             Z
Electronic contribution:     -2.62155      -0.12023      -0.16144
Nuclear contribution   :      2.42695       0.05488       0.15165
                        -----------------------------------------
Total Dipole Moment    :     -0.19460      -0.06535      -0.00979
                        -----------------------------------------
Magnitude (a.u.)       :      0.20551
Magnitude (Debye)      :      0.52237



--------------------
Rotational spectrum 
--------------------
 
Rotational constants in cm-1:     0.044546     0.022358     0.014972 
Rotational constants in MHz :  1335.447718   670.290423   448.861329 

 Dipole components along the rotational axes: 
x,y,z [a.u.] :    -0.201812    -0.038636    -0.003749 
x,y,z [Debye]:    -0.512965    -0.098204    -0.009529 

 

Timings for individual modules:

Sum of individual times         ...      385.081 sec (=   6.418 min)
GTO integral calculation        ...        2.739 sec (=   0.046 min)   0.7 %
SCF iterations                  ...      116.321 sec (=   1.939 min)  30.2 %
CIS module                      ...      266.021 sec (=   4.434 min)  69.1 %



                             ****ORCA TERMINATED NORMALLY****
TOTAL RUN TIME: 0 days 0 hours 43 minutes 7 seconds 332 msec
