
                                 *****************
                                 * O   R   C   A *
                                 *****************

                                            #,                                       
                                            ###                                      
                                            ####                                     
                                            #####                                    
                                            ######                                   
                                           ########,                                 
                                     ,,################,,,,,                         
                               ,,#################################,,                 
                          ,,##########################################,,             
                       ,#########################################, ''#####,          
                    ,#############################################,,   '####,        
                  ,##################################################,,,,####,       
                ,###########''''           ''''###############################       
              ,#####''   ,,,,##########,,,,          '''####'''          '####       
            ,##' ,,,,###########################,,,                        '##       
           ' ,,###''''                  '''############,,,                           
         ,,##''                                '''############,,,,        ,,,,,,###''
      ,#''                                            '''#######################'''  
     '                                                          ''''####''''         
             ,#######,   #######,   ,#######,      ##                                
            ,#'     '#,  ##    ##  ,#'     '#,    #''#        ######   ,####,        
            ##       ##  ##   ,#'  ##            #'  '#       #        #'  '#        
            ##       ##  #######   ##           ,######,      #####,   #    #        
            '#,     ,#'  ##    ##  '#,     ,#' ,#      #,         ##   #,  ,#        
             '#######'   ##     ##  '#######'  #'      '#     #####' # '####'        



                  #######################################################
                  #                        -***-                        #
                  #          Department of theory and spectroscopy      #
                  #    Directorship and core code : Frank Neese         #
                  #        Max Planck Institute fuer Kohlenforschung    #
                  #                Kaiser Wilhelm Platz 1               #
                  #                 D-45470 Muelheim/Ruhr               #
                  #                      Germany                        #
                  #                                                     #
                  #                  All rights reserved                #
                  #                        -***-                        #
                  #######################################################


                         Program Version 5.0.2 -  RELEASE  -


 With contributions from (in alphabetic order):
   Daniel Aravena         : Magnetic Suceptibility
   Michael Atanasov       : Ab Initio Ligand Field Theory (pilot matlab implementation)
   Alexander A. Auer      : GIAO ZORA, VPT2 properties, NMR spectrum
   Ute Becker             : Parallelization
   Giovanni Bistoni       : ED, misc. LED, open-shell LED, HFLD
   Martin Brehm           : Molecular dynamics
   Dmytro Bykov           : SCF Hessian
   Vijay G. Chilkuri      : MRCI spin determinant printing, contributions to CSF-ICE
   Dipayan Datta          : RHF DLPNO-CCSD density
   Achintya Kumar Dutta   : EOM-CC, STEOM-CC
   Dmitry Ganyushin       : Spin-Orbit,Spin-Spin,Magnetic field MRCI
   Miquel Garcia          : C-PCM and meta-GGA Hessian, CC/C-PCM, Gaussian charge scheme
   Yang Guo               : DLPNO-NEVPT2, F12-NEVPT2, CIM, IAO-localization
   Andreas Hansen         : Spin unrestricted coupled pair/coupled cluster methods
   Benjamin Helmich-Paris : MC-RPA, TRAH-SCF, COSX integrals
   Lee Huntington         : MR-EOM, pCC
   Robert Izsak           : Overlap fitted RIJCOSX, COSX-SCS-MP3, EOM
   Marcus Kettner         : VPT2
   Christian Kollmar      : KDIIS, OOCD, Brueckner-CCSD(T), CCSD density, CASPT2, CASPT2-K
   Simone Kossmann        : Meta GGA functionals, TD-DFT gradient, OOMP2, MP2 Hessian
   Martin Krupicka        : Initial AUTO-CI
   Lucas Lang             : DCDCAS
   Marvin Lechner         : AUTO-CI (C++ implementation), FIC-MRCC
   Dagmar Lenk            : GEPOL surface, SMD
   Dimitrios Liakos       : Extrapolation schemes; Compound Job, initial MDCI parallelization
   Dimitrios Manganas     : Further ROCIS development; embedding schemes
   Dimitrios Pantazis     : SARC Basis sets
   Anastasios Papadopoulos: AUTO-CI, single reference methods and gradients
   Taras Petrenko         : DFT Hessian,TD-DFT gradient, ASA, ECA, R-Raman, ABS, FL, XAS/XES, NRVS
   Peter Pinski           : DLPNO-MP2, DLPNO-MP2 Gradient
   Christoph Reimann      : Effective Core Potentials
   Marius Retegan         : Local ZFS, SOC
   Christoph Riplinger    : Optimizer, TS searches, QM/MM, DLPNO-CCSD(T), (RO)-DLPNO pert. Triples
   Tobias Risthaus        : Range-separated hybrids, TD-DFT gradient, RPA, STAB
   Michael Roemelt        : Original ROCIS implementation
   Masaaki Saitow         : Open-shell DLPNO-CCSD energy and density
   Barbara Sandhoefer     : DKH picture change effects
   Avijit Sen             : IP-ROCIS
   Kantharuban Sivalingam : CASSCF convergence, NEVPT2, FIC-MRCI
   Bernardo de Souza      : ESD, SOC TD-DFT
   Georgi Stoychev        : AutoAux, RI-MP2 NMR, DLPNO-MP2 response
   Willem Van den Heuvel  : Paramagnetic NMR
   Boris Wezisla          : Elementary symmetry handling
   Frank Wennmohs         : Technical directorship


 We gratefully acknowledge several colleagues who have allowed us to
 interface, adapt or use parts of their codes:
   Stefan Grimme, W. Hujo, H. Kruse, P. Pracht,  : VdW corrections, initial TS optimization,
                  C. Bannwarth, S. Ehlert          DFT functionals, gCP, sTDA/sTD-DF
   Ed Valeev, F. Pavosevic, A. Kumar             : LibInt (2-el integral package), F12 methods
   Garnet Chan, S. Sharma, J. Yang, R. Olivares  : DMRG
   Ulf Ekstrom                                   : XCFun DFT Library
   Mihaly Kallay                                 : mrcc  (arbitrary order and MRCC methods)
   Jiri Pittner, Ondrej Demel                    : Mk-CCSD
   Frank Weinhold                                : gennbo (NPA and NBO analysis)
   Christopher J. Cramer and Donald G. Truhlar   : smd solvation model
   Lars Goerigk                                  : TD-DFT with DH, B97 family of functionals
   V. Asgeirsson, H. Jonsson                     : NEB implementation
   FAccTs GmbH                                   : IRC, NEB, NEB-TS, DLPNO-Multilevel, CI-OPT
                                                   MM, QMMM, 2- and 3-layer-ONIOM, Crystal-QMMM,
                                                   LR-CPCM, SF, NACMEs, symmetry and pop. for TD-DFT,
                                                   nearIR, NL-DFT gradient (VV10), updates on ESD,
                                                   ML-optimized integration grids
   S Lehtola, MJT Oliveira, MAL Marques          : LibXC Library
   Liviu Ungur et al                             : ANISO software


 Your calculation uses the libint2 library for the computation of 2-el integrals
 For citations please refer to: http://libint.valeyev.net

 Your ORCA version has been built with support for libXC version: 5.1.0
 For citations please refer to: https://tddft.org/programs/libxc/

 This ORCA versions uses:
   CBLAS   interface :  Fast vector & matrix operations
   LAPACKE interface :  Fast linear algebra routines
   SCALAPACK package :  Parallel linear algebra routines
   Shared memory     :  Shared parallel matrices
   BLAS/LAPACK       :  OpenBLAS 0.3.15  USE64BITINT DYNAMIC_ARCH NO_AFFINITY Sandybridge SINGLE_THREADED
        Core in use  :  Sandybridge
   Copyright (c) 2011-2014, The OpenBLAS Project


Your calculation utilizes the atom-pairwise dispersion correction
with the Becke-Johnson damping scheme (D3BJ)
Cite in your paper:
S.Grimme, S.Ehrlich, L.Goerigk, J Comput Chem, (2011), 32, 1456–1465 
S.Grimme, J.Antony, S.Ehrlich and H.Krieg, J.Chem.Phys., 132, (2010), 154104 
   

Your calculation utilizes the SMD solvation module
Please cite in your paper:
A.V. Marenich, C.J. Cramer, D.G. Truhlar J. Phys. Chem. B, 113, (2009), 6378 

================================================================================

----- Orbital basis set information -----
Your calculation utilizes the basis: aug-cc-pVTZ 
    H, B-Ne : Obtained from the ccRepo (grant-hill.group.shef.ac.uk/ccrepo) Feb. 2017
              R. A. Kendall, T. H. Dunning, Jr., R. J. Harrison, J. Chem. Phys. 96, 6796 (1992)
         He : Obtained from the ccRepo (grant-hill.group.shef.ac.uk/ccrepo) Feb. 2017
              D. E. Woon, T. H. Dunning, Jr., J. Chem. Phys. 100, 2975 (1994)
  Li-Be, Na : Obtained from the ccRepo (grant-hill.group.shef.ac.uk/ccrepo) Feb. 2017
              B. P. Prascher, D. E. Woon, K. A. Peterson, T. H. Dunning, Jr., A. K. Wilson, Theor. Chem. Acc. 128, 69 (2011)
         Mg : Obtained from the Peterson Research Group Website (tyr0.chem.wsu.edu/~kipeters) Feb. 2017
              B. P. Prascher, D. E. Woon, K. A. Peterson, T. H. Dunning, Jr., A. K. Wilson, Theor. Chem. Acc. 128, 69 (2011)
      Al-Ar : Obtained from the ccRepo (grant-hill.group.shef.ac.uk/ccrepo) Feb. 2017
              D. E. Woon, T. H. Dunning, Jr., J. Chem. Phys. 98, 1358 (1993)
      Sc-Zn : Obtained from the ccRepo (grant-hill.group.shef.ac.uk/ccrepo) Feb. 2017
              N. B. Balabanov, K. A. Peterson, J. Chem. Phys. 123, 064107 (2005)
              N. B. Balabanov, K. A. Peterson, J. Chem. Phys. 125, 074110 (2006)
      Ga-Kr : Obtained from the ccRepo (grant-hill.group.shef.ac.uk/ccrepo) Feb. 2017
              A. K. Wilson, D. E. Woon, K. A. Peterson, T. H. Dunning, Jr., J. Chem. Phys. 110, 7667 (1999)
     Ag, Au : Obtained from the Peterson Research Group Website (tyr0.chem.wsu.edu/~kipeters) Feb. 2017
              K. A. Peterson, C. Puzzarini, Theor. Chem. Acc. 114, 283 (2005)

The basis set includes element-specific modifications.

Your calculation utilizes the basis: cc-pVTZ 
       H, B-Ne : Obtained from the ccRepo (grant-hill.group.shef.ac.uk/ccrepo) Feb. 2017
                 T. H. Dunning, Jr., J. Chem. Phys. 90, 1007 (1989)
            He : Obtained from the ccRepo (grant-hill.group.shef.ac.uk/ccrepo) Feb. 2017
                 D. E. Woon, T. H. Dunning, Jr., J. Chem. Phys. 100, 2975 (1994)
  Li-Be, Na-Mg : Obtained from the ccRepo (grant-hill.group.shef.ac.uk/ccrepo) Feb. 2017
                 B. P. Prascher, D. E. Woon, K. A. Peterson, T. H. Dunning, Jr., A. K. Wilson, Theor. Chem. Acc. 128, 69 (2011)
         Al-Ar : Obtained from the ccRepo (grant-hill.group.shef.ac.uk/ccrepo) Feb. 2017
                 D. E. Woon, T. H. Dunning, Jr., J. Chem. Phys. 98, 1358 (1993)
            Ca : Obtained from the Peterson Research Group Website (tyr0.chem.wsu.edu/~kipeters) Feb. 2017
                 J. Koput, K. A. Peterson, J. Phys. Chem. 106, 9595 (2002)
         Sc-Zn : Obtained from the ccRepo (grant-hill.group.shef.ac.uk/ccrepo) Feb. 2017
                 N. B. Balabanov, K. A. Peterson, J. Chem. Phys. 123, 064107 (2005)
                 N. B. Balabanov, K. A. Peterson, J. Chem. Phys. 125, 074110 (2006)
         Ga-Kr : Obtained from the ccRepo (grant-hill.group.shef.ac.uk/ccrepo) Feb. 2017
                 A. K. Wilson, D. E. Woon, K. A. Peterson, T. H. Dunning, Jr., J. Chem. Phys. 110, 7667 (1999)
             Y : Obtained from the ccRepo (grant-hill.group.shef.ac.uk/ccrepo) Feb. 2017
                 K. A. Peterson, D. Figgen, M. Dolg, H. Stoll, J. Chem. Phys. 126, 124101 (2007)
        Ag, Au : Obtained from the Peterson Research Group Website (tyr0.chem.wsu.edu/~kipeters) Feb. 2017
                 K. A. Peterson, C. Puzzarini, Theor. Chem. Acc. 114, 283 (2005)

----- AuxJ basis set information -----
Your calculation utilizes the auxiliary basis: aug-cc-pVTZ/JK 
  H, B-F, Al-Cl, Ga-Br : Obtained from the TURBOMOLE 7.0 basis set library

The basis set includes element-specific modifications.

Your calculation utilizes the auxiliary basis: cc-pVTZ/JK 
  H, B-F, Al-Cl, Ga-Br : Obtained from the TURBOMOLE 7.0 basis set library

----- AuxC basis set information -----
Your calculation utilizes the auxiliary basis: aug-cc-pVTZ/C 
  H-He, B-F, Al-Ar, Ga-Kr : Obtained from the EMSL Basis Set Exchange (bse.pnl.gov) Feb. 2017
                            F. Weigend, A. Kohn, C. Hattig, J. Chem. Phys. 116, 3175 (2002)
                   Be, Mg : Obtained from the TURBOMOLE 7.0 basis set library
                            C. Haettig, Phys. Chem. Chem. Phys. 7, 59 (2005)
                       Ne : Obtained from the EMSL Basis Set Exchange (bse.pnl.gov) Feb. 2017
                            C. Haettig, Phys. Chem. Chem. Phys. 7, 59 (2005)
                            F. Weigend, A. Kohn, C. Hattig, J. Chem. Phys. 116, 3175 (2002)
                    Sc-Zn : Obtained from the EMSL Basis Set Exchange (bse.pnl.gov) Feb. 2017
                            J. G. Hill, J. A. Platts, J. Chem. Phys. 128, 044104 (2008)

The basis set includes element-specific modifications.

Your calculation utilizes the auxiliary basis: cc-pVTZ/C 
  Obtained from the EMSL Basis Set Exchange (bse.pnl.gov) Feb. 2017
  H-He, B-F, Al-Ar, Ga-Kr : F. Weigend, A. Kohn, C. Hattig, J. Chem. Phys. 116, 3175 (2002)
             Li-Be, Na-Mg : C. Haettig, Phys. Chem. Chem. Phys. 7, 59 (2005)
                       Ne : C. Haettig, Phys. Chem. Chem. Phys. 7, 59 (2005)
                            F. Weigend, A. Kohn, C. Hattig, J. Chem. Phys. 116, 3175 (2002)
                    Sc-Zn : J. G. Hill, J. A. Platts, J. Chem. Phys. 128, 044104 (2008)

================================================================================
                                        WARNINGS
                       Please study these warnings very carefully!
================================================================================


WARNING: Geometry Optimization
  ===> : Switching off AutoStart
         For restart on a previous wavefunction, please use MOREAD

INFO   : the flag for use of the SHARK integral package has been found!



***************************************
The coordinates will be read from file: 
***************************************


Your calculation utilizes the atom-pairwise dispersion correction
with the Becke-Johnson damping scheme (D3BJ)
Cite in your paper:
S.Grimme, S.Ehrlich, L.Goerigk, J Comput Chem, (2011), 32, 1456–1465 
S.Grimme, J.Antony, S.Ehrlich and H.Krieg, J.Chem.Phys., 132, (2010), 154104 
   

Your calculation utilizes the SMD solvation module
Please cite in your paper:
A.V. Marenich, C.J. Cramer, D.G. Truhlar J. Phys. Chem. B, 113, (2009), 6378 

================================================================================

----- Orbital basis set information -----
Your calculation utilizes the basis: aug-cc-pVTZ 
    H, B-Ne : Obtained from the ccRepo (grant-hill.group.shef.ac.uk/ccrepo) Feb. 2017
              R. A. Kendall, T. H. Dunning, Jr., R. J. Harrison, J. Chem. Phys. 96, 6796 (1992)
         He : Obtained from the ccRepo (grant-hill.group.shef.ac.uk/ccrepo) Feb. 2017
              D. E. Woon, T. H. Dunning, Jr., J. Chem. Phys. 100, 2975 (1994)
  Li-Be, Na : Obtained from the ccRepo (grant-hill.group.shef.ac.uk/ccrepo) Feb. 2017
              B. P. Prascher, D. E. Woon, K. A. Peterson, T. H. Dunning, Jr., A. K. Wilson, Theor. Chem. Acc. 128, 69 (2011)
         Mg : Obtained from the Peterson Research Group Website (tyr0.chem.wsu.edu/~kipeters) Feb. 2017
              B. P. Prascher, D. E. Woon, K. A. Peterson, T. H. Dunning, Jr., A. K. Wilson, Theor. Chem. Acc. 128, 69 (2011)
      Al-Ar : Obtained from the ccRepo (grant-hill.group.shef.ac.uk/ccrepo) Feb. 2017
              D. E. Woon, T. H. Dunning, Jr., J. Chem. Phys. 98, 1358 (1993)
      Sc-Zn : Obtained from the ccRepo (grant-hill.group.shef.ac.uk/ccrepo) Feb. 2017
              N. B. Balabanov, K. A. Peterson, J. Chem. Phys. 123, 064107 (2005)
              N. B. Balabanov, K. A. Peterson, J. Chem. Phys. 125, 074110 (2006)
      Ga-Kr : Obtained from the ccRepo (grant-hill.group.shef.ac.uk/ccrepo) Feb. 2017
              A. K. Wilson, D. E. Woon, K. A. Peterson, T. H. Dunning, Jr., J. Chem. Phys. 110, 7667 (1999)
     Ag, Au : Obtained from the Peterson Research Group Website (tyr0.chem.wsu.edu/~kipeters) Feb. 2017
              K. A. Peterson, C. Puzzarini, Theor. Chem. Acc. 114, 283 (2005)

The basis set includes element-specific modifications.

Your calculation utilizes the basis: cc-pVTZ 
       H, B-Ne : Obtained from the ccRepo (grant-hill.group.shef.ac.uk/ccrepo) Feb. 2017
                 T. H. Dunning, Jr., J. Chem. Phys. 90, 1007 (1989)
            He : Obtained from the ccRepo (grant-hill.group.shef.ac.uk/ccrepo) Feb. 2017
                 D. E. Woon, T. H. Dunning, Jr., J. Chem. Phys. 100, 2975 (1994)
  Li-Be, Na-Mg : Obtained from the ccRepo (grant-hill.group.shef.ac.uk/ccrepo) Feb. 2017
                 B. P. Prascher, D. E. Woon, K. A. Peterson, T. H. Dunning, Jr., A. K. Wilson, Theor. Chem. Acc. 128, 69 (2011)
         Al-Ar : Obtained from the ccRepo (grant-hill.group.shef.ac.uk/ccrepo) Feb. 2017
                 D. E. Woon, T. H. Dunning, Jr., J. Chem. Phys. 98, 1358 (1993)
            Ca : Obtained from the Peterson Research Group Website (tyr0.chem.wsu.edu/~kipeters) Feb. 2017
                 J. Koput, K. A. Peterson, J. Phys. Chem. 106, 9595 (2002)
         Sc-Zn : Obtained from the ccRepo (grant-hill.group.shef.ac.uk/ccrepo) Feb. 2017
                 N. B. Balabanov, K. A. Peterson, J. Chem. Phys. 123, 064107 (2005)
                 N. B. Balabanov, K. A. Peterson, J. Chem. Phys. 125, 074110 (2006)
         Ga-Kr : Obtained from the ccRepo (grant-hill.group.shef.ac.uk/ccrepo) Feb. 2017
                 A. K. Wilson, D. E. Woon, K. A. Peterson, T. H. Dunning, Jr., J. Chem. Phys. 110, 7667 (1999)
             Y : Obtained from the ccRepo (grant-hill.group.shef.ac.uk/ccrepo) Feb. 2017
                 K. A. Peterson, D. Figgen, M. Dolg, H. Stoll, J. Chem. Phys. 126, 124101 (2007)
        Ag, Au : Obtained from the Peterson Research Group Website (tyr0.chem.wsu.edu/~kipeters) Feb. 2017
                 K. A. Peterson, C. Puzzarini, Theor. Chem. Acc. 114, 283 (2005)

----- AuxJ basis set information -----
Your calculation utilizes the auxiliary basis: aug-cc-pVTZ/JK 
  H, B-F, Al-Cl, Ga-Br : Obtained from the TURBOMOLE 7.0 basis set library

The basis set includes element-specific modifications.

Your calculation utilizes the auxiliary basis: cc-pVTZ/JK 
  H, B-F, Al-Cl, Ga-Br : Obtained from the TURBOMOLE 7.0 basis set library

----- AuxC basis set information -----
Your calculation utilizes the auxiliary basis: aug-cc-pVTZ/C 
  H-He, B-F, Al-Ar, Ga-Kr : Obtained from the EMSL Basis Set Exchange (bse.pnl.gov) Feb. 2017
                            F. Weigend, A. Kohn, C. Hattig, J. Chem. Phys. 116, 3175 (2002)
                   Be, Mg : Obtained from the TURBOMOLE 7.0 basis set library
                            C. Haettig, Phys. Chem. Chem. Phys. 7, 59 (2005)
                       Ne : Obtained from the EMSL Basis Set Exchange (bse.pnl.gov) Feb. 2017
                            C. Haettig, Phys. Chem. Chem. Phys. 7, 59 (2005)
                            F. Weigend, A. Kohn, C. Hattig, J. Chem. Phys. 116, 3175 (2002)
                    Sc-Zn : Obtained from the EMSL Basis Set Exchange (bse.pnl.gov) Feb. 2017
                            J. G. Hill, J. A. Platts, J. Chem. Phys. 128, 044104 (2008)

The basis set includes element-specific modifications.

Your calculation utilizes the auxiliary basis: cc-pVTZ/C 
  Obtained from the EMSL Basis Set Exchange (bse.pnl.gov) Feb. 2017
  H-He, B-F, Al-Ar, Ga-Kr : F. Weigend, A. Kohn, C. Hattig, J. Chem. Phys. 116, 3175 (2002)
             Li-Be, Na-Mg : C. Haettig, Phys. Chem. Chem. Phys. 7, 59 (2005)
                       Ne : C. Haettig, Phys. Chem. Chem. Phys. 7, 59 (2005)
                            F. Weigend, A. Kohn, C. Hattig, J. Chem. Phys. 116, 3175 (2002)
                    Sc-Zn : J. G. Hill, J. A. Platts, J. Chem. Phys. 128, 044104 (2008)

================================================================================
                                        WARNINGS
                       Please study these warnings very carefully!
================================================================================

INFO   : Checking CIS options ...
  ===> : (D) CORRECTION FOUND - SETTING MODE=3
  ===> : JK MODE FOUND - ACTIVATING RI-MP2 CODE
  ===> : MP2 AND CIS FOUND - CHECKING
WARNING: CIS(D) and MP2 runs must have the same orbital window
  ===> : adjusting orbital windows

WARNING: No MP2 level density has been requested!
         To caclulate MP2 level properties use
         %mp2 Density relaxed end
         or
         %mp2 Density unrelaxed end
         Otherwise for double-hybrid DFT only the energy is correct!

WARNING: The frozen-core approximation is turned on by default for 
         the MP2 part of double-hybrid DFT.

INFO   : the flag for use of the SHARK integral package has been found!

================================================================================
                                       INPUT FILE
================================================================================
NAME = optpbed3-b2gp-plyp-train-8.inp
|  1> ! pbe0 d3bj aug-cc-PVTZ RIJCOSX Opt
|  2> %maxcore 4000
|  3> %basis
|  4>  AuxJ "aug-cc-PVTZ/JK"
|  5>  AuxC "aug-cc-PVTZ/C"
|  6>  newGTO H "cc-PVTZ" end
|  7>  newAuxJGTO H "cc-PVTZ/JK" end
|  8>  newAuxCGTO H "cc-PVTZ/C" end
|  9> end
| 10> %cpcm
| 11>  SMD true
| 12>  SMDsolvent "dichloromethane"
| 13> end
| 14> %pal nprocs 4 end
| 15> * xyz 0 1
| 16> N          5.18490        2.63730       -4.83100
| 17> C          4.41990        2.18600       -4.10520
| 18> C          3.47960        1.62540       -3.21360
| 19> C          3.81050        0.48660       -2.47740
| 20> C          2.89070       -0.06950       -1.61400
| 21> C          1.61870        0.49270       -1.47470
| 22> C          0.61840       -0.03480       -0.57060
| 23> N         -0.23240        0.73970        0.07850
| 24> C         -0.98250       -0.03610        0.88210
| 25> C         -1.98970        0.53960        1.75660
| 26> C         -2.34920       -0.05530        2.96470
| 27> C         -3.31410        0.52360        3.76750
| 28> C         -3.92820        1.70400        3.38340
| 29> C         -3.56060        2.31420        2.19460
| 30> C         -2.59840        1.73970        1.38830
| 31> C         -0.61200       -1.37630        0.69960
| 32> C         -1.07960       -2.61750        1.16040
| 33> C         -0.51410       -3.76710        0.69320
| 34> C          0.51450       -3.70090       -0.27770
| 35> C          0.95240       -2.50220       -0.73580
| 36> N          0.42230       -1.34920       -0.24000
| 37> C          1.30890        1.65410       -2.19150
| 38> C          2.22270        2.21520       -3.05360
| 39> H          4.79400        0.05190       -2.58240
| 40> H          3.18170       -0.91920       -1.01440
| 41> H         -1.85040       -0.95500        3.29260
| 42> H         -3.58420        0.05460        4.70290
| 43> H         -4.68310        2.15140        4.01310
| 44> H         -4.02820        3.24160        1.89740
| 45> H         -2.29980        2.20590        0.46230
| 46> H         -1.89870       -2.63830        1.86010
| 47> H         -0.85840       -4.73030        1.03380
| 48> H          0.93860       -4.60940       -0.67300
| 49> H          1.69130       -2.40820       -1.51490
| 50> H          0.33660        2.09850       -2.05020
| 51> H          1.97830        3.10720       -3.61130
| 52> *
| 53> 
| 54> 
| 55> $new_job
| 56> ! b2gp-plyp aug-cc-PVTZ RIJCOSX SP
| 57> %maxcore 4000
| 58> %basis
| 59>  AuxJ "aug-cc-PVTZ/JK"
| 60>  AuxC "aug-cc-PVTZ/C"
| 61>  newGTO H "cc-PVTZ" end
| 62>  newAuxJGTO H "cc-PVTZ/JK" end
| 63>  newAuxCGTO H "cc-PVTZ/C" end
| 64> end
| 65> %cpcm
| 66>  SMD true
| 67>  SMDsolvent "dichloromethane"
| 68> end
| 69> %pal nprocs 4 end
| 70> %tddft
| 71>  nroots 10
| 72>  maxdim 7
| 73> end
| 74> * xyzfile 0 1
| 75> 
| 76>                          ****END OF INPUT****
================================================================================


                 $$$$$$$$$$$$$$$$$$$$$$$$$$$$$$$$$$$$$$$$$$$$$$ 
                 $ THERE ARE  2 JOBS TO BE PROCESSED THIS RUN $
                 $$$$$$$$$$$$$$$$$$$$$$$$$$$$$$$$$$$$$$$$$$$$$$ 




                 $$$$$$$$$$$$$$$$  JOB NUMBER  1 $$$$$$$$$$$$$$


                       *****************************
                       * Geometry Optimization Run *
                       *****************************

Geometry optimization settings:
Update method            Update   .... BFGS
Choice of coordinates    CoordSys .... Z-matrix Internals
Initial Hessian          InHess   .... Almoef's Model

Convergence Tolerances:
Energy Change            TolE     ....  5.0000e-06 Eh
Max. Gradient            TolMAXG  ....  3.0000e-04 Eh/bohr
RMS Gradient             TolRMSG  ....  1.0000e-04 Eh/bohr
Max. Displacement        TolMAXD  ....  4.0000e-03 bohr
RMS Displacement         TolRMSD  ....  2.0000e-03 bohr
Strict Convergence                ....  False
------------------------------------------------------------------------------
                        ORCA OPTIMIZATION COORDINATE SETUP
------------------------------------------------------------------------------

The optimization will be done in new redundant internal coordinates
Making redundant internal coordinates   ...  (new redundants) done
Evaluating the initial hessian          ...  (Almloef) done
Evaluating the coordinates              ...  done
Calculating the B-matrix                .... done
Calculating the G-matrix                .... done
Diagonalizing the G-matrix              .... done
Small eigenvalue found = 3.244e-03
Small eigenvalue found = 9.716e-03
Small eigenvalue found = 1.644e-02
The first mode is                       ....   92
The number of degrees of freedom        ....  102

    -----------------------------------------------------------------
                    Redundant Internal Coordinates


    -----------------------------------------------------------------
         Definition                    Initial Value    Approx d2E/dq
    -----------------------------------------------------------------
      1. B(C   1,N   0)                  1.1470         1.366204   
      2. B(C   2,C   1)                  1.4119         0.576555   
      3. B(C   3,C   2)                  1.3958         0.611550   
      4. B(C   4,C   3)                  1.3787         0.651344   
      5. B(C   5,C   4)                  1.3977         0.607457   
      6. B(C   6,C   5)                  1.4478         0.505186   
      7. B(N   7,C   6)                  1.3210         0.721041   
      8. B(C   8,N   7)                  1.3455         0.659054   
      9. B(C   9,C   8)                  1.4528         0.496070   
     10. B(C  10,C   9)                  1.3938         0.616157   
     11. B(C  11,C  10)                  1.3823         0.642815   
     12. B(C  12,C  11)                  1.3849         0.636572   
     13. B(C  13,C  12)                  1.3859         0.634278   
     14. B(C  14,C  13)                  1.3806         0.646798   
     15. B(C  14,C   9)                  1.3951         0.613122   
     16. B(C  15,C   8)                  1.4024         0.596984   
     17. B(C  16,C  15)                  1.4041         0.593205   
     18. B(C  17,C  16)                  1.3637         0.688204   
     19. B(C  18,C  17)                  1.4160         0.567887   
     20. B(C  19,C  18)                  1.3559         0.708151   
     21. B(N  20,C  19)                  1.3624         0.619229   
     22. B(N  20,C  15)                  1.3976         0.544137   
     23. B(N  20,C   6)                  1.3695         0.603474   
     24. B(C  21,C   5)                  1.3995         0.603345   
     25. B(C  22,C  21)                  1.3759         0.658031   
     26. B(C  22,C   2)                  1.3976         0.607613   
     27. B(H  23,C   3)                  1.0804         0.373028   
     28. B(H  24,C   4)                  1.0799         0.373707   
     29. B(H  25,C  10)                  1.0797         0.373969   
     30. B(H  26,C  11)                  1.0807         0.372631   
     31. B(H  27,C  12)                  1.0801         0.373471   
     32. B(H  28,C  13)                  1.0803         0.373163   
     33. B(H  29,C  14)                  1.0789         0.375116   
     34. B(H  30,C  16)                  1.0775         0.377066   
     35. B(H  31,C  17)                  1.0781         0.376188   
     36. B(H  32,C  18)                  1.0777         0.376707   
     37. B(H  33,C  19)                  1.0779         0.376508   
     38. B(H  34,C  21)                  1.0783         0.375855   
     39. B(H  35,C  22)                  1.0800         0.373559   
     40. L(N   0,C   1,C   2,C   3, 1) 179.8343         0.491563   
     41. L(N   0,C   1,C   2,C   3, 2) 180.3074         0.491563   
     42. A(C   1,C   2,C  22)          120.2439         0.426891   
     43. A(C   3,C   2,C  22)          119.8095         0.431428   
     44. A(C   1,C   2,C   3)          119.9427         0.427386   
     45. A(C   4,C   3,H  23)          120.3910         0.358010   
     46. A(C   2,C   3,C   4)          120.0812         0.436857   
     47. A(C   2,C   3,H  23)          119.5250         0.354199   
     48. A(C   5,C   4,H  24)          120.4243         0.353906   
     49. A(C   3,C   4,C   5)          120.4873         0.436329   
     50. A(C   3,C   4,H  24)          119.0330         0.358121   
     51. A(C   4,C   5,C   6)          122.9876         0.416916   
     52. A(C   6,C   5,C  21)          117.9849         0.416412   
     53. A(C   4,C   5,C  21)          118.9614         0.430363   
     54. A(C   5,C   6,N  20)          126.8247         0.413734   
     55. A(N   7,C   6,N  20)          110.6024         0.438068   
     56. A(C   5,C   6,N   7)          122.5610         0.427083   
     57. A(C   6,N   7,C   8)          108.3294         0.445099   
     58. A(C   9,C   8,C  15)          129.8057         0.414284   
     59. A(N   7,C   8,C  15)          109.0273         0.433033   
     60. A(N   7,C   8,C   9)          121.1669         0.418912   
     61. A(C  10,C   9,C  14)          118.9101         0.432712   
     62. A(C   8,C   9,C  14)          118.9762         0.416254   
     63. A(C   8,C   9,C  10)          122.1019         0.416620   
     64. A(C   9,C  10,H  25)          119.9825         0.354802   
     65. A(C   9,C  10,C  11)          120.3118         0.436411   
     66. A(C  11,C  10,H  25)          119.6755         0.357362   
     67. A(C  12,C  11,H  26)          119.9423         0.356553   
     68. A(C  10,C  11,C  12)          120.3589         0.438983   
     69. A(C  10,C  11,H  26)          119.6974         0.357144   
     70. A(C  11,C  12,C  13)          119.7066         0.437926   
     71. A(C  13,C  12,H  27)          120.2056         0.356471   
     72. A(C  11,C  12,H  27)          120.0849         0.356689   
     73. A(C  12,C  13,H  28)          119.9438         0.356421   
     74. A(C  14,C  13,H  28)          119.8831         0.357606   
     75. A(C  12,C  13,C  14)          120.1731         0.439187   
     76. A(C  13,C  14,H  29)          120.9541         0.357924   
     77. A(C   9,C  14,H  29)          118.5244         0.354689   
     78. A(C   9,C  14,C  13)          120.5215         0.436508   
     79. A(C  16,C  15,N  20)          118.9610         0.417959   
     80. A(C   8,C  15,C  16)          135.5676         0.427720   
     81. A(C   8,C  15,N  20)          105.3354         0.418432   
     82. A(C  17,C  16,H  30)          121.4299         0.362048   
     83. A(C  15,C  16,H  30)          118.9040         0.353020   
     84. A(C  15,C  16,C  17)          119.6474         0.438799   
     85. A(C  18,C  17,H  31)          119.3651         0.350288   
     86. A(C  16,C  17,H  31)          120.8300         0.361904   
     87. A(C  16,C  17,C  18)          119.7839         0.435362   
     88. A(C  19,C  18,H  32)          119.6190         0.363760   
     89. A(C  17,C  18,H  32)          119.8637         0.350370   
     90. A(C  17,C  18,C  19)          120.5032         0.437610   
     91. A(N  20,C  19,H  33)          117.1265         0.353316   
     92. A(C  18,C  19,H  33)          122.8673         0.363727   
     93. A(C  18,C  19,N  20)          119.9704         0.441581   
     94. A(C  15,N  20,C  19)          121.0761         0.418438   
     95. A(C   6,N  20,C  19)          131.9662         0.426247   
     96. A(C   6,N  20,C  15)          106.6711         0.416522   
     97. A(C  22,C  21,H  34)          120.8557         0.359094   
     98. A(C   5,C  21,H  34)          118.3254         0.353842   
     99. A(C   5,C  21,C  22)          120.8188         0.436598   
    100. A(C  21,C  22,H  35)          120.6689         0.358720   
    101. A(C   2,C  22,H  35)          119.5342         0.353897   
    102. A(C   2,C  22,C  21)          119.7968         0.437153   
    103. D(H  23,C   3,C   2,C   1)      1.1283         0.025837   
    104. D(H  23,C   3,C   2,C  22)   -178.1565         0.025837   
    105. D(C   4,C   3,C   2,C  22)      1.2392         0.025837   
    106. D(C   4,C   3,C   2,C   1)   -179.4760         0.025837   
    107. D(C   5,C   4,C   3,H  23)    179.8778         0.029548   
    108. D(H  24,C   4,C   3,H  23)      2.5713         0.029548   
    109. D(H  24,C   4,C   3,C   2)   -176.8191         0.029548   
    110. D(C   5,C   4,C   3,C   2)      0.4874         0.029548   
    111. D(C   6,C   5,C   4,H  24)     -1.8143         0.025473   
    112. D(C  21,C   5,C   4,H  24)    175.1657         0.025473   
    113. D(C  21,C   5,C   4,C   3)     -2.1031         0.025473   
    114. D(C   6,C   5,C   4,C   3)   -179.0831         0.025473   
    115. D(N  20,C   6,C   5,C   4)    -33.7883         0.017388   
    116. D(N   7,C   6,C   5,C   4)    144.8359         0.017388   
    117. D(N   7,C   6,C   5,C  21)    -32.1719         0.017388   
    118. D(N  20,C   6,C   5,C  21)    149.2039         0.017388   
    119. D(C   8,N   7,C   6,N  20)      1.8340         0.039162   
    120. D(C   8,N   7,C   6,C   5)   -176.9896         0.039162   
    121. D(C  15,C   8,N   7,C   6)     -1.8723         0.032175   
    122. D(C   9,C   8,N   7,C   6)    178.2378         0.032175   
    123. D(C  14,C   9,C   8,C  15)   -151.8989         0.016759   
    124. D(C  10,C   9,C   8,C  15)     29.3619         0.016759   
    125. D(C  14,C   9,C   8,N   7)     27.9655         0.016759   
    126. D(C  10,C   9,C   8,N   7)   -150.7737         0.016759   
    127. D(H  25,C  10,C   9,C  14)   -176.6379         0.026251   
    128. D(H  25,C  10,C   9,C   8)      2.1022         0.026251   
    129. D(C  11,C  10,C   9,C  14)      1.3575         0.026251   
    130. D(C  11,C  10,C   9,C   8)   -179.9024         0.026251   
    131. D(H  26,C  11,C  10,C   9)   -179.9135         0.028726   
    132. D(C  12,C  11,C  10,H  25)    177.6519         0.028726   
    133. D(C  12,C  11,C  10,C   9)     -0.3497         0.028726   
    134. D(H  26,C  11,C  10,H  25)     -1.9119         0.028726   
    135. D(H  27,C  12,C  11,H  26)     -0.5667         0.028134   
    136. D(H  27,C  12,C  11,C  10)    179.8706         0.028134   
    137. D(C  13,C  12,C  11,H  26)    178.8227         0.028134   
    138. D(C  13,C  12,C  11,C  10)     -0.7400         0.028134   
    139. D(H  28,C  13,C  12,H  27)      0.1630         0.027919   
    140. D(C  14,C  13,C  12,H  27)   -179.8098         0.027919   
    141. D(C  14,C  13,C  12,C  11)      0.8015         0.027919   
    142. D(H  28,C  13,C  12,C  11)   -179.2257         0.027919   
    143. D(H  29,C  14,C  13,H  28)      0.2777         0.029108   
    144. D(C   9,C  14,C  13,H  28)   -179.7474         0.029108   
    145. D(C   9,C  14,C  13,C  12)      0.2254         0.029108   
    146. D(H  29,C  14,C   9,C  10)    178.6780         0.025978   
    147. D(H  29,C  14,C   9,C   8)     -0.1020         0.025978   
    148. D(H  29,C  14,C  13,C  12)   -179.7495         0.029108   
    149. D(C  13,C  14,C   9,C  10)     -1.2975         0.025978   
    150. D(C  13,C  14,C   9,C   8)    179.9225         0.025978   
    151. D(N  20,C  15,C   8,C   9)   -178.9291         0.024555   
    152. D(N  20,C  15,C   8,N   7)      1.1937         0.024555   
    153. D(C  16,C  15,C   8,C   9)      5.5642         0.024555   
    154. D(C  16,C  15,C   8,N   7)   -174.3130         0.024555   
    155. D(H  30,C  16,C  15,N  20)   -178.0038         0.024230   
    156. D(H  30,C  16,C  15,C   8)     -2.9575         0.024230   
    157. D(C  17,C  16,C  15,N  20)      0.4438         0.024230   
    158. D(C  17,C  16,C  15,C   8)    175.4901         0.024230   
    159. D(H  31,C  17,C  16,H  30)     -1.5758         0.033264   
    160. D(H  31,C  17,C  16,C  15)   -179.9830         0.033264   
    161. D(C  18,C  17,C  16,H  30)    176.7475         0.033264   
    162. D(C  18,C  17,C  16,C  15)     -1.6598         0.033264   
    163. D(H  32,C  18,C  17,C  16)   -177.8789         0.022115   
    164. D(C  19,C  18,C  17,H  31)    179.0957         0.022115   
    165. D(C  19,C  18,C  17,C  16)      0.7477         0.022115   
    166. D(H  32,C  18,C  17,H  31)      0.4691         0.022115   
    167. D(H  33,C  19,C  18,H  32)      2.3116         0.035389   
    168. D(H  33,C  19,C  18,C  17)   -176.3184         0.035389   
    169. D(N  20,C  19,C  18,H  32)   -179.9271         0.035389   
    170. D(N  20,C  19,C  18,C  17)      1.4430         0.035389   
    171. D(C  15,N  20,C  19,H  33)    175.1871         0.031043   
    172. D(C   6,N  20,C  19,H  33)      2.2182         0.031043   
    173. D(C   6,N  20,C  19,C  18)   -175.6692         0.031043   
    174. D(C  19,N  20,C  15,C  16)      1.7607         0.023573   
    175. D(C  19,N  20,C  15,C   8)   -174.6455         0.023573   
    176. D(C   6,N  20,C  15,C  16)    176.3088         0.023573   
    177. D(C   6,N  20,C  15,C   8)     -0.0973         0.023573   
    178. D(C  19,N  20,C   6,N   7)    172.6553         0.029369   
    179. D(C  19,N  20,C   6,C   5)     -8.5834         0.029369   
    180. D(C  15,N  20,C  19,C  18)     -2.7003         0.031043   
    181. D(C  15,N  20,C   6,N   7)     -1.0616         0.029369   
    182. D(C  15,N  20,C   6,C   5)    177.6997         0.029369   
    183. D(H  34,C  21,C   5,C   6)     -0.7738         0.025110   
    184. D(H  34,C  21,C   5,C   4)   -177.9054         0.025110   
    185. D(C  22,C  21,C   5,C   6)    179.1588         0.025110   
    186. D(C  22,C  21,C   5,C   4)      2.0273         0.025110   
    187. D(H  35,C  22,C  21,H  34)     -0.5438         0.030202   
    188. D(H  35,C  22,C  21,C   5)    179.5253         0.030202   
    189. D(C   2,C  22,C  21,H  34)    179.6031         0.030202   
    190. D(C   2,C  22,C  21,C   5)     -0.3278         0.030202   
    191. D(H  35,C  22,C   2,C   3)    178.8277         0.025487   
    192. D(H  35,C  22,C   2,C   1)     -0.4550         0.025487   
    193. D(C  21,C  22,C   2,C   3)     -1.3175         0.025487   
    194. D(C  21,C  22,C   2,C   1)    179.3998         0.025487   
    -----------------------------------------------------------------

Number of atoms                         .... 36
Number of degrees of freedom            .... 194

         *************************************************************
         *                GEOMETRY OPTIMIZATION CYCLE   1            *
         *************************************************************
---------------------------------
CARTESIAN COORDINATES (ANGSTROEM)
---------------------------------
  N      5.184900    2.637300   -4.831000
  C      4.419900    2.186000   -4.105200
  C      3.479600    1.625400   -3.213600
  C      3.810500    0.486600   -2.477400
  C      2.890700   -0.069500   -1.614000
  C      1.618700    0.492700   -1.474700
  C      0.618400   -0.034800   -0.570600
  N     -0.232400    0.739700    0.078500
  C     -0.982500   -0.036100    0.882100
  C     -1.989700    0.539600    1.756600
  C     -2.349200   -0.055300    2.964700
  C     -3.314100    0.523600    3.767500
  C     -3.928200    1.704000    3.383400
  C     -3.560600    2.314200    2.194600
  C     -2.598400    1.739700    1.388300
  C     -0.612000   -1.376300    0.699600
  C     -1.079600   -2.617500    1.160400
  C     -0.514100   -3.767100    0.693200
  C      0.514500   -3.700900   -0.277700
  C      0.952400   -2.502200   -0.735800
  N      0.422300   -1.349200   -0.240000
  C      1.308900    1.654100   -2.191500
  C      2.222700    2.215200   -3.053600
  H      4.794000    0.051900   -2.582400
  H      3.181700   -0.919200   -1.014400
  H     -1.850400   -0.955000    3.292600
  H     -3.584200    0.054600    4.702900
  H     -4.683100    2.151400    4.013100
  H     -4.028200    3.241600    1.897400
  H     -2.299800    2.205900    0.462300
  H     -1.898700   -2.638300    1.860100
  H     -0.858400   -4.730300    1.033800
  H      0.938600   -4.609400   -0.673000
  H      1.691300   -2.408200   -1.514900
  H      0.336600    2.098500   -2.050200
  H      1.978300    3.107200   -3.611300

----------------------------
CARTESIAN COORDINATES (A.U.)
----------------------------
  NO LB      ZA    FRAG     MASS         X           Y           Z
   0 N     7.0000    0    14.007    9.798041    4.983775   -9.129267
   1 C     6.0000    0    12.011    8.352401    4.130941   -7.757704
   2 C     6.0000    0    12.011    6.575491    3.071561   -6.072824
   3 C     6.0000    0    12.011    7.200801    0.919541   -4.681608
   4 C     6.0000    0    12.011    5.462631   -0.131336   -3.050018
   5 C     6.0000    0    12.011    3.058900    0.931068   -2.786779
   6 C     6.0000    0    12.011    1.168607   -0.065762   -1.078278
   7 N     7.0000    0    14.007   -0.439172    1.397830    0.148344
   8 C     6.0000    0    12.011   -1.856656   -0.068219    1.666927
   9 C     6.0000    0    12.011   -3.759988    1.019696    3.319493
  10 C     6.0000    0    12.011   -4.439345   -0.104502    5.602471
  11 C     6.0000    0    12.011   -6.262741    0.989461    7.119543
  12 C     6.0000    0    12.011   -7.423222    3.220093    6.393699
  13 C     6.0000    0    12.011   -6.728559    4.373204    4.147193
  14 C     6.0000    0    12.011   -4.910264    3.287557    2.623507
  15 C     6.0000    0    12.011   -1.156512   -2.600830    1.322052
  16 C     6.0000    0    12.011   -2.040148   -4.946358    2.192838
  17 C     6.0000    0    12.011   -0.971508   -7.118787    1.309958
  18 C     6.0000    0    12.011    0.972264   -6.993687   -0.524777
  19 C     6.0000    0    12.011    1.799775   -4.728473   -1.390460
  20 N     7.0000    0    14.007    0.798031   -2.549618   -0.453534
  21 C     6.0000    0    12.011    2.473463    3.125796   -4.141335
  22 C     6.0000    0    12.011    4.200294    4.186121   -5.770468
  23 H     1.0000    0     1.008    9.059347    0.098077   -4.880029
  24 H     1.0000    0     1.008    6.012542   -1.737036   -1.916938
  25 H     1.0000    0     1.008   -3.496749   -1.804688    6.222112
  26 H     1.0000    0     1.008   -6.773156    0.103179    8.887193
  27 H     1.0000    0     1.008   -8.849776    4.065557    7.583660
  28 H     1.0000    0     1.008   -7.612195    6.125736    3.585566
  29 H     1.0000    0     1.008   -4.345992    4.168547    0.873620
  30 H     1.0000    0     1.008   -3.588023   -4.985664    3.515080
  31 H     1.0000    0     1.008   -1.622141   -8.938972    1.953599
  32 H     1.0000    0     1.008    1.773697   -8.710504   -1.271786
  33 H     1.0000    0     1.008    3.196094   -4.550838   -2.862746
  34 H     1.0000    0     1.008    0.636082    3.965590   -3.874317
  35 H     1.0000    0     1.008    3.738445    5.871757   -6.824368

--------------------------------
INTERNAL COORDINATES (ANGSTROEM)
--------------------------------
 N      0   0   0     0.000000000000     0.00000000     0.00000000
 C      1   0   0     1.147031965553     0.00000000     0.00000000
 C      2   1   0     1.411873581451   179.77426088     0.00000000
 C      3   2   1     1.395833331741   119.94267171    42.91912473
 C      4   3   2     1.378672843716   120.08120920   180.52399094
 C      5   4   3     1.397661378875   120.48733929     0.48738086
 C      6   5   4     1.447844311382   122.98760458   180.91691956
 N      7   6   5     1.321000264951   122.56101179   144.83593418
 C      8   7   6     1.345469661494   108.32938227   183.01044991
 C      9   8   7     1.452801631332   121.16687516   178.23783160
 C     10   9   8     1.393790468471   122.10194969   209.22627035
 C     11  10   9     1.382260850925   120.31180781   180.09761119
 C     12  11  10     1.384917246625   120.35885971   359.65030705
 C     13  12  11     1.385900155134   119.70663025   359.25998970
 C     14  13  12     1.380579146590   120.17310418     0.80150756
 C      9   8   7     1.402395286644   109.02729902   358.12765066
 C     16   9   8     1.404123869180   135.56757434   185.68696703
 C     17  16   9     1.363688472489   119.64737273   175.49007563
 C     18  17  16     1.415996896183   119.78386728   358.34022893
 C     19  18  17     1.355910657086   120.50315643     0.74774191
 N     20  19  18     1.362436292089   119.97040061     1.44295906
 C      6   5   4     1.399509999964   118.96138927   357.89691764
 C     22   6   5     1.375892459460   120.81879486     2.02725001
 H      4   3   2     1.080398694927   119.52501394     1.12833019
 H      5   4   3     1.079903352157   119.03301629   183.18091223
 H     11  10   9     1.079712897024   119.98251081     2.10220481
 H     12  11  10     1.080688747975   119.69741459   180.08651148
 H     13  12  11     1.080075395516   120.08494675   179.87055610
 H     14  13  12     1.080300124965   119.94376423   180.77429327
 H     15  14  13     1.078879233279   120.95409524   180.25047641
 H     17  16   9     1.077468115538   118.90400545   357.04250399
 H     18  17  16     1.078102541505   120.83001163   180.01696401
 H     19  18  17     1.077726843871   119.86372154   182.12113306
 H     20  19  18     1.077871059079   122.86732489   183.68159367
 H     22   6   5     1.078343331226   118.32542446   182.09463109
 H     23  22   6     1.080011411977   120.66885369   179.52532369

---------------------------
INTERNAL COORDINATES (A.U.)
---------------------------
 N      0   0   0     0.000000000000     0.00000000     0.00000000
 C      1   0   0     2.167576281748     0.00000000     0.00000000
 C      2   1   0     2.668054404661   179.77426088     0.00000000
 C      3   2   1     2.637742725590   119.94267171    42.91912473
 C      4   3   2     2.605314102898   120.08120920   180.52399094
 C      5   4   3     2.641197234033   120.48733929     0.48738086
 C      6   5   4     2.736029233067   122.98760458   180.91691956
 N      7   6   5     2.496328723594   122.56101179   144.83593418
 C      8   7   6     2.542569181723   108.32938227   183.01044991
 C      9   8   7     2.745397210131   121.16687516   178.23783160
 C     10   9   8     2.633882273480   122.10194969   209.22627035
 C     11  10   9     2.612094453889   120.31180781   180.09761119
 C     12  11  10     2.617114314266   120.35885971   359.65030705
 C     13  12  11     2.618971742162   119.70663025   359.25998970
 C     14  13  12     2.608916493258   120.17310418     0.80150756
 C      9   8   7     2.650143023258   109.02729902   358.12765066
 C     16   9   8     2.653409570851   135.56757434   185.68696703
 C     17  16   9     2.576997744990   119.64737273   175.49007563
 C     18  17  16     2.675846340268   119.78386728   358.34022893
 C     19  18  17     2.562299803958   120.50315643     0.74774191
 N     20  19  18     2.574631466963   119.97040061     1.44295906
 C      6   5   4     2.644690621617   118.96138927   357.89691764
 C     22   6   5     2.600059938108   120.81879486     2.02725001
 H      4   3   2     2.041657648858   119.52501394     1.12833019
 H      5   4   3     2.040721586680   119.03301629   183.18091223
 H     11  10   9     2.040361678638   119.98251081     2.10220481
 H     12  11  10     2.042205769683   119.69741459   180.08651148
 H     13  12  11     2.041046701513   120.08494675   179.87055610
 H     14  13  12     2.041471378625   119.94376423   180.77429327
 H     15  14  13     2.038786282472   120.95409524   180.25047641
 H     17  16   9     2.036119656398   118.90400545   357.04250399
 H     18  17  16     2.037318547729   120.83001163   180.01696401
 H     19  18  17     2.036608582091   119.86372154   182.12113306
 H     20  19  18     2.036881109339   122.86732489   183.68159367
 H     22   6   5     2.037773574358   118.32542446   182.09463109
 H     23  22   6     2.040925790146   120.66885369   179.52532369

---------------------
BASIS SET INFORMATION
---------------------
There are 3 groups of distinct atoms

 Group   1 Type N   : 19s6p3d2f contracted to 5s4p3d2f pattern {88111/3111/111/11}
 Group   2 Type C   : 19s6p3d2f contracted to 5s4p3d2f pattern {88111/3111/111/11}
 Group   3 Type H   : 5s2p1d contracted to 3s2p1d pattern {311/11/1}

Atom   0N    basis set group =>   1
Atom   1C    basis set group =>   2
Atom   2C    basis set group =>   2
Atom   3C    basis set group =>   2
Atom   4C    basis set group =>   2
Atom   5C    basis set group =>   2
Atom   6C    basis set group =>   2
Atom   7N    basis set group =>   1
Atom   8C    basis set group =>   2
Atom   9C    basis set group =>   2
Atom  10C    basis set group =>   2
Atom  11C    basis set group =>   2
Atom  12C    basis set group =>   2
Atom  13C    basis set group =>   2
Atom  14C    basis set group =>   2
Atom  15C    basis set group =>   2
Atom  16C    basis set group =>   2
Atom  17C    basis set group =>   2
Atom  18C    basis set group =>   2
Atom  19C    basis set group =>   2
Atom  20N    basis set group =>   1
Atom  21C    basis set group =>   2
Atom  22C    basis set group =>   2
Atom  23H    basis set group =>   3
Atom  24H    basis set group =>   3
Atom  25H    basis set group =>   3
Atom  26H    basis set group =>   3
Atom  27H    basis set group =>   3
Atom  28H    basis set group =>   3
Atom  29H    basis set group =>   3
Atom  30H    basis set group =>   3
Atom  31H    basis set group =>   3
Atom  32H    basis set group =>   3
Atom  33H    basis set group =>   3
Atom  34H    basis set group =>   3
Atom  35H    basis set group =>   3
---------------------------------
AUXILIARY/J BASIS SET INFORMATION
---------------------------------
There are 3 groups of distinct atoms

 Group   1 Type N   : 10s7p5d2f1g contracted to 10s7p5d2f1g pattern {1111111111/1111111/11111/11/1}
 Group   2 Type C   : 10s7p5d2f1g contracted to 10s7p5d2f1g pattern {1111111111/1111111/11111/11/1}
 Group   3 Type H   : 4s3p2d1f contracted to 4s3p2d1f pattern {1111/111/11/1}

Atom   0N    basis set group =>   1
Atom   1C    basis set group =>   2
Atom   2C    basis set group =>   2
Atom   3C    basis set group =>   2
Atom   4C    basis set group =>   2
Atom   5C    basis set group =>   2
Atom   6C    basis set group =>   2
Atom   7N    basis set group =>   1
Atom   8C    basis set group =>   2
Atom   9C    basis set group =>   2
Atom  10C    basis set group =>   2
Atom  11C    basis set group =>   2
Atom  12C    basis set group =>   2
Atom  13C    basis set group =>   2
Atom  14C    basis set group =>   2
Atom  15C    basis set group =>   2
Atom  16C    basis set group =>   2
Atom  17C    basis set group =>   2
Atom  18C    basis set group =>   2
Atom  19C    basis set group =>   2
Atom  20N    basis set group =>   1
Atom  21C    basis set group =>   2
Atom  22C    basis set group =>   2
Atom  23H    basis set group =>   3
Atom  24H    basis set group =>   3
Atom  25H    basis set group =>   3
Atom  26H    basis set group =>   3
Atom  27H    basis set group =>   3
Atom  28H    basis set group =>   3
Atom  29H    basis set group =>   3
Atom  30H    basis set group =>   3
Atom  31H    basis set group =>   3
Atom  32H    basis set group =>   3
Atom  33H    basis set group =>   3
Atom  34H    basis set group =>   3
Atom  35H    basis set group =>   3
---------------------------------
AUXILIARY/C BASIS SET INFORMATION
---------------------------------
There are 3 groups of distinct atoms

 Group   1 Type N   : 9s7p6d4f2g contracted to 9s7p6d4f2g pattern {111111111/1111111/111111/1111/11}
 Group   2 Type C   : 9s7p6d4f2g contracted to 9s7p6d4f2g pattern {111111111/1111111/111111/1111/11}
 Group   3 Type H   : 4s3p2d1f contracted to 4s3p2d1f pattern {1111/111/11/1}

Atom   0N    basis set group =>   1
Atom   1C    basis set group =>   2
Atom   2C    basis set group =>   2
Atom   3C    basis set group =>   2
Atom   4C    basis set group =>   2
Atom   5C    basis set group =>   2
Atom   6C    basis set group =>   2
Atom   7N    basis set group =>   1
Atom   8C    basis set group =>   2
Atom   9C    basis set group =>   2
Atom  10C    basis set group =>   2
Atom  11C    basis set group =>   2
Atom  12C    basis set group =>   2
Atom  13C    basis set group =>   2
Atom  14C    basis set group =>   2
Atom  15C    basis set group =>   2
Atom  16C    basis set group =>   2
Atom  17C    basis set group =>   2
Atom  18C    basis set group =>   2
Atom  19C    basis set group =>   2
Atom  20N    basis set group =>   1
Atom  21C    basis set group =>   2
Atom  22C    basis set group =>   2
Atom  23H    basis set group =>   3
Atom  24H    basis set group =>   3
Atom  25H    basis set group =>   3
Atom  26H    basis set group =>   3
Atom  27H    basis set group =>   3
Atom  28H    basis set group =>   3
Atom  29H    basis set group =>   3
Atom  30H    basis set group =>   3
Atom  31H    basis set group =>   3
Atom  32H    basis set group =>   3
Atom  33H    basis set group =>   3
Atom  34H    basis set group =>   3
Atom  35H    basis set group =>   3


           ************************************************************
           *        Program running with 4 parallel MPI-processes     *
           *              working on a common directory               *
           ************************************************************
------------------------------------------------------------------------------
                           ORCA GTO INTEGRAL CALCULATION
                           -- RI-GTO INTEGRALS CHOSEN --
------------------------------------------------------------------------------
------------------------------------------------------------------------------
                   ___                                                        
                  /   \      - P O W E R E D   B Y -                         
                 /     \                                                     
                 |  |  |   _    _      __       _____    __    __             
                 |  |  |  | |  | |    /  \     |  _  \  |  |  /  |          
                  \  \/   | |  | |   /    \    | | | |  |  | /  /          
                 / \  \   | |__| |  /  /\  \   | |_| |  |  |/  /          
                |  |  |   |  __  | /  /__\  \  |    /   |      \           
                |  |  |   | |  | | |   __   |  |    \   |  |\   \          
                \     /   | |  | | |  |  |  |  | |\  \  |  | \   \       
                 \___/    |_|  |_| |__|  |__|  |_| \__\ |__|  \__/        
                                                                              
                      - O R C A' S   B I G   F R I E N D -                    
                                      &                                       
                       - I N T E G R A L  F E E D E R -                       
                                                                              
 v1 FN, 2020, v2 2021                                                         
------------------------------------------------------------------------------


Reading SHARK input file optpbed3-b2gp-plyp-train-8.SHARKINP.tmp ... ok
----------------------
SHARK INTEGRAL PACKAGE
----------------------

Number of atoms                             ...     36
Number of basis functions                   ...   1378
Number of shells                            ...    538
Maximum angular momentum                    ...      3
Integral batch strategy                     ... SHARK/LIBINT Hybrid
RI-J (if used) integral strategy            ... SPLIT-RIJ (Revised 2003 algorithm where possible)
Printlevel                                  ...      1
Contraction scheme used                     ... PARTIAL GENERAL contraction
Coulomb Range Separation                    ... NOT USED
Exchange Range Separation                   ... NOT USED
Finite Nucleus Model                        ... NOT USED
Auxiliary Coulomb fitting basis             ... AVAILABLE
   # of basis functions in Aux-J            ...   2207
   # of shells in Aux-J                     ...    705
   Maximum angular momentum in Aux-J        ...      4
Auxiliary J/K fitting basis                 ... NOT available
Auxiliary Correlation fitting basis         ... AVAILABLE
   # of basis functions in Aux-C            ...   2828
   # of shells in Aux-C                     ...    774
   Maximum angular momentum in Aux-C        ...      4
Auxiliary 'external' fitting basis          ... NOT available
Integral threshold                          ...     2.500000e-11
Primitive cut-off                           ...     2.500000e-12
Primitive pair pre-selection threshold      ...     2.500000e-12

Calculating pre-screening integrals         ... done (  0.4 sec) Dimension = 538
Calculating pre-screening integrals (ORCA)  ... done (  0.8 sec) Dimension = 400
Organizing shell pair data                  ... done (  1.2 sec)
Shell pair information
Total number of shell pairs                 ...    144991
Shell pairs after pre-screening             ...     90098
Total number of primitive shell pairs       ...    186463
Primitive shell pairs kept                  ...    104895
          la=0 lb=0:  20220 shell pairs
          la=1 lb=0:  23003 shell pairs
          la=1 lb=1:   5578 shell pairs
          la=2 lb=0:  15193 shell pairs
          la=2 lb=1:   7482 shell pairs
          la=2 lb=2:   2581 shell pairs
          la=3 lb=0:   8248 shell pairs
          la=3 lb=1:   4150 shell pairs
          la=3 lb=2:   2831 shell pairs
          la=3 lb=3:    812 shell pairs

Calculating one electron integrals          ... done (  0.3 sec)
Calculating RI/J V-Matrix + Cholesky decomp.... done (  0.5 sec)
Calculating RI/C V-Matrix + Cholesky decomp.... done (  0.8 sec)
Calculating Nuclear repulsion               ... done (  0.0 sec) ENN=   1643.797506415183 Eh

SHARK setup successfully completed in   5.7 seconds

Maximum memory used throughout the entire GTOINT-calculation: 142.8 MB


           ************************************************************
           *        Program running with 4 parallel MPI-processes     *
           *              working on a common directory               *
           ************************************************************
-------------------------------------------------------------------------------
                                 ORCA SCF
-------------------------------------------------------------------------------

------------
SCF SETTINGS
------------
Hamiltonian:
 Density Functional     Method          .... DFT(GTOs)
 Exchange Functional    Exchange        .... PBE
   PBE kappa parameter   XKappa         ....  0.804000
   PBE mue parameter    XMuePBE         ....  0.219520
 Correlation Functional Correlation     .... PBE
   PBE beta parameter  CBetaPBE         ....  0.066725
 LDA part of GGA corr.  LDAOpt          .... PW91-LDA
 Gradients option       PostSCFGGA      .... off
 Hybrid DFT is turned on
   Fraction HF Exchange ScalHFX         ....  0.250000
   Scaling of DF-GGA-X  ScalDFX         ....  0.750000
   Scaling of DF-GGA-C  ScalDFC         ....  1.000000
   Scaling of DF-LDA-C  ScalLDAC        ....  1.000000
   Perturbative correction              ....  0.000000
   Density functional embedding theory  .... OFF
   NL short-range parameter             ....  6.900000
 RI-approximation to the Coulomb term is turned on
   Number of AuxJ basis functions       .... 2207
   RIJ-COSX (HFX calculated with COS-X)).... on


General Settings:
 Integral files         IntName         .... optpbed3-b2gp-plyp-train-8
 Hartree-Fock type      HFTyp           .... RHF
 Total Charge           Charge          ....    0
 Multiplicity           Mult            ....    1
 Number of Electrons    NEL             ....  154
 Basis Dimension        Dim             .... 1240
 Nuclear Repulsion      ENuc            ....   1643.7975064152 Eh

Convergence Acceleration:
 DIIS                   CNVDIIS         .... on
   Start iteration      DIISMaxIt       ....    12
   Startup error        DIISStart       ....  0.200000
   # of expansion vecs  DIISMaxEq       ....     5
   Bias factor          DIISBfac        ....   1.050
   Max. coefficient     DIISMaxC        ....  10.000
 Trust-Rad. Augm. Hess. CNVTRAH         .... auto
   Auto Start mean grad. ratio tolernc. ....  1.125000
   Auto Start start iteration           ....    20
   Auto Start num. interpolation iter.  ....    10
   Max. Number of Micro iterations      ....    16
   Max. Number of Macro iterations      .... Maxiter - #DIIS iter
   Number of Davidson start vectors     ....     2
   Converg. threshold I  (grad. norm)   ....   1.000e-05
   Converg. threshold II (energy diff.) ....   1.000e-08
   Grad. Scal. Fac. for Micro threshold ....   0.100
   Minimum threshold for Micro iter.    ....   0.010
   NR start threshold (gradient norm)   ....   0.001
   Initial trust radius                 ....   0.400
   Minimum AH scaling param. (alpha)    ....   1.000
   Maximum AH scaling param. (alpha)    .... 1000.000
   Orbital update algorithm             .... Taylor
   White noise on init. David. guess    .... on
   Maximum white noise                  ....   0.010
   Quad. conv. algorithm                .... NR
 SOSCF                  CNVSOSCF        .... on
   Start iteration      SOSCFMaxIt      ....   150
   Startup grad/error   SOSCFStart      ....  0.003300
 Level Shifting         CNVShift        .... on
   Level shift para.    LevelShift      ....    0.2500
   Turn off err/grad.   ShiftErr        ....    0.0010
 Zerner damping         CNVZerner       .... off
 Static damping         CNVDamp         .... on
   Fraction old density DampFac         ....    0.7000
   Max. Damping (<1)    DampMax         ....    0.9800
   Min. Damping (>=0)   DampMin         ....    0.0000
   Turn off err/grad.   DampErr         ....    0.1000
 Fernandez-Rico         CNVRico         .... off

SCF Procedure:
 Maximum # iterations   MaxIter         ....   125
 SCF integral mode      SCFMode         .... Direct
   Integral package                     .... SHARK and LIBINT hybrid scheme
 Reset frequency        DirectResetFreq ....    20
 Integral Threshold     Thresh          ....  2.500e-11 Eh
 Primitive CutOff       TCut            ....  2.500e-12 Eh

Convergence Tolerance:
 Convergence Check Mode ConvCheckMode   .... Total+1el-Energy
 Convergence forced     ConvForced      .... 0
 Energy Change          TolE            ....  1.000e-08 Eh
 1-El. energy change                    ....  1.000e-05 Eh
 Orbital Gradient       TolG            ....  1.000e-05
 Orbital Rotation angle TolX            ....  1.000e-05
 DIIS Error             TolErr          ....  5.000e-07


Diagonalization of the overlap matrix:
Smallest eigenvalue                        ... 4.177e-07
Time for diagonalization                   ...    0.445 sec
Threshold for overlap eigenvalues          ... 1.000e-08
Number of eigenvalues below threshold      ... 0
Time for construction of square roots      ...    0.567 sec
Total time needed                          ...    1.020 sec

Time for model grid setup =    1.178 sec

------------------------------
INITIAL GUESS: MODEL POTENTIAL
------------------------------
Loading Hartree-Fock densities                     ... done
Calculating cut-offs                               ... done
Initializing the effective Hamiltonian             ... done
Setting up the integral package (SHARK)            ... done
Starting the Coulomb interaction                   ... done (   4.0 sec)
Reading the grid                                   ... done
Mapping shells                                     ... done
Starting the XC term evaluation                    ... done (   3.5 sec)
  promolecular density results
     # of electrons  =    153.987063990
     EX              =   -125.820587775
     EC              =     -5.171789174
     EX+EC           =   -130.992376949
Transforming the Hamiltonian                       ... done (   0.3 sec)
Diagonalizing the Hamiltonian                      ... done (   0.5 sec)
Back transforming the eigenvectors                 ... done (   0.1 sec)
Now organizing SCF variables                       ... done
                      ------------------
                      INITIAL GUESS DONE (   9.6 sec)
                      ------------------
-------------------
DFT GRID GENERATION
-------------------

General Integration Accuracy     IntAcc      ... 4.388
Radial Grid Type                 RadialGrid  ... OptM3 with GC (2021)
Angular Grid (max. ang.)         AngularGrid ... 4 (Lebedev-302)
Angular grid pruning method      GridPruning ... 4 (adaptive)
Weight generation scheme         WeightScheme... Becke
Basis function cutoff            BFCut       ... 1.0000e-11
Integration weight cutoff        WCut        ... 1.0000e-14
Angular grids for H and He will be reduced by one unit
Partially contracted basis set               ... off
Rotationally invariant grid construction     ... off

Total number of grid points                  ...   184761
Total number of batches                      ...     2905
Average number of points per batch           ...       63
Average number of grid points per atom       ...     5132
Time for grid setup =    3.788 sec

--------------------
COSX GRID GENERATION
--------------------

GRIDX 1
-------
General Integration Accuracy     IntAcc      ... 3.816
Radial Grid Type                 RadialGrid  ... OptM3 with GC (2021)
Angular Grid (max. ang.)         AngularGrid ... 1 (Lebedev-50)
Angular grid pruning method      GridPruning ... 4 (adaptive)
Weight generation scheme         WeightScheme... Becke
Basis function cutoff            BFCut       ... 1.0000e-11
Integration weight cutoff        WCut        ... 1.0000e-14
Angular grids for H and He will be reduced by one unit
Partially contracted basis set               ... on
Rotationally invariant grid construction     ... off

Total number of grid points                  ...    23465
Total number of batches                      ...      384
Average number of points per batch           ...       61
Average number of grid points per atom       ...      652
UseSFitting                                  ... on

GRIDX 2
-------
General Integration Accuracy     IntAcc      ... 4.020
Radial Grid Type                 RadialGrid  ... OptM3 with GC (2021)
Angular Grid (max. ang.)         AngularGrid ... 2 (Lebedev-110)
Angular grid pruning method      GridPruning ... 4 (adaptive)
Weight generation scheme         WeightScheme... Becke
Basis function cutoff            BFCut       ... 1.0000e-11
Integration weight cutoff        WCut        ... 1.0000e-14
Angular grids for H and He will be reduced by one unit
Partially contracted basis set               ... on
Rotationally invariant grid construction     ... off

Total number of grid points                  ...    56366
Total number of batches                      ...      900
Average number of points per batch           ...       62
Average number of grid points per atom       ...     1566
UseSFitting                                  ... on

GRIDX 3
-------
General Integration Accuracy     IntAcc      ... 4.338
Radial Grid Type                 RadialGrid  ... OptM3 with GC (2021)
Angular Grid (max. ang.)         AngularGrid ... 3 (Lebedev-194)
Angular grid pruning method      GridPruning ... 4 (adaptive)
Weight generation scheme         WeightScheme... Becke
Basis function cutoff            BFCut       ... 1.0000e-11
Integration weight cutoff        WCut        ... 1.0000e-14
Angular grids for H and He will be reduced by one unit
Partially contracted basis set               ... on
Rotationally invariant grid construction     ... off

Total number of grid points                  ...   121660
Total number of batches                      ...     1919
Average number of points per batch           ...       63
Average number of grid points per atom       ...     3379
UseSFitting                                  ... on

Time for X-Grid setup             =   10.306 sec


--------------------
CPCM SOLVATION MODEL
--------------------
CPCM parameters:
  Epsilon                                         ...       8.9300
  Refrac                                          ...       1.4242
  Rsolv                                           ...       1.3000
  Surface type                                    ... GAUSSIAN VDW
  Epsilon function type                           ...         CPCM
Solvent:                                     ... DICHLOROMETHANE
SMD-CDS solvent descriptors:
  Soln                                       ...    1.4242
  Soln25                                     ...    1.4212
  Sola                                       ...    0.1000
  Solb                                       ...    0.0500
  Solg                                       ...   39.1500
  Solc                                       ...    0.0000
  Solh                                       ...    0.6670
Radii:
 Radius for N  used is    3.5716 Bohr (=   1.8900 Ang.)
 Radius for C  used is    3.4960 Bohr (=   1.8500 Ang.)
 Radius for H  used is    2.2677 Bohr (=   1.2000 Ang.)
Calculating surface                               ...        done! (  0.0s)
GEPOL surface points                              ...         2071
GEPOL Volume                                      ...    2062.6656
GEPOL Surface-area                                ...    1140.5290
Calculating surface distance matrix               ...        done! (  0.1s)
Performing Cholesky decomposition & store         ...        done! (  0.3s)
Overall time for CPCM initialization              ...                 0.4s
 re-compute Schwartz prescreening matrix in partically contracted basis (1) ...done (   0.311 sec)
--------------
SCF ITERATIONS
--------------
ITER       Energy         Delta-E        Max-DP      RMS-DP      [F,P]     Damp
               ***  Starting incremental Fock matrix formation  ***
  0   -932.9988430002   0.000000000000 0.36370744  0.00131458  0.2282038 0.7000
  1   -933.1927808101  -0.193937809901 0.28210085  0.00102240  0.1025761 0.7000
                               ***Turning on DIIS***
  2   -933.2799202825  -0.087139472417 0.68025483  0.00226542  0.0343038 0.0000
  3   -933.4156314812  -0.135711198669 0.08179470  0.00048059  0.0481761 0.0000
  4   -933.4416991974  -0.026067716231 0.04260978  0.00018521  0.0163432 0.0000
  5   -933.4433520008  -0.001652803356 0.01663246  0.00007796  0.0066579 0.0000
                      *** Initiating the SOSCF procedure ***
                           *** Shutting down DIIS ***
                      *** Re-Reading the Fockian *** 
                      *** Removing any level shift *** 
ITER      Energy       Delta-E        Grad      Rot      Max-DP    RMS-DP
  6   -933.44348638  -0.0001343793  0.000297  0.000297  0.031768  0.000070
               *** Restarting incremental Fock matrix formation ***
  7   -933.44348823  -0.0000018516  0.000186  0.001204  0.054987  0.000562
  8   -933.44349118  -0.0000029501  0.000266  0.000556  0.040178  0.000216
  9   -933.44349295  -0.0000017679  0.000151  0.000260  0.050422  0.000228
 10   -933.44349356  -0.0000006087  0.000057  0.000113  0.020984  0.000067
 11   -933.44349357  -0.0000000122  0.000034  0.000088  0.021974  0.000076
 12   -933.44349368  -0.0000001122  0.000008  0.000035  0.008818  0.000047
 13   -933.44349375  -0.0000000650  0.000008  0.000033  0.037603  0.000082
 14   -933.44349378  -0.0000000310  0.000003  0.000009  0.145680  0.000252
 15   -933.44349379  -0.0000000146  0.000003  0.000008  0.046420  0.000113
                  ***Gradient check signals convergence***
              ***Rediagonalizing the Fockian in SOSCF/NRSCF***

               *****************************************************
               *                     SUCCESS                       *
               *           SCF CONVERGED AFTER  16 CYCLES          *
               *****************************************************

Old exchange energy                            =    -32.064443127 Eh
New exchange energy                            =    -32.064409000 Eh
Exchange energy change after final integration =      0.000034127 Eh
Total energy after final integration           =   -933.443459781 Eh
Final COS-X integration done in                =   204.240 sec

SMD CDS free energy correction energy :                -7.90753     Kcal/mol
Total Energy after SMD CDS correction =              -933.456061230 Eh

----------------
TOTAL SCF ENERGY
----------------

Total Energy       :         -933.45606123 Eh          -25400.63077 eV

Components:
Nuclear Repulsion  :         1643.79750642 Eh           44730.00418 eV
Electronic Energy  :        -2577.25356765 Eh          -70130.63495 eV
One Electron Energy:        -4526.35059794 Eh         -123168.26152 eV
Two Electron Energy:         1949.09703029 Eh           53037.62658 eV
Max COSX asymmetry :            0.00002986 Eh               0.00081 eV
CPCM Dielectric    :           -0.02823057 Eh              -0.76819 eV
SMD CDS (Gcds)     :           -0.01260145 Eh              -0.34290 eV

Virial components:
Potential Energy   :        -1861.82445488 Eh          -50662.81907 eV
Kinetic Energy     :          928.36839365 Eh           25262.18830 eV
Virial Ratio       :            2.00548022


DFT components:
N(Alpha)           :       76.999979940165 electrons
N(Beta)            :       76.999979940165 electrons
N(Total)           :      153.999959880330 electrons
E(X)               :      -95.963027979712 Eh       
E(C)               :       -5.174975398266 Eh       
E(XC)              :     -101.138003377978 Eh       
DFET-embed. en.    :        0.000000000000 Eh       
CPCM Solvation Model Properties:
Surface-charge          :           -0.06176050
Charge-correction       :            0.00034063 Eh               0.00927 eV
Free-energy (cav+disp)  :           -0.01260145 Eh              -0.34290 eV

---------------
SCF CONVERGENCE
---------------

  Last Energy change         ...   -1.1454e-07  Tolerance :   1.0000e-08
  Last MAX-Density change    ...    3.7748e-15  Tolerance :   1.0000e-07
  Last RMS-Density change    ...    1.5795e-17  Tolerance :   5.0000e-09
  Last Orbital Gradient      ...    2.4895e-06  Tolerance :   1.0000e-05
  Last Orbital Rotation      ...    1.6110e-05  Tolerance :   1.0000e-05

             **** THE GBW FILE WAS UPDATED (optpbed3-b2gp-plyp-train-8.gbw) ****
             **** DENSITY optpbed3-b2gp-plyp-train-8.scfp WAS UPDATED ****
             **** ENERGY FILE WAS UPDATED (optpbed3-b2gp-plyp-train-8.en.tmp) ****
             **** THE GBW FILE WAS UPDATED (optpbed3-b2gp-plyp-train-8.gbw) ****
             **** DENSITY optpbed3-b2gp-plyp-train-8.scfp WAS UPDATED ****
----------------
ORBITAL ENERGIES
----------------

  NO   OCC          E(Eh)            E(eV) 
   0   2.0000     -14.479840      -394.0165 
   1   2.0000     -14.389270      -391.5519 
   2   2.0000     -14.385313      -391.4443 
   3   2.0000     -10.293181      -280.0917 
   4   2.0000     -10.280799      -279.7548 
   5   2.0000     -10.277702      -279.6705 
   6   2.0000     -10.273294      -279.5505 
   7   2.0000     -10.272709      -279.5346 
   8   2.0000     -10.264362      -279.3075 
   9   2.0000     -10.256702      -279.0990 
  10   2.0000     -10.251961      -278.9700 
  11   2.0000     -10.250881      -278.9406 
  12   2.0000     -10.245848      -278.8037 
  13   2.0000     -10.244929      -278.7787 
  14   2.0000     -10.241786      -278.6932 
  15   2.0000     -10.241647      -278.6894 
  16   2.0000     -10.241419      -278.6832 
  17   2.0000     -10.241206      -278.6774 
  18   2.0000     -10.227193      -278.2961 
  19   2.0000     -10.226263      -278.2708 
  20   2.0000     -10.226010      -278.2639 
  21   2.0000     -10.224451      -278.2215 
  22   2.0000     -10.224284      -278.2169 
  23   2.0000      -1.081583       -29.4314 
  24   2.0000      -0.958483       -26.0817 
  25   2.0000      -0.950887       -25.8750 
  26   2.0000      -0.912416       -24.8281 
  27   2.0000      -0.891217       -24.2512 
  28   2.0000      -0.860976       -23.4284 
  29   2.0000      -0.832277       -22.6474 
  30   2.0000      -0.807045       -21.9608 
  31   2.0000      -0.794594       -21.6220 
  32   2.0000      -0.791043       -21.5254 
  33   2.0000      -0.772466       -21.0199 
  34   2.0000      -0.742889       -20.2150 
  35   2.0000      -0.690760       -18.7965 
  36   2.0000      -0.680948       -18.5295 
  37   2.0000      -0.665903       -18.1202 
  38   2.0000      -0.645938       -17.5769 
  39   2.0000      -0.634498       -17.2656 
  40   2.0000      -0.615359       -16.7448 
  41   2.0000      -0.602270       -16.3886 
  42   2.0000      -0.581274       -15.8173 
  43   2.0000      -0.560784       -15.2597 
  44   2.0000      -0.535518       -14.5722 
  45   2.0000      -0.521657       -14.1950 
  46   2.0000      -0.511260       -13.9121 
  47   2.0000      -0.504947       -13.7403 
  48   2.0000      -0.492493       -13.4014 
  49   2.0000      -0.489704       -13.3255 
  50   2.0000      -0.479318       -13.0429 
  51   2.0000      -0.470274       -12.7968 
  52   2.0000      -0.461928       -12.5697 
  53   2.0000      -0.456884       -12.4324 
  54   2.0000      -0.450333       -12.2542 
  55   2.0000      -0.435492       -11.8503 
  56   2.0000      -0.432610       -11.7719 
  57   2.0000      -0.428952       -11.6724 
  58   2.0000      -0.411595       -11.2001 
  59   2.0000      -0.404724       -11.0131 
  60   2.0000      -0.398993       -10.8572 
  61   2.0000      -0.392557       -10.6820 
  62   2.0000      -0.387896       -10.5552 
  63   2.0000      -0.382156       -10.3990 
  64   2.0000      -0.377955       -10.2847 
  65   2.0000      -0.367831       -10.0092 
  66   2.0000      -0.358832        -9.7643 
  67   2.0000      -0.355488        -9.6733 
  68   2.0000      -0.351728        -9.5710 
  69   2.0000      -0.340319        -9.2605 
  70   2.0000      -0.307449        -8.3661 
  71   2.0000      -0.299566        -8.1516 
[...]
   Lowest Energy          :     0.138010672622
   Maximum Energy change  :     0.000014331149 (vector 9)
   Maximum residual norm  :     0.000003754700

                       ****Iteration    8****
              <<< Entering MO-section for Build Sigma(Double) >>>
   Forming the XC and CPCM contribution:
   Time for densities:            0.361
   Time for XC-Integration:      30.771
   Time for LR-CPCM terms:       16.218
   Time for Sigma-Completion:     0.295
   Time for building 10 sigma-vectors
   Data Preparation Phase         ...     0.01 sec
   Transformed RI Coulomb         ...     1.12 sec
   Transformed RI-exchange        ...   715.26 sec
   (ab|v) reading and digestion   ...   677.78 sec
   Final sigma-completion         ...     0.02 sec
   Done building sigma-vectors             Size of expansion space: 50
   Lowest Energy          :     0.138010660367
   Maximum Energy change  :     0.000016546206 (vector 9)
   Maximum residual norm  :     0.000004604223

                       ****Iteration    9****
              <<< Entering MO-section for Build Sigma(Double) >>>
   Forming the XC and CPCM contribution:
   Time for densities:            0.373
   Time for XC-Integration:      30.593
   Time for LR-CPCM terms:       16.052
   Time for Sigma-Completion:     0.310
   Time for building 10 sigma-vectors
   Data Preparation Phase         ...     0.01 sec
   Transformed RI Coulomb         ...     1.13 sec
   Transformed RI-exchange        ...   713.48 sec
   (ab|v) reading and digestion   ...   670.72 sec
   Final sigma-completion         ...     0.02 sec
   Done building sigma-vectors             Size of expansion space: 60
   Lowest Energy          :     0.138010659219
   Maximum Energy change  :     0.000013556633 (vector 9)
   Maximum residual norm  :     0.000002565659

                       ****Iteration   10****
              <<< Entering MO-section for Build Sigma(Double) >>>
   Forming the XC and CPCM contribution:
   Time for densities:            0.363
   Time for XC-Integration:      30.747
   Time for LR-CPCM terms:       16.047
   Time for Sigma-Completion:     0.296
   Time for building 10 sigma-vectors
   Data Preparation Phase         ...     0.01 sec
   Transformed RI Coulomb         ...     1.10 sec
   Transformed RI-exchange        ...   706.38 sec
   (ab|v) reading and digestion   ...   665.57 sec
   Final sigma-completion         ...     0.02 sec
   Done building sigma-vectors             Size of expansion space: 70
   Lowest Energy          :     0.138010659159
   Maximum Energy change  :     0.000006499334 (vector 9)
   Maximum residual norm  :     0.000000765729

      *** CONVERGENCE OF RESIDUAL NORM REACHED ***

Storing the converged CI vectors               ... optpbed3-b2gp-plyp-train-8_job2.cis1

                 *** DAVIDSON DONE ***

Total time for solving the CIS problem:  8647.341sec

------------------
DOUBLES CORRECTION (Double precision version)
------------------

The (D) correction will be scaled by  0.3600
Doing v(i,a)*T(i,a) terms (RI)                    ... ok
Doing u(i,j,a,b) terms for state   0              ... ok
Doing u(i,j,a,b) terms for state   1              ... ok
Doing u(i,j,a,b) terms for state   2              ... ok
Doing u(i,j,a,b) terms for state   3              ... ok
Doing u(i,j,a,b) terms for state   4              ... ok
Doing u(i,j,a,b) terms for state   5              ... ok
Doing u(i,j,a,b) terms for state   6              ... ok
Doing u(i,j,a,b) terms for state   7              ... ok
Doing u(i,j,a,b) terms for state   8              ... ok
Doing u(i,j,a,b) terms for state   9              ... ok

Contributions to the (D) correction(s) (in eV)

STATE  Final   Init.   Total   v(ext)   v(int)  v(3)    u
       omega   omega     (D)                             
-----------------------------------------------------------------------------
   0   3.380   3.755  -0.376   0.794   1.326  -0.056  -2.440
   1   3.633   3.924  -0.292   0.691   1.322  -0.073  -2.232
   2   4.571   4.710  -0.139   0.149   1.322  -0.008  -1.602
   3   4.402   4.766  -0.364   0.586   1.312  -0.050  -2.212
   4   4.523   5.029  -0.506   0.508   1.280  -0.022  -2.272
   5   4.762   5.184  -0.421   0.467   1.268  -0.027  -2.129
   6   5.182   5.349  -0.167   0.070   1.316  -0.003  -1.548
   7   5.239   5.370  -0.131   0.082   1.317  -0.004  -1.526
   8   5.378   5.449  -0.071   0.086   1.318  -0.005  -1.470
   9   5.340   5.614  -0.274   0.303   1.260  -0.029  -1.809

(D)-timings
 V(i,a)*T(i,a) terms           ...  1593.024 sec
 U(i,j,a,b) 3-internal         ...    21.157 sec
 U(i,j,a,b) 3-external         ...   568.374 sec
 U(i,j,a,b) pair terms         ...   804.591 sec
 Total measured time           ...  6604.572 sec

 Time for (ab|v) I/O           ...   155.606 sec


------------------------------------
TD-DFT/TDA EXCITED STATES (SINGLETS)
------------------------------------

the weight of the individual excitations are printed if larger than 1.0e-02

STATE  1:  E=   0.124203 au      3.380 eV    27259.4 cm**-1 <S**2> =   0.000000
    74a ->  77a  :     0.012556 (c= -0.11205463)
    75a ->  77a  :     0.010399 (c=  0.10197598)
    76a ->  77a  :     0.894741 (c= -0.94590759)
    76a ->  78a  :     0.018008 (c= -0.13419221)

STATE  2:  E=   0.133499 au      3.633 eV    29299.7 cm**-1 <S**2> =   0.000000
    76a ->  77a  :     0.016442 (c= -0.12822717)
    76a ->  78a  :     0.889576 (c=  0.94317353)
    76a ->  85a  :     0.031406 (c=  0.17721666)

STATE  3:  E=   0.167977 au      4.571 eV    36866.6 cm**-1 <S**2> =   0.000000
    76a ->  79a  :     0.543773 (c=  0.73740973)
    76a ->  80a  :     0.059213 (c=  0.24333722)
    76a ->  81a  :     0.012213 (c= -0.11051039)
    76a ->  82a  :     0.164176 (c= -0.40518641)
    76a ->  85a  :     0.077255 (c=  0.27794832)
    76a ->  87a  :     0.023602 (c=  0.15362874)
    76a ->  88a  :     0.015113 (c=  0.12293666)
    76a ->  91a  :     0.010608 (c= -0.10299707)
    76a ->  92a  :     0.010001 (c=  0.10000408)

STATE  4:  E=   0.161786 au      4.402 eV    35508.0 cm**-1 <S**2> =   0.000000
    76a ->  78a  :     0.028109 (c= -0.16765683)
    76a ->  79a  :     0.021496 (c= -0.14661346)
    76a ->  80a  :     0.012075 (c= -0.10988830)
    76a ->  83a  :     0.120103 (c= -0.34655867)
    76a ->  84a  :     0.057302 (c=  0.23937872)
    76a ->  85a  :     0.578998 (c=  0.76091928)
    76a ->  86a  :     0.031025 (c= -0.17614013)
    76a ->  87a  :     0.014345 (c= -0.11977169)

STATE  5:  E=   0.166225 au      4.523 eV    36482.3 cm**-1 <S**2> =   0.000000
    72a ->  77a  :     0.190413 (c=  0.43636290)
    74a ->  82a  :     0.012637 (c=  0.11241366)
    74a ->  83a  :     0.010336 (c= -0.10166600)
    75a ->  82a  :     0.013229 (c= -0.11501809)
    76a ->  79a  :     0.042128 (c=  0.20525013)
    76a ->  80a  :     0.052976 (c=  0.23016452)
    76a ->  82a  :     0.280414 (c=  0.52954117)
    76a ->  83a  :     0.143185 (c= -0.37839805)
    76a ->  86a  :     0.071843 (c=  0.26803560)
    76a ->  87a  :     0.071090 (c=  0.26662656)

STATE  6:  E=   0.175018 au      4.762 eV    38412.0 cm**-1 <S**2> =   0.000000
    73a ->  89a  :     0.011475 (c= -0.10711970)
    74a ->  78a  :     0.025587 (c= -0.15995861)
    74a ->  85a  :     0.014031 (c=  0.11845118)
    74a ->  87a  :     0.010035 (c= -0.10017630)
    74a ->  89a  :     0.022652 (c= -0.15050418)
    75a ->  78a  :     0.027469 (c= -0.16573859)
    75a ->  85a  :     0.032326 (c=  0.17979532)
    76a ->  79a  :     0.055385 (c= -0.23534065)
    76a ->  81a  :     0.067367 (c=  0.25955072)
    76a ->  82a  :     0.015662 (c= -0.12514681)
    76a ->  83a  :     0.014702 (c=  0.12125092)
    76a ->  86a  :     0.031209 (c=  0.17666143)
    76a ->  87a  :     0.104584 (c=  0.32339374)
    76a ->  88a  :     0.107525 (c=  0.32791009)
    76a ->  89a  :     0.271422 (c=  0.52098189)
    76a ->  92a  :     0.037367 (c= -0.19330607)

STATE  7:  E=   0.190442 au      5.182 eV    41797.2 cm**-1 <S**2> =   0.000000
    76a ->  79a  :     0.031951 (c=  0.17874942)
    76a ->  80a  :     0.574348 (c= -0.75785733)
    76a ->  81a  :     0.096602 (c= -0.31080839)
    76a ->  82a  :     0.014745 (c= -0.12142696)
    76a ->  83a  :     0.021059 (c= -0.14511656)
    76a ->  84a  :     0.051970 (c=  0.22796871)
    76a ->  85a  :     0.014420 (c= -0.12008201)
    76a ->  87a  :     0.024357 (c=  0.15606601)
    76a ->  89a  :     0.045984 (c=  0.21443941)

STATE  8:  E=   0.192539 au      5.239 eV    42257.4 cm**-1 <S**2> =   0.000000
    72a ->  77a  :     0.012495 (c=  0.11178097)
    76a ->  79a  :     0.011356 (c=  0.10656437)
    76a ->  80a  :     0.039622 (c= -0.19905252)
    76a ->  81a  :     0.569424 (c=  0.75460210)
    76a ->  82a  :     0.043002 (c= -0.20736892)
    76a ->  83a  :     0.068666 (c= -0.26204104)
    76a ->  85a  :     0.016604 (c= -0.12885707)
    76a ->  87a  :     0.051136 (c=  0.22613211)
    76a ->  89a  :     0.050680 (c= -0.22512240)
    76a ->  91a  :     0.016593 (c= -0.12881331)

STATE  9:  E=   0.197634 au      5.378 eV    43375.6 cm**-1 <S**2> =   0.000000
    72a ->  77a  :     0.017372 (c= -0.13180245)
    76a ->  80a  :     0.010891 (c=  0.10436169)
    76a ->  81a  :     0.049001 (c= -0.22136061)
    76a ->  83a  :     0.180914 (c= -0.42533939)
    76a ->  84a  :     0.036564 (c= -0.19121767)
    76a ->  85a  :     0.051927 (c= -0.22787528)
    76a ->  86a  :     0.441639 (c= -0.66455900)
    76a ->  87a  :     0.029876 (c=  0.17284571)
    76a ->  88a  :     0.046256 (c=  0.21507117)
    76a ->  92a  :     0.014912 (c= -0.12211353)

STATE 10:  E=   0.196246 au      5.340 eV    43071.1 cm**-1 <S**2> =   0.000000
    72a ->  77a  :     0.177321 (c=  0.42109493)
    73a ->  77a  :     0.030075 (c=  0.17342086)
    74a ->  77a  :     0.026755 (c= -0.16356956)
    75a ->  77a  :     0.022827 (c=  0.15108679)
    76a ->  79a  :     0.142815 (c= -0.37790907)
    76a ->  81a  :     0.056255 (c= -0.23718081)
    76a ->  82a  :     0.197704 (c= -0.44463951)
    76a ->  84a  :     0.018382 (c= -0.13558147)
    76a ->  85a  :     0.012843 (c=  0.11332849)
    76a ->  87a  :     0.014511 (c=  0.12046233)
    76a ->  90a  :     0.019946 (c=  0.14123043)
    76a ->  91a  :     0.023899 (c= -0.15459256)
    76a ->  92a  :     0.068835 (c=  0.26236488)
    76a ->  94a  :     0.017072 (c=  0.13065963)


-----------------------------
TD-DFT/TDA-EXCITATION SPECTRA
-----------------------------

Center of mass = (  0.5173,  0.2653, -0.4746)
Calculating the Dipole integrals                  ... done
Transforming integrals                            ... done
Calculating the Linear Momentum integrals         ... done
Transforming integrals                            ... done
Calculating angular momentum integrals            ... done
Transforming integrals                            ... done

-----------------------------------------------------------------------------
         ABSORPTION SPECTRUM VIA TRANSITION ELECTRIC DIPOLE MOMENTS
-----------------------------------------------------------------------------
State   Energy    Wavelength  fosc         T2        TX        TY        TZ  
        (cm-1)      (nm)                 (au**2)    (au)      (au)      (au) 
-----------------------------------------------------------------------------
   1   27259.4    366.8   0.713838908   8.62104   1.70219   1.76366  -1.61651
   2   29299.7    341.3   0.434035404   4.87683   1.49778  -0.93947  -1.32321
   3   36866.6    271.2   0.037858686   0.33807  -0.35480   0.38970   0.24559
   4   35508.0    281.6   0.374503753   3.47220  -0.99676   1.34443   0.81926
   5   36482.3    274.1   0.008460042   0.07634   0.18740  -0.16132  -0.12329
   6   38412.0    260.3   0.025113044   0.21523  -0.00451  -0.39984   0.23524
   7   41797.2    239.3   0.009583579   0.07548  -0.14179  -0.17525  -0.15706
   8   42257.4    236.6   0.014632307   0.11399   0.03715   0.18438  -0.28039
   9   43375.6    230.5   0.007699217   0.05844  -0.04451   0.13976   0.19215
  10   43071.1    232.2   0.062450248   0.47734   0.01366   0.58570  -0.36619

-----------------------------------------------------------------------------
         ABSORPTION SPECTRUM VIA TRANSITION VELOCITY DIPOLE MOMENTS
-----------------------------------------------------------------------------
State   Energy    Wavelength   fosc        P2         PX        PY        PZ  
        (cm-1)      (nm)                 (au**2)     (au)      (au)      (au) 
-----------------------------------------------------------------------------
   1   27259.4    366.8   0.384990414   0.07173  -0.17520  -0.12478   0.15956
   2   29299.7    341.3   0.095304239   0.01908  -0.09532   0.05632   0.08263
   3   36866.6    271.2   0.017913058   0.00451   0.04166  -0.03937  -0.03505
   4   35508.0    281.6   0.265217161   0.06436   0.16337  -0.14048  -0.13394
   5   36482.3    274.1   0.004192423   0.00105  -0.02091   0.01005   0.02252
   6   38412.0    260.3   0.003296577   0.00087   0.00061   0.02877  -0.00612
   7   41797.2    239.3   0.007990061   0.00228   0.02120   0.02471   0.03496
   8   42257.4    236.6   0.007717113   0.00223  -0.01104  -0.01921   0.04169
   9   43375.6    230.5   0.005685711   0.00169   0.01300  -0.03019  -0.02460
  10   43071.1    232.2   0.021667665   0.00638  -0.03772  -0.06162   0.03403

-------------------------------------------------------------------
                             CD SPECTRUM
-------------------------------------------------------------------
State  Energy     Wavelength     R         MX        MY        MZ   
       (cm-1)       (nm)     (1e40*cgs)   (au)      (au)      (au)  
-------------------------------------------------------------------
   1   27259.4    366.8     54.74828  -0.04707   0.02592  -0.09312
   2   29299.7    341.3    -31.34849   0.45625   0.05775   0.52569
   3   36866.6    271.2     25.82694   0.07338   0.14937   0.09205
   4   35508.0    281.6    -66.88685   0.05419  -0.05297  -0.02031
   5   36482.3    274.1     -3.83819  -0.11060  -0.00193  -0.09955
   6   38412.0    260.3     14.66216   0.21225   0.02946   0.18635
   7   41797.2    239.3     -5.50177   0.12818   0.11188  -0.16627
   8   42257.4    236.6    -10.77350   0.07384  -0.13839   0.00028
   9   43375.6    230.5      7.60330   0.01434   0.06276   0.04160
  10   43071.1    232.2     22.57676   0.15401   0.19176   0.18168

-------------------------------------------------------------------
         CD SPECTRUM VIA TRANSITION VELOCITY DIPOLE MOMENTS        
-------------------------------------------------------------------
State  Energy     Wavelength     R         MX        MY        MZ   
       (cm-1)       (nm)     (1e40*cgs)   (au)      (au)      (au)  
-------------------------------------------------------------------
   1   27259.4    366.8    -37.37413  -0.04707   0.02592  -0.09312
   2   29299.7    341.3     11.30916   0.45625   0.05775   0.52569
   3   36866.6    271.2    -16.97979   0.07338   0.14937   0.09205
   4   35508.0    281.6     55.41022   0.05419  -0.05297  -0.02031
   5   36482.3    274.1      0.14749  -0.11060  -0.00193  -0.09955
   6   38412.0    260.3     -0.43978   0.21225   0.02946   0.18635
   7   41797.2    239.3     -0.81792   0.12818   0.11188  -0.16627
   8   42257.4    236.6      4.54321   0.07384  -0.13839   0.00028
   9   43375.6    230.5     -6.51640   0.01434   0.06276   0.04160
  10   43071.1    232.2    -27.49442   0.15401   0.19176   0.18168

Total run time:    15265.261 sec

           *** ORCA-CIS/TD-DFT FINISHED WITHOUT ERROR ***

Maximum memory used throughout the entire CIS-calculation: 1835.0 MB

-----------------------
CIS/TD-DFT TOTAL ENERGY
-----------------------

    E(SCF)  =   -932.050271347 Eh
    DE(CIS) =      0.124202956 Eh (Root  1)
    ----------------------------- ---------
    E(tot)  =   -931.926068391 Eh



-------------------------------------------------------------------------------
                          DFT DISPERSION CORRECTION                            
                                                                               
                              DFTD3 V3.1  Rev 1                                
                          USING Becke-Johnson damping                          
-------------------------------------------------------------------------------
The B2GP-PLYP functional is recognized
Active option DFTDOPT                   ...         4   

molecular C6(AA) [au] = 18378.086656 


            DFT-D V3
 parameters
 s6 scaling factor         :     0.5600 
 a1 scaling factor         :     0.0000 
 s8 scaling factor         :     0.2597 
 a2 scaling factor         :     6.3332 
 ad hoc parameters k1-k3   :    16.0000     1.3333    -4.0000 

 Edisp/kcal,au: -19.042992625868  -0.030346937188 
 E6   /kcal   : -14.785770431 
 E8   /kcal   :  -4.257222194 
 % E8         :  22.355846469 

-------------------------   ----------------
Dispersion correction           -0.030346937
-------------------------   ----------------


-------------------------   --------------------
FINAL SINGLE POINT ENERGY      -931.956415328032
-------------------------   --------------------


                            ***************************************
                            *     ORCA property calculations      *
                            ***************************************


  WARNING: The energy has been calculated at the MP2 level but the densities
           used in the property calculations are still SCF densities
           MP2 response densities have not been calculated 
           use %mp2 Density relaxed end
           or  %mp2 Density unrelaxed end

                                    ---------------------
                                    Active property flags
                                    ---------------------
   (+) Dipole Moment


------------------------------------------------------------------------------
                       ORCA ELECTRIC PROPERTIES CALCULATION
------------------------------------------------------------------------------

Dipole Moment Calculation                       ... on
Quadrupole Moment Calculation                   ... off
Polarizability Calculation                      ... off
GBWName                                         ... optpbed3-b2gp-plyp-train-8_job2.gbw
Electron density                                ... optpbed3-b2gp-plyp-train-8_job2.scfp
The origin for moment calculation is the CENTER OF MASS  = ( 0.517259,  0.265287 -0.474594)

-------------
DIPOLE MOMENT
-------------
                                X             Y             Z
Electronic contribution:      8.05496       1.98262      -7.21062
Nuclear contribution   :     -9.28114      -4.89093       8.51039
                        -----------------------------------------
Total Dipole Moment    :     -1.22618      -2.90831       1.29977
                        -----------------------------------------
Magnitude (a.u.)       :      3.41338
Magnitude (Debye)      :      8.67613



--------------------
Rotational spectrum 
--------------------
 
Rotational constants in cm-1:     0.016013     0.004624     0.003658 
Rotational constants in MHz :   480.048236   138.633052   109.677431 

 Dipole components along the rotational axes: 
x,y,z [a.u.] :    -2.179053    -2.619576    -0.201835 
x,y,z [Debye]:    -5.538711    -6.658434    -0.513024 

 

Timings for individual modules:

Sum of individual times         ...    18621.650 sec (= 310.361 min)
GTO integral calculation        ...        6.526 sec (=   0.109 min)   0.0 %
SCF iterations                  ...     1528.873 sec (=  25.481 min)   8.2 %
MP2 module                      ...     1818.797 sec (=  30.313 min)   9.8 %
CIS module                      ...    15267.454 sec (= 254.458 min)  82.0 %



                             ****ORCA TERMINATED NORMALLY****
TOTAL RUN TIME: 0 days 7 hours 59 minutes 49 seconds 394 msec
