
                                 *****************
                                 * O   R   C   A *
                                 *****************

                                            #,                                       
                                            ###                                      
                                            ####                                     
                                            #####                                    
                                            ######                                   
                                           ########,                                 
                                     ,,################,,,,,                         
                               ,,#################################,,                 
                          ,,##########################################,,             
                       ,#########################################, ''#####,          
                    ,#############################################,,   '####,        
                  ,##################################################,,,,####,       
                ,###########''''           ''''###############################       
              ,#####''   ,,,,##########,,,,          '''####'''          '####       
            ,##' ,,,,###########################,,,                        '##       
           ' ,,###''''                  '''############,,,                           
         ,,##''                                '''############,,,,        ,,,,,,###''
      ,#''                                            '''#######################'''  
     '                                                          ''''####''''         
             ,#######,   #######,   ,#######,      ##                                
            ,#'     '#,  ##    ##  ,#'     '#,    #''#        ######   ,####,        
            ##       ##  ##   ,#'  ##            #'  '#       #        #'  '#        
            ##       ##  #######   ##           ,######,      #####,   #    #        
            '#,     ,#'  ##    ##  '#,     ,#' ,#      #,         ##   #,  ,#        
             '#######'   ##     ##  '#######'  #'      '#     #####' # '####'        



                  #######################################################
                  #                        -***-                        #
                  #          Department of theory and spectroscopy      #
                  #    Directorship and core code : Frank Neese         #
                  #        Max Planck Institute fuer Kohlenforschung    #
                  #                Kaiser Wilhelm Platz 1               #
                  #                 D-45470 Muelheim/Ruhr               #
                  #                      Germany                        #
                  #                                                     #
                  #                  All rights reserved                #
                  #                        -***-                        #
                  #######################################################


                         Program Version 5.0.2 -  RELEASE  -


 With contributions from (in alphabetic order):
   Daniel Aravena         : Magnetic Suceptibility
   Michael Atanasov       : Ab Initio Ligand Field Theory (pilot matlab implementation)
   Alexander A. Auer      : GIAO ZORA, VPT2 properties, NMR spectrum
   Ute Becker             : Parallelization
   Giovanni Bistoni       : ED, misc. LED, open-shell LED, HFLD
   Martin Brehm           : Molecular dynamics
   Dmytro Bykov           : SCF Hessian
   Vijay G. Chilkuri      : MRCI spin determinant printing, contributions to CSF-ICE
   Dipayan Datta          : RHF DLPNO-CCSD density
   Achintya Kumar Dutta   : EOM-CC, STEOM-CC
   Dmitry Ganyushin       : Spin-Orbit,Spin-Spin,Magnetic field MRCI
   Miquel Garcia          : C-PCM and meta-GGA Hessian, CC/C-PCM, Gaussian charge scheme
   Yang Guo               : DLPNO-NEVPT2, F12-NEVPT2, CIM, IAO-localization
   Andreas Hansen         : Spin unrestricted coupled pair/coupled cluster methods
   Benjamin Helmich-Paris : MC-RPA, TRAH-SCF, COSX integrals
   Lee Huntington         : MR-EOM, pCC
   Robert Izsak           : Overlap fitted RIJCOSX, COSX-SCS-MP3, EOM
   Marcus Kettner         : VPT2
   Christian Kollmar      : KDIIS, OOCD, Brueckner-CCSD(T), CCSD density, CASPT2, CASPT2-K
   Simone Kossmann        : Meta GGA functionals, TD-DFT gradient, OOMP2, MP2 Hessian
   Martin Krupicka        : Initial AUTO-CI
   Lucas Lang             : DCDCAS
   Marvin Lechner         : AUTO-CI (C++ implementation), FIC-MRCC
   Dagmar Lenk            : GEPOL surface, SMD
   Dimitrios Liakos       : Extrapolation schemes; Compound Job, initial MDCI parallelization
   Dimitrios Manganas     : Further ROCIS development; embedding schemes
   Dimitrios Pantazis     : SARC Basis sets
   Anastasios Papadopoulos: AUTO-CI, single reference methods and gradients
   Taras Petrenko         : DFT Hessian,TD-DFT gradient, ASA, ECA, R-Raman, ABS, FL, XAS/XES, NRVS
   Peter Pinski           : DLPNO-MP2, DLPNO-MP2 Gradient
   Christoph Reimann      : Effective Core Potentials
   Marius Retegan         : Local ZFS, SOC
   Christoph Riplinger    : Optimizer, TS searches, QM/MM, DLPNO-CCSD(T), (RO)-DLPNO pert. Triples
   Tobias Risthaus        : Range-separated hybrids, TD-DFT gradient, RPA, STAB
   Michael Roemelt        : Original ROCIS implementation
   Masaaki Saitow         : Open-shell DLPNO-CCSD energy and density
   Barbara Sandhoefer     : DKH picture change effects
   Avijit Sen             : IP-ROCIS
   Kantharuban Sivalingam : CASSCF convergence, NEVPT2, FIC-MRCI
   Bernardo de Souza      : ESD, SOC TD-DFT
   Georgi Stoychev        : AutoAux, RI-MP2 NMR, DLPNO-MP2 response
   Willem Van den Heuvel  : Paramagnetic NMR
   Boris Wezisla          : Elementary symmetry handling
   Frank Wennmohs         : Technical directorship


 We gratefully acknowledge several colleagues who have allowed us to
 interface, adapt or use parts of their codes:
   Stefan Grimme, W. Hujo, H. Kruse, P. Pracht,  : VdW corrections, initial TS optimization,
                  C. Bannwarth, S. Ehlert          DFT functionals, gCP, sTDA/sTD-DF
   Ed Valeev, F. Pavosevic, A. Kumar             : LibInt (2-el integral package), F12 methods
   Garnet Chan, S. Sharma, J. Yang, R. Olivares  : DMRG
   Ulf Ekstrom                                   : XCFun DFT Library
   Mihaly Kallay                                 : mrcc  (arbitrary order and MRCC methods)
   Jiri Pittner, Ondrej Demel                    : Mk-CCSD
   Frank Weinhold                                : gennbo (NPA and NBO analysis)
   Christopher J. Cramer and Donald G. Truhlar   : smd solvation model
   Lars Goerigk                                  : TD-DFT with DH, B97 family of functionals
   V. Asgeirsson, H. Jonsson                     : NEB implementation
   FAccTs GmbH                                   : IRC, NEB, NEB-TS, DLPNO-Multilevel, CI-OPT
                                                   MM, QMMM, 2- and 3-layer-ONIOM, Crystal-QMMM,
                                                   LR-CPCM, SF, NACMEs, symmetry and pop. for TD-DFT,
                                                   nearIR, NL-DFT gradient (VV10), updates on ESD,
                                                   ML-optimized integration grids
   S Lehtola, MJT Oliveira, MAL Marques          : LibXC Library
   Liviu Ungur et al                             : ANISO software


 Your calculation uses the libint2 library for the computation of 2-el integrals
 For citations please refer to: http://libint.valeyev.net

 Your ORCA version has been built with support for libXC version: 5.1.0
 For citations please refer to: https://tddft.org/programs/libxc/

 This ORCA versions uses:
   CBLAS   interface :  Fast vector & matrix operations
   LAPACKE interface :  Fast linear algebra routines
   SCALAPACK package :  Parallel linear algebra routines
   Shared memory     :  Shared parallel matrices
   BLAS/LAPACK       :  OpenBLAS 0.3.15  USE64BITINT DYNAMIC_ARCH NO_AFFINITY Sandybridge SINGLE_THREADED
        Core in use  :  Sandybridge
   Copyright (c) 2011-2014, The OpenBLAS Project


Your calculation utilizes the atom-pairwise dispersion correction
with the zero-damping scheme (D30)
Cite in your paper:
S.Grimme, J.Antony, S.Ehrlich and H.Krieg, J.Chem.Phys., 132, (2010), 154104 
   

Your calculation utilizes the SMD solvation module
Please cite in your paper:
A.V. Marenich, C.J. Cramer, D.G. Truhlar J. Phys. Chem. B, 113, (2009), 6378 

XCFun DFT library Copyright 2009-2010 Ulf Ekstrom and contributors.
See http://admol.org/xcfun for more information.
This is free software; see the source code for copying conditions.
There is ABSOLUTELY NO WARRANTY; not even for MERCHANTABILITY or FITNESS FOR A PARTICULAR PURPOSE.
For details see the documentation.
Scientific users of this library should cite U. Ekstrom, L. Visscher, R. Bast, A. J. Thorvaldsen and K. Ruud;
J.Chem.Theor.Comp. 2010, DOI: 10.1021/ct100117s
XCFun Version 0.99 

================================================================================

----- Orbital basis set information -----
Your calculation utilizes the basis: aug-cc-pVTZ 
    H, B-Ne : Obtained from the ccRepo (grant-hill.group.shef.ac.uk/ccrepo) Feb. 2017
              R. A. Kendall, T. H. Dunning, Jr., R. J. Harrison, J. Chem. Phys. 96, 6796 (1992)
         He : Obtained from the ccRepo (grant-hill.group.shef.ac.uk/ccrepo) Feb. 2017
              D. E. Woon, T. H. Dunning, Jr., J. Chem. Phys. 100, 2975 (1994)
  Li-Be, Na : Obtained from the ccRepo (grant-hill.group.shef.ac.uk/ccrepo) Feb. 2017
              B. P. Prascher, D. E. Woon, K. A. Peterson, T. H. Dunning, Jr., A. K. Wilson, Theor. Chem. Acc. 128, 69 (2011)
         Mg : Obtained from the Peterson Research Group Website (tyr0.chem.wsu.edu/~kipeters) Feb. 2017
              B. P. Prascher, D. E. Woon, K. A. Peterson, T. H. Dunning, Jr., A. K. Wilson, Theor. Chem. Acc. 128, 69 (2011)
      Al-Ar : Obtained from the ccRepo (grant-hill.group.shef.ac.uk/ccrepo) Feb. 2017
              D. E. Woon, T. H. Dunning, Jr., J. Chem. Phys. 98, 1358 (1993)
      Sc-Zn : Obtained from the ccRepo (grant-hill.group.shef.ac.uk/ccrepo) Feb. 2017
              N. B. Balabanov, K. A. Peterson, J. Chem. Phys. 123, 064107 (2005)
              N. B. Balabanov, K. A. Peterson, J. Chem. Phys. 125, 074110 (2006)
      Ga-Kr : Obtained from the ccRepo (grant-hill.group.shef.ac.uk/ccrepo) Feb. 2017
              A. K. Wilson, D. E. Woon, K. A. Peterson, T. H. Dunning, Jr., J. Chem. Phys. 110, 7667 (1999)
     Ag, Au : Obtained from the Peterson Research Group Website (tyr0.chem.wsu.edu/~kipeters) Feb. 2017
              K. A. Peterson, C. Puzzarini, Theor. Chem. Acc. 114, 283 (2005)

The basis set includes element-specific modifications.

Your calculation utilizes the basis: cc-pVTZ 
       H, B-Ne : Obtained from the ccRepo (grant-hill.group.shef.ac.uk/ccrepo) Feb. 2017
                 T. H. Dunning, Jr., J. Chem. Phys. 90, 1007 (1989)
            He : Obtained from the ccRepo (grant-hill.group.shef.ac.uk/ccrepo) Feb. 2017
                 D. E. Woon, T. H. Dunning, Jr., J. Chem. Phys. 100, 2975 (1994)
  Li-Be, Na-Mg : Obtained from the ccRepo (grant-hill.group.shef.ac.uk/ccrepo) Feb. 2017
                 B. P. Prascher, D. E. Woon, K. A. Peterson, T. H. Dunning, Jr., A. K. Wilson, Theor. Chem. Acc. 128, 69 (2011)
         Al-Ar : Obtained from the ccRepo (grant-hill.group.shef.ac.uk/ccrepo) Feb. 2017
                 D. E. Woon, T. H. Dunning, Jr., J. Chem. Phys. 98, 1358 (1993)
            Ca : Obtained from the Peterson Research Group Website (tyr0.chem.wsu.edu/~kipeters) Feb. 2017
                 J. Koput, K. A. Peterson, J. Phys. Chem. 106, 9595 (2002)
         Sc-Zn : Obtained from the ccRepo (grant-hill.group.shef.ac.uk/ccrepo) Feb. 2017
                 N. B. Balabanov, K. A. Peterson, J. Chem. Phys. 123, 064107 (2005)
                 N. B. Balabanov, K. A. Peterson, J. Chem. Phys. 125, 074110 (2006)
         Ga-Kr : Obtained from the ccRepo (grant-hill.group.shef.ac.uk/ccrepo) Feb. 2017
                 A. K. Wilson, D. E. Woon, K. A. Peterson, T. H. Dunning, Jr., J. Chem. Phys. 110, 7667 (1999)
             Y : Obtained from the ccRepo (grant-hill.group.shef.ac.uk/ccrepo) Feb. 2017
                 K. A. Peterson, D. Figgen, M. Dolg, H. Stoll, J. Chem. Phys. 126, 124101 (2007)
        Ag, Au : Obtained from the Peterson Research Group Website (tyr0.chem.wsu.edu/~kipeters) Feb. 2017
                 K. A. Peterson, C. Puzzarini, Theor. Chem. Acc. 114, 283 (2005)

----- AuxJ basis set information -----
Your calculation utilizes the auxiliary basis: aug-cc-pVTZ/JK 
  H, B-F, Al-Cl, Ga-Br : Obtained from the TURBOMOLE 7.0 basis set library

The basis set includes element-specific modifications.

Your calculation utilizes the auxiliary basis: cc-pVTZ/JK 
  H, B-F, Al-Cl, Ga-Br : Obtained from the TURBOMOLE 7.0 basis set library

----- AuxC basis set information -----
Your calculation utilizes the auxiliary basis: aug-cc-pVTZ/C 
  H-He, B-F, Al-Ar, Ga-Kr : Obtained from the EMSL Basis Set Exchange (bse.pnl.gov) Feb. 2017
                            F. Weigend, A. Kohn, C. Hattig, J. Chem. Phys. 116, 3175 (2002)
                   Be, Mg : Obtained from the TURBOMOLE 7.0 basis set library
                            C. Haettig, Phys. Chem. Chem. Phys. 7, 59 (2005)
                       Ne : Obtained from the EMSL Basis Set Exchange (bse.pnl.gov) Feb. 2017
                            C. Haettig, Phys. Chem. Chem. Phys. 7, 59 (2005)
                            F. Weigend, A. Kohn, C. Hattig, J. Chem. Phys. 116, 3175 (2002)
                    Sc-Zn : Obtained from the EMSL Basis Set Exchange (bse.pnl.gov) Feb. 2017
                            J. G. Hill, J. A. Platts, J. Chem. Phys. 128, 044104 (2008)

The basis set includes element-specific modifications.

Your calculation utilizes the auxiliary basis: cc-pVTZ/C 
  Obtained from the EMSL Basis Set Exchange (bse.pnl.gov) Feb. 2017
  H-He, B-F, Al-Ar, Ga-Kr : F. Weigend, A. Kohn, C. Hattig, J. Chem. Phys. 116, 3175 (2002)
             Li-Be, Na-Mg : C. Haettig, Phys. Chem. Chem. Phys. 7, 59 (2005)
                       Ne : C. Haettig, Phys. Chem. Chem. Phys. 7, 59 (2005)
                            F. Weigend, A. Kohn, C. Hattig, J. Chem. Phys. 116, 3175 (2002)
                    Sc-Zn : J. G. Hill, J. A. Platts, J. Chem. Phys. 128, 044104 (2008)

================================================================================
                                        WARNINGS
                       Please study these warnings very carefully!
================================================================================


WARNING: Geometry Optimization
  ===> : Switching off AutoStart
         For restart on a previous wavefunction, please use MOREAD

INFO   : the flag for use of the SHARK integral package has been found!



***************************************
The coordinates will be read from file: 
***************************************


Your calculation utilizes the atom-pairwise dispersion correction
with the zero-damping scheme (D30)
Cite in your paper:
S.Grimme, J.Antony, S.Ehrlich and H.Krieg, J.Chem.Phys., 132, (2010), 154104 
   

Your calculation utilizes the SMD solvation module
Please cite in your paper:
A.V. Marenich, C.J. Cramer, D.G. Truhlar J. Phys. Chem. B, 113, (2009), 6378 

XCFun DFT library Copyright 2009-2010 Ulf Ekstrom and contributors.
See http://admol.org/xcfun for more information.
This is free software; see the source code for copying conditions.
There is ABSOLUTELY NO WARRANTY; not even for MERCHANTABILITY or FITNESS FOR A PARTICULAR PURPOSE.
For details see the documentation.
Scientific users of this library should cite U. Ekstrom, L. Visscher, R. Bast, A. J. Thorvaldsen and K. Ruud;
J.Chem.Theor.Comp. 2010, DOI: 10.1021/ct100117s
XCFun Version 0.99 

================================================================================

----- Orbital basis set information -----
Your calculation utilizes the basis: aug-cc-pVTZ 
    H, B-Ne : Obtained from the ccRepo (grant-hill.group.shef.ac.uk/ccrepo) Feb. 2017
              R. A. Kendall, T. H. Dunning, Jr., R. J. Harrison, J. Chem. Phys. 96, 6796 (1992)
         He : Obtained from the ccRepo (grant-hill.group.shef.ac.uk/ccrepo) Feb. 2017
              D. E. Woon, T. H. Dunning, Jr., J. Chem. Phys. 100, 2975 (1994)
  Li-Be, Na : Obtained from the ccRepo (grant-hill.group.shef.ac.uk/ccrepo) Feb. 2017
              B. P. Prascher, D. E. Woon, K. A. Peterson, T. H. Dunning, Jr., A. K. Wilson, Theor. Chem. Acc. 128, 69 (2011)
         Mg : Obtained from the Peterson Research Group Website (tyr0.chem.wsu.edu/~kipeters) Feb. 2017
              B. P. Prascher, D. E. Woon, K. A. Peterson, T. H. Dunning, Jr., A. K. Wilson, Theor. Chem. Acc. 128, 69 (2011)
      Al-Ar : Obtained from the ccRepo (grant-hill.group.shef.ac.uk/ccrepo) Feb. 2017
              D. E. Woon, T. H. Dunning, Jr., J. Chem. Phys. 98, 1358 (1993)
      Sc-Zn : Obtained from the ccRepo (grant-hill.group.shef.ac.uk/ccrepo) Feb. 2017
              N. B. Balabanov, K. A. Peterson, J. Chem. Phys. 123, 064107 (2005)
              N. B. Balabanov, K. A. Peterson, J. Chem. Phys. 125, 074110 (2006)
      Ga-Kr : Obtained from the ccRepo (grant-hill.group.shef.ac.uk/ccrepo) Feb. 2017
              A. K. Wilson, D. E. Woon, K. A. Peterson, T. H. Dunning, Jr., J. Chem. Phys. 110, 7667 (1999)
     Ag, Au : Obtained from the Peterson Research Group Website (tyr0.chem.wsu.edu/~kipeters) Feb. 2017
              K. A. Peterson, C. Puzzarini, Theor. Chem. Acc. 114, 283 (2005)

The basis set includes element-specific modifications.

Your calculation utilizes the basis: cc-pVTZ 
       H, B-Ne : Obtained from the ccRepo (grant-hill.group.shef.ac.uk/ccrepo) Feb. 2017
                 T. H. Dunning, Jr., J. Chem. Phys. 90, 1007 (1989)
            He : Obtained from the ccRepo (grant-hill.group.shef.ac.uk/ccrepo) Feb. 2017
                 D. E. Woon, T. H. Dunning, Jr., J. Chem. Phys. 100, 2975 (1994)
  Li-Be, Na-Mg : Obtained from the ccRepo (grant-hill.group.shef.ac.uk/ccrepo) Feb. 2017
                 B. P. Prascher, D. E. Woon, K. A. Peterson, T. H. Dunning, Jr., A. K. Wilson, Theor. Chem. Acc. 128, 69 (2011)
         Al-Ar : Obtained from the ccRepo (grant-hill.group.shef.ac.uk/ccrepo) Feb. 2017
                 D. E. Woon, T. H. Dunning, Jr., J. Chem. Phys. 98, 1358 (1993)
            Ca : Obtained from the Peterson Research Group Website (tyr0.chem.wsu.edu/~kipeters) Feb. 2017
                 J. Koput, K. A. Peterson, J. Phys. Chem. 106, 9595 (2002)
         Sc-Zn : Obtained from the ccRepo (grant-hill.group.shef.ac.uk/ccrepo) Feb. 2017
                 N. B. Balabanov, K. A. Peterson, J. Chem. Phys. 123, 064107 (2005)
                 N. B. Balabanov, K. A. Peterson, J. Chem. Phys. 125, 074110 (2006)
         Ga-Kr : Obtained from the ccRepo (grant-hill.group.shef.ac.uk/ccrepo) Feb. 2017
                 A. K. Wilson, D. E. Woon, K. A. Peterson, T. H. Dunning, Jr., J. Chem. Phys. 110, 7667 (1999)
             Y : Obtained from the ccRepo (grant-hill.group.shef.ac.uk/ccrepo) Feb. 2017
                 K. A. Peterson, D. Figgen, M. Dolg, H. Stoll, J. Chem. Phys. 126, 124101 (2007)
        Ag, Au : Obtained from the Peterson Research Group Website (tyr0.chem.wsu.edu/~kipeters) Feb. 2017
                 K. A. Peterson, C. Puzzarini, Theor. Chem. Acc. 114, 283 (2005)

----- AuxJ basis set information -----
Your calculation utilizes the auxiliary basis: aug-cc-pVTZ/JK 
  H, B-F, Al-Cl, Ga-Br : Obtained from the TURBOMOLE 7.0 basis set library

The basis set includes element-specific modifications.

Your calculation utilizes the auxiliary basis: cc-pVTZ/JK 
  H, B-F, Al-Cl, Ga-Br : Obtained from the TURBOMOLE 7.0 basis set library

----- AuxC basis set information -----
Your calculation utilizes the auxiliary basis: aug-cc-pVTZ/C 
  H-He, B-F, Al-Ar, Ga-Kr : Obtained from the EMSL Basis Set Exchange (bse.pnl.gov) Feb. 2017
                            F. Weigend, A. Kohn, C. Hattig, J. Chem. Phys. 116, 3175 (2002)
                   Be, Mg : Obtained from the TURBOMOLE 7.0 basis set library
                            C. Haettig, Phys. Chem. Chem. Phys. 7, 59 (2005)
                       Ne : Obtained from the EMSL Basis Set Exchange (bse.pnl.gov) Feb. 2017
                            C. Haettig, Phys. Chem. Chem. Phys. 7, 59 (2005)
                            F. Weigend, A. Kohn, C. Hattig, J. Chem. Phys. 116, 3175 (2002)
                    Sc-Zn : Obtained from the EMSL Basis Set Exchange (bse.pnl.gov) Feb. 2017
                            J. G. Hill, J. A. Platts, J. Chem. Phys. 128, 044104 (2008)

The basis set includes element-specific modifications.

Your calculation utilizes the auxiliary basis: cc-pVTZ/C 
  Obtained from the EMSL Basis Set Exchange (bse.pnl.gov) Feb. 2017
  H-He, B-F, Al-Ar, Ga-Kr : F. Weigend, A. Kohn, C. Hattig, J. Chem. Phys. 116, 3175 (2002)
             Li-Be, Na-Mg : C. Haettig, Phys. Chem. Chem. Phys. 7, 59 (2005)
                       Ne : C. Haettig, Phys. Chem. Chem. Phys. 7, 59 (2005)
                            F. Weigend, A. Kohn, C. Hattig, J. Chem. Phys. 116, 3175 (2002)
                    Sc-Zn : J. G. Hill, J. A. Platts, J. Chem. Phys. 128, 044104 (2008)

================================================================================
                                        WARNINGS
                       Please study these warnings very carefully!
================================================================================

INFO   : Checking CIS options ...

INFO   : the flag for use of the SHARK integral package has been found!

================================================================================
                                       INPUT FILE
================================================================================
NAME = wb97x-d3-train-8.inp
|  1> ! wb97x-d3 aug-cc-PVTZ RIJCOSX Opt
|  2> %maxcore 4000
|  3> %basis
|  4>  AuxJ "aug-cc-PVTZ/JK"
|  5>  AuxC "aug-cc-PVTZ/C"
|  6>  newGTO H "cc-PVTZ" end
|  7>  newAuxJGTO H "cc-PVTZ/JK" end
|  8>  newAuxCGTO H "cc-PVTZ/C" end
|  9> end
| 10> %cpcm
| 11>  SMD true
| 12>  SMDsolvent "dichloromethane"
| 13> end
| 14> %pal nprocs 4 end
| 15> * xyz 0 1
| 16> N          5.18490        2.63730       -4.83100
| 17> C          4.41990        2.18600       -4.10520
| 18> C          3.47960        1.62540       -3.21360
| 19> C          3.81050        0.48660       -2.47740
| 20> C          2.89070       -0.06950       -1.61400
| 21> C          1.61870        0.49270       -1.47470
| 22> C          0.61840       -0.03480       -0.57060
| 23> N         -0.23240        0.73970        0.07850
| 24> C         -0.98250       -0.03610        0.88210
| 25> C         -1.98970        0.53960        1.75660
| 26> C         -2.34920       -0.05530        2.96470
| 27> C         -3.31410        0.52360        3.76750
| 28> C         -3.92820        1.70400        3.38340
| 29> C         -3.56060        2.31420        2.19460
| 30> C         -2.59840        1.73970        1.38830
| 31> C         -0.61200       -1.37630        0.69960
| 32> C         -1.07960       -2.61750        1.16040
| 33> C         -0.51410       -3.76710        0.69320
| 34> C          0.51450       -3.70090       -0.27770
| 35> C          0.95240       -2.50220       -0.73580
| 36> N          0.42230       -1.34920       -0.24000
| 37> C          1.30890        1.65410       -2.19150
| 38> C          2.22270        2.21520       -3.05360
| 39> H          4.79400        0.05190       -2.58240
| 40> H          3.18170       -0.91920       -1.01440
| 41> H         -1.85040       -0.95500        3.29260
| 42> H         -3.58420        0.05460        4.70290
| 43> H         -4.68310        2.15140        4.01310
| 44> H         -4.02820        3.24160        1.89740
| 45> H         -2.29980        2.20590        0.46230
| 46> H         -1.89870       -2.63830        1.86010
| 47> H         -0.85840       -4.73030        1.03380
| 48> H          0.93860       -4.60940       -0.67300
| 49> H          1.69130       -2.40820       -1.51490
| 50> H          0.33660        2.09850       -2.05020
| 51> H          1.97830        3.10720       -3.61130
| 52> *
| 53> 
| 54> 
| 55> $new_job
| 56> ! wb97x-d3 aug-cc-PVTZ RIJCOSX SP
| 57> %maxcore 4000
| 58> %basis
| 59>  AuxJ "aug-cc-PVTZ/JK"
| 60>  AuxC "aug-cc-PVTZ/C"
| 61>  newGTO H "cc-PVTZ" end
| 62>  newAuxJGTO H "cc-PVTZ/JK" end
| 63>  newAuxCGTO H "cc-PVTZ/C" end
| 64> end
| 65> %cpcm
| 66>  SMD true
| 67>  SMDsolvent "dichloromethane"
| 68> end
| 69> %pal nprocs 4 end
| 70> %tddft
| 71>  nroots 10
| 72>  maxdim 7
| 73> end
| 74> * xyzfile 0 1
| 75> 
| 76>                          ****END OF INPUT****
================================================================================


                 $$$$$$$$$$$$$$$$$$$$$$$$$$$$$$$$$$$$$$$$$$$$$$ 
                 $ THERE ARE  2 JOBS TO BE PROCESSED THIS RUN $
                 $$$$$$$$$$$$$$$$$$$$$$$$$$$$$$$$$$$$$$$$$$$$$$ 




                 $$$$$$$$$$$$$$$$  JOB NUMBER  1 $$$$$$$$$$$$$$


                       *****************************
                       * Geometry Optimization Run *
                       *****************************

Geometry optimization settings:
Update method            Update   .... BFGS
Choice of coordinates    CoordSys .... Z-matrix Internals
Initial Hessian          InHess   .... Almoef's Model

Convergence Tolerances:
Energy Change            TolE     ....  5.0000e-06 Eh
Max. Gradient            TolMAXG  ....  3.0000e-04 Eh/bohr
RMS Gradient             TolRMSG  ....  1.0000e-04 Eh/bohr
Max. Displacement        TolMAXD  ....  4.0000e-03 bohr
RMS Displacement         TolRMSD  ....  2.0000e-03 bohr
Strict Convergence                ....  False
------------------------------------------------------------------------------
                        ORCA OPTIMIZATION COORDINATE SETUP
------------------------------------------------------------------------------

The optimization will be done in new redundant internal coordinates
Making redundant internal coordinates   ...  (new redundants) done
Evaluating the initial hessian          ...  (Almloef) done
Evaluating the coordinates              ...  done
Calculating the B-matrix                .... done
Calculating the G-matrix                .... done
Diagonalizing the G-matrix              .... done
Small eigenvalue found = 3.244e-03
Small eigenvalue found = 9.716e-03
Small eigenvalue found = 1.644e-02
The first mode is                       ....   92
The number of degrees of freedom        ....  102

    -----------------------------------------------------------------
                    Redundant Internal Coordinates


    -----------------------------------------------------------------
         Definition                    Initial Value    Approx d2E/dq
    -----------------------------------------------------------------
      1. B(C   1,N   0)                  1.1470         1.366204   
      2. B(C   2,C   1)                  1.4119         0.576555   
      3. B(C   3,C   2)                  1.3958         0.611550   
      4. B(C   4,C   3)                  1.3787         0.651344   
      5. B(C   5,C   4)                  1.3977         0.607457   
      6. B(C   6,C   5)                  1.4478         0.505186   
      7. B(N   7,C   6)                  1.3210         0.721041   
      8. B(C   8,N   7)                  1.3455         0.659054   
      9. B(C   9,C   8)                  1.4528         0.496070   
     10. B(C  10,C   9)                  1.3938         0.616157   
     11. B(C  11,C  10)                  1.3823         0.642815   
     12. B(C  12,C  11)                  1.3849         0.636572   
     13. B(C  13,C  12)                  1.3859         0.634278   
     14. B(C  14,C  13)                  1.3806         0.646798   
     15. B(C  14,C   9)                  1.3951         0.613122   
     16. B(C  15,C   8)                  1.4024         0.596984   
     17. B(C  16,C  15)                  1.4041         0.593205   
     18. B(C  17,C  16)                  1.3637         0.688204   
     19. B(C  18,C  17)                  1.4160         0.567887   
     20. B(C  19,C  18)                  1.3559         0.708151   
     21. B(N  20,C  19)                  1.3624         0.619229   
     22. B(N  20,C  15)                  1.3976         0.544137   
     23. B(N  20,C   6)                  1.3695         0.603474   
     24. B(C  21,C   5)                  1.3995         0.603345   
     25. B(C  22,C  21)                  1.3759         0.658031   
     26. B(C  22,C   2)                  1.3976         0.607613   
     27. B(H  23,C   3)                  1.0804         0.373028   
     28. B(H  24,C   4)                  1.0799         0.373707   
     29. B(H  25,C  10)                  1.0797         0.373969   
     30. B(H  26,C  11)                  1.0807         0.372631   
     31. B(H  27,C  12)                  1.0801         0.373471   
     32. B(H  28,C  13)                  1.0803         0.373163   
     33. B(H  29,C  14)                  1.0789         0.375116   
     34. B(H  30,C  16)                  1.0775         0.377066   
     35. B(H  31,C  17)                  1.0781         0.376188   
     36. B(H  32,C  18)                  1.0777         0.376707   
     37. B(H  33,C  19)                  1.0779         0.376508   
     38. B(H  34,C  21)                  1.0783         0.375855   
     39. B(H  35,C  22)                  1.0800         0.373559   
     40. L(N   0,C   1,C   2,C   3, 1) 179.8343         0.491563   
     41. L(N   0,C   1,C   2,C   3, 2) 180.3074         0.491563   
     42. A(C   1,C   2,C  22)          120.2439         0.426891   
     43. A(C   3,C   2,C  22)          119.8095         0.431428   
     44. A(C   1,C   2,C   3)          119.9427         0.427386   
     45. A(C   4,C   3,H  23)          120.3910         0.358010   
     46. A(C   2,C   3,C   4)          120.0812         0.436857   
     47. A(C   2,C   3,H  23)          119.5250         0.354199   
     48. A(C   5,C   4,H  24)          120.4243         0.353906   
     49. A(C   3,C   4,C   5)          120.4873         0.436329   
     50. A(C   3,C   4,H  24)          119.0330         0.358121   
     51. A(C   4,C   5,C   6)          122.9876         0.416916   
     52. A(C   6,C   5,C  21)          117.9849         0.416412   
     53. A(C   4,C   5,C  21)          118.9614         0.430363   
     54. A(C   5,C   6,N  20)          126.8247         0.413734   
     55. A(N   7,C   6,N  20)          110.6024         0.438068   
     56. A(C   5,C   6,N   7)          122.5610         0.427083   
     57. A(C   6,N   7,C   8)          108.3294         0.445099   
     58. A(C   9,C   8,C  15)          129.8057         0.414284   
     59. A(N   7,C   8,C  15)          109.0273         0.433033   
     60. A(N   7,C   8,C   9)          121.1669         0.418912   
     61. A(C  10,C   9,C  14)          118.9101         0.432712   
     62. A(C   8,C   9,C  14)          118.9762         0.416254   
     63. A(C   8,C   9,C  10)          122.1019         0.416620   
     64. A(C   9,C  10,H  25)          119.9825         0.354802   
     65. A(C   9,C  10,C  11)          120.3118         0.436411   
     66. A(C  11,C  10,H  25)          119.6755         0.357362   
     67. A(C  12,C  11,H  26)          119.9423         0.356553   
     68. A(C  10,C  11,C  12)          120.3589         0.438983   
     69. A(C  10,C  11,H  26)          119.6974         0.357144   
     70. A(C  11,C  12,C  13)          119.7066         0.437926   
     71. A(C  13,C  12,H  27)          120.2056         0.356471   
     72. A(C  11,C  12,H  27)          120.0849         0.356689   
     73. A(C  12,C  13,H  28)          119.9438         0.356421   
     74. A(C  14,C  13,H  28)          119.8831         0.357606   
     75. A(C  12,C  13,C  14)          120.1731         0.439187   
     76. A(C  13,C  14,H  29)          120.9541         0.357924   
     77. A(C   9,C  14,H  29)          118.5244         0.354689   
     78. A(C   9,C  14,C  13)          120.5215         0.436508   
     79. A(C  16,C  15,N  20)          118.9610         0.417959   
     80. A(C   8,C  15,C  16)          135.5676         0.427720   
     81. A(C   8,C  15,N  20)          105.3354         0.418432   
     82. A(C  17,C  16,H  30)          121.4299         0.362048   
     83. A(C  15,C  16,H  30)          118.9040         0.353020   
     84. A(C  15,C  16,C  17)          119.6474         0.438799   
     85. A(C  18,C  17,H  31)          119.3651         0.350288   
     86. A(C  16,C  17,H  31)          120.8300         0.361904   
     87. A(C  16,C  17,C  18)          119.7839         0.435362   
     88. A(C  19,C  18,H  32)          119.6190         0.363760   
     89. A(C  17,C  18,H  32)          119.8637         0.350370   
     90. A(C  17,C  18,C  19)          120.5032         0.437610   
     91. A(N  20,C  19,H  33)          117.1265         0.353316   
     92. A(C  18,C  19,H  33)          122.8673         0.363727   
     93. A(C  18,C  19,N  20)          119.9704         0.441581   
     94. A(C  15,N  20,C  19)          121.0761         0.418438   
     95. A(C   6,N  20,C  19)          131.9662         0.426247   
     96. A(C   6,N  20,C  15)          106.6711         0.416522   
     97. A(C  22,C  21,H  34)          120.8557         0.359094   
     98. A(C   5,C  21,H  34)          118.3254         0.353842   
     99. A(C   5,C  21,C  22)          120.8188         0.436598   
    100. A(C  21,C  22,H  35)          120.6689         0.358720   
    101. A(C   2,C  22,H  35)          119.5342         0.353897   
    102. A(C   2,C  22,C  21)          119.7968         0.437153   
    103. D(H  23,C   3,C   2,C   1)      1.1283         0.025837   
    104. D(H  23,C   3,C   2,C  22)   -178.1565         0.025837   
    105. D(C   4,C   3,C   2,C  22)      1.2392         0.025837   
    106. D(C   4,C   3,C   2,C   1)   -179.4760         0.025837   
    107. D(C   5,C   4,C   3,H  23)    179.8778         0.029548   
    108. D(H  24,C   4,C   3,H  23)      2.5713         0.029548   
    109. D(H  24,C   4,C   3,C   2)   -176.8191         0.029548   
    110. D(C   5,C   4,C   3,C   2)      0.4874         0.029548   
    111. D(C   6,C   5,C   4,H  24)     -1.8143         0.025473   
    112. D(C  21,C   5,C   4,H  24)    175.1657         0.025473   
    113. D(C  21,C   5,C   4,C   3)     -2.1031         0.025473   
    114. D(C   6,C   5,C   4,C   3)   -179.0831         0.025473   
    115. D(N  20,C   6,C   5,C   4)    -33.7883         0.017388   
    116. D(N   7,C   6,C   5,C   4)    144.8359         0.017388   
    117. D(N   7,C   6,C   5,C  21)    -32.1719         0.017388   
    118. D(N  20,C   6,C   5,C  21)    149.2039         0.017388   
    119. D(C   8,N   7,C   6,N  20)      1.8340         0.039162   
    120. D(C   8,N   7,C   6,C   5)   -176.9896         0.039162   
    121. D(C  15,C   8,N   7,C   6)     -1.8723         0.032175   
    122. D(C   9,C   8,N   7,C   6)    178.2378         0.032175   
    123. D(C  14,C   9,C   8,C  15)   -151.8989         0.016759   
    124. D(C  10,C   9,C   8,C  15)     29.3619         0.016759   
    125. D(C  14,C   9,C   8,N   7)     27.9655         0.016759   
    126. D(C  10,C   9,C   8,N   7)   -150.7737         0.016759   
    127. D(H  25,C  10,C   9,C  14)   -176.6379         0.026251   
    128. D(H  25,C  10,C   9,C   8)      2.1022         0.026251   
    129. D(C  11,C  10,C   9,C  14)      1.3575         0.026251   
    130. D(C  11,C  10,C   9,C   8)   -179.9024         0.026251   
    131. D(H  26,C  11,C  10,C   9)   -179.9135         0.028726   
    132. D(C  12,C  11,C  10,H  25)    177.6519         0.028726   
    133. D(C  12,C  11,C  10,C   9)     -0.3497         0.028726   
    134. D(H  26,C  11,C  10,H  25)     -1.9119         0.028726   
    135. D(H  27,C  12,C  11,H  26)     -0.5667         0.028134   
    136. D(H  27,C  12,C  11,C  10)    179.8706         0.028134   
    137. D(C  13,C  12,C  11,H  26)    178.8227         0.028134   
    138. D(C  13,C  12,C  11,C  10)     -0.7400         0.028134   
    139. D(H  28,C  13,C  12,H  27)      0.1630         0.027919   
    140. D(C  14,C  13,C  12,H  27)   -179.8098         0.027919   
    141. D(C  14,C  13,C  12,C  11)      0.8015         0.027919   
    142. D(H  28,C  13,C  12,C  11)   -179.2257         0.027919   
    143. D(H  29,C  14,C  13,H  28)      0.2777         0.029108   
    144. D(C   9,C  14,C  13,H  28)   -179.7474         0.029108   
    145. D(C   9,C  14,C  13,C  12)      0.2254         0.029108   
    146. D(H  29,C  14,C   9,C  10)    178.6780         0.025978   
    147. D(H  29,C  14,C   9,C   8)     -0.1020         0.025978   
    148. D(H  29,C  14,C  13,C  12)   -179.7495         0.029108   
    149. D(C  13,C  14,C   9,C  10)     -1.2975         0.025978   
    150. D(C  13,C  14,C   9,C   8)    179.9225         0.025978   
    151. D(N  20,C  15,C   8,C   9)   -178.9291         0.024555   
    152. D(N  20,C  15,C   8,N   7)      1.1937         0.024555   
    153. D(C  16,C  15,C   8,C   9)      5.5642         0.024555   
    154. D(C  16,C  15,C   8,N   7)   -174.3130         0.024555   
    155. D(H  30,C  16,C  15,N  20)   -178.0038         0.024230   
    156. D(H  30,C  16,C  15,C   8)     -2.9575         0.024230   
    157. D(C  17,C  16,C  15,N  20)      0.4438         0.024230   
    158. D(C  17,C  16,C  15,C   8)    175.4901         0.024230   
    159. D(H  31,C  17,C  16,H  30)     -1.5758         0.033264   
    160. D(H  31,C  17,C  16,C  15)   -179.9830         0.033264   
    161. D(C  18,C  17,C  16,H  30)    176.7475         0.033264   
    162. D(C  18,C  17,C  16,C  15)     -1.6598         0.033264   
    163. D(H  32,C  18,C  17,C  16)   -177.8789         0.022115   
    164. D(C  19,C  18,C  17,H  31)    179.0957         0.022115   
    165. D(C  19,C  18,C  17,C  16)      0.7477         0.022115   
    166. D(H  32,C  18,C  17,H  31)      0.4691         0.022115   
    167. D(H  33,C  19,C  18,H  32)      2.3116         0.035389   
    168. D(H  33,C  19,C  18,C  17)   -176.3184         0.035389   
    169. D(N  20,C  19,C  18,H  32)   -179.9271         0.035389   
    170. D(N  20,C  19,C  18,C  17)      1.4430         0.035389   
    171. D(C  15,N  20,C  19,H  33)    175.1871         0.031043   
    172. D(C   6,N  20,C  19,H  33)      2.2182         0.031043   
    173. D(C   6,N  20,C  19,C  18)   -175.6692         0.031043   
    174. D(C  19,N  20,C  15,C  16)      1.7607         0.023573   
    175. D(C  19,N  20,C  15,C   8)   -174.6455         0.023573   
    176. D(C   6,N  20,C  15,C  16)    176.3088         0.023573   
    177. D(C   6,N  20,C  15,C   8)     -0.0973         0.023573   
    178. D(C  19,N  20,C   6,N   7)    172.6553         0.029369   
    179. D(C  19,N  20,C   6,C   5)     -8.5834         0.029369   
    180. D(C  15,N  20,C  19,C  18)     -2.7003         0.031043   
    181. D(C  15,N  20,C   6,N   7)     -1.0616         0.029369   
    182. D(C  15,N  20,C   6,C   5)    177.6997         0.029369   
    183. D(H  34,C  21,C   5,C   6)     -0.7738         0.025110   
    184. D(H  34,C  21,C   5,C   4)   -177.9054         0.025110   
    185. D(C  22,C  21,C   5,C   6)    179.1588         0.025110   
    186. D(C  22,C  21,C   5,C   4)      2.0273         0.025110   
    187. D(H  35,C  22,C  21,H  34)     -0.5438         0.030202   
    188. D(H  35,C  22,C  21,C   5)    179.5253         0.030202   
    189. D(C   2,C  22,C  21,H  34)    179.6031         0.030202   
    190. D(C   2,C  22,C  21,C   5)     -0.3278         0.030202   
    191. D(H  35,C  22,C   2,C   3)    178.8277         0.025487   
    192. D(H  35,C  22,C   2,C   1)     -0.4550         0.025487   
    193. D(C  21,C  22,C   2,C   3)     -1.3175         0.025487   
    194. D(C  21,C  22,C   2,C   1)    179.3998         0.025487   
    -----------------------------------------------------------------

Number of atoms                         .... 36
Number of degrees of freedom            .... 194

         *************************************************************
         *                GEOMETRY OPTIMIZATION CYCLE   1            *
         *************************************************************
---------------------------------
CARTESIAN COORDINATES (ANGSTROEM)
---------------------------------
  N      5.184900    2.637300   -4.831000
  C      4.419900    2.186000   -4.105200
  C      3.479600    1.625400   -3.213600
  C      3.810500    0.486600   -2.477400
  C      2.890700   -0.069500   -1.614000
  C      1.618700    0.492700   -1.474700
  C      0.618400   -0.034800   -0.570600
  N     -0.232400    0.739700    0.078500
  C     -0.982500   -0.036100    0.882100
  C     -1.989700    0.539600    1.756600
  C     -2.349200   -0.055300    2.964700
  C     -3.314100    0.523600    3.767500
  C     -3.928200    1.704000    3.383400
  C     -3.560600    2.314200    2.194600
  C     -2.598400    1.739700    1.388300
  C     -0.612000   -1.376300    0.699600
  C     -1.079600   -2.617500    1.160400
  C     -0.514100   -3.767100    0.693200
  C      0.514500   -3.700900   -0.277700
  C      0.952400   -2.502200   -0.735800
  N      0.422300   -1.349200   -0.240000
  C      1.308900    1.654100   -2.191500
  C      2.222700    2.215200   -3.053600
  H      4.794000    0.051900   -2.582400
  H      3.181700   -0.919200   -1.014400
  H     -1.850400   -0.955000    3.292600
  H     -3.584200    0.054600    4.702900
  H     -4.683100    2.151400    4.013100
  H     -4.028200    3.241600    1.897400
  H     -2.299800    2.205900    0.462300
  H     -1.898700   -2.638300    1.860100
  H     -0.858400   -4.730300    1.033800
  H      0.938600   -4.609400   -0.673000
  H      1.691300   -2.408200   -1.514900
  H      0.336600    2.098500   -2.050200
  H      1.978300    3.107200   -3.611300

----------------------------
CARTESIAN COORDINATES (A.U.)
----------------------------
  NO LB      ZA    FRAG     MASS         X           Y           Z
   0 N     7.0000    0    14.007    9.798041    4.983775   -9.129267
   1 C     6.0000    0    12.011    8.352401    4.130941   -7.757704
   2 C     6.0000    0    12.011    6.575491    3.071561   -6.072824
   3 C     6.0000    0    12.011    7.200801    0.919541   -4.681608
   4 C     6.0000    0    12.011    5.462631   -0.131336   -3.050018
   5 C     6.0000    0    12.011    3.058900    0.931068   -2.786779
   6 C     6.0000    0    12.011    1.168607   -0.065762   -1.078278
   7 N     7.0000    0    14.007   -0.439172    1.397830    0.148344
   8 C     6.0000    0    12.011   -1.856656   -0.068219    1.666927
   9 C     6.0000    0    12.011   -3.759988    1.019696    3.319493
  10 C     6.0000    0    12.011   -4.439345   -0.104502    5.602471
  11 C     6.0000    0    12.011   -6.262741    0.989461    7.119543
  12 C     6.0000    0    12.011   -7.423222    3.220093    6.393699
  13 C     6.0000    0    12.011   -6.728559    4.373204    4.147193
  14 C     6.0000    0    12.011   -4.910264    3.287557    2.623507
  15 C     6.0000    0    12.011   -1.156512   -2.600830    1.322052
  16 C     6.0000    0    12.011   -2.040148   -4.946358    2.192838
  17 C     6.0000    0    12.011   -0.971508   -7.118787    1.309958
  18 C     6.0000    0    12.011    0.972264   -6.993687   -0.524777
  19 C     6.0000    0    12.011    1.799775   -4.728473   -1.390460
  20 N     7.0000    0    14.007    0.798031   -2.549618   -0.453534
  21 C     6.0000    0    12.011    2.473463    3.125796   -4.141335
  22 C     6.0000    0    12.011    4.200294    4.186121   -5.770468
  23 H     1.0000    0     1.008    9.059347    0.098077   -4.880029
  24 H     1.0000    0     1.008    6.012542   -1.737036   -1.916938
  25 H     1.0000    0     1.008   -3.496749   -1.804688    6.222112
  26 H     1.0000    0     1.008   -6.773156    0.103179    8.887193
  27 H     1.0000    0     1.008   -8.849776    4.065557    7.583660
  28 H     1.0000    0     1.008   -7.612195    6.125736    3.585566
  29 H     1.0000    0     1.008   -4.345992    4.168547    0.873620
  30 H     1.0000    0     1.008   -3.588023   -4.985664    3.515080
  31 H     1.0000    0     1.008   -1.622141   -8.938972    1.953599
  32 H     1.0000    0     1.008    1.773697   -8.710504   -1.271786
  33 H     1.0000    0     1.008    3.196094   -4.550838   -2.862746
  34 H     1.0000    0     1.008    0.636082    3.965590   -3.874317
  35 H     1.0000    0     1.008    3.738445    5.871757   -6.824368

--------------------------------
INTERNAL COORDINATES (ANGSTROEM)
--------------------------------
 N      0   0   0     0.000000000000     0.00000000     0.00000000
 C      1   0   0     1.147031965553     0.00000000     0.00000000
 C      2   1   0     1.411873581451   179.77426088     0.00000000
 C      3   2   1     1.395833331741   119.94267171    42.91912473
 C      4   3   2     1.378672843716   120.08120920   180.52399094
 C      5   4   3     1.397661378875   120.48733929     0.48738086
 C      6   5   4     1.447844311382   122.98760458   180.91691956
 N      7   6   5     1.321000264951   122.56101179   144.83593418
 C      8   7   6     1.345469661494   108.32938227   183.01044991
 C      9   8   7     1.452801631332   121.16687516   178.23783160
 C     10   9   8     1.393790468471   122.10194969   209.22627035
 C     11  10   9     1.382260850925   120.31180781   180.09761119
 C     12  11  10     1.384917246625   120.35885971   359.65030705
 C     13  12  11     1.385900155134   119.70663025   359.25998970
 C     14  13  12     1.380579146590   120.17310418     0.80150756
 C      9   8   7     1.402395286644   109.02729902   358.12765066
 C     16   9   8     1.404123869180   135.56757434   185.68696703
 C     17  16   9     1.363688472489   119.64737273   175.49007563
 C     18  17  16     1.415996896183   119.78386728   358.34022893
 C     19  18  17     1.355910657086   120.50315643     0.74774191
 N     20  19  18     1.362436292089   119.97040061     1.44295906
 C      6   5   4     1.399509999964   118.96138927   357.89691764
 C     22   6   5     1.375892459460   120.81879486     2.02725001
 H      4   3   2     1.080398694927   119.52501394     1.12833019
 H      5   4   3     1.079903352157   119.03301629   183.18091223
 H     11  10   9     1.079712897024   119.98251081     2.10220481
 H     12  11  10     1.080688747975   119.69741459   180.08651148
 H     13  12  11     1.080075395516   120.08494675   179.87055610
 H     14  13  12     1.080300124965   119.94376423   180.77429327
 H     15  14  13     1.078879233279   120.95409524   180.25047641
 H     17  16   9     1.077468115538   118.90400545   357.04250399
 H     18  17  16     1.078102541505   120.83001163   180.01696401
 H     19  18  17     1.077726843871   119.86372154   182.12113306
 H     20  19  18     1.077871059079   122.86732489   183.68159367
 H     22   6   5     1.078343331226   118.32542446   182.09463109
 H     23  22   6     1.080011411977   120.66885369   179.52532369

---------------------------
INTERNAL COORDINATES (A.U.)
---------------------------
 N      0   0   0     0.000000000000     0.00000000     0.00000000
 C      1   0   0     2.167576281748     0.00000000     0.00000000
 C      2   1   0     2.668054404661   179.77426088     0.00000000
 C      3   2   1     2.637742725590   119.94267171    42.91912473
 C      4   3   2     2.605314102898   120.08120920   180.52399094
 C      5   4   3     2.641197234033   120.48733929     0.48738086
 C      6   5   4     2.736029233067   122.98760458   180.91691956
 N      7   6   5     2.496328723594   122.56101179   144.83593418
 C      8   7   6     2.542569181723   108.32938227   183.01044991
 C      9   8   7     2.745397210131   121.16687516   178.23783160
 C     10   9   8     2.633882273480   122.10194969   209.22627035
 C     11  10   9     2.612094453889   120.31180781   180.09761119
 C     12  11  10     2.617114314266   120.35885971   359.65030705
 C     13  12  11     2.618971742162   119.70663025   359.25998970
 C     14  13  12     2.608916493258   120.17310418     0.80150756
 C      9   8   7     2.650143023258   109.02729902   358.12765066
 C     16   9   8     2.653409570851   135.56757434   185.68696703
 C     17  16   9     2.576997744990   119.64737273   175.49007563
 C     18  17  16     2.675846340268   119.78386728   358.34022893
 C     19  18  17     2.562299803958   120.50315643     0.74774191
 N     20  19  18     2.574631466963   119.97040061     1.44295906
 C      6   5   4     2.644690621617   118.96138927   357.89691764
 C     22   6   5     2.600059938108   120.81879486     2.02725001
 H      4   3   2     2.041657648858   119.52501394     1.12833019
 H      5   4   3     2.040721586680   119.03301629   183.18091223
 H     11  10   9     2.040361678638   119.98251081     2.10220481
 H     12  11  10     2.042205769683   119.69741459   180.08651148
 H     13  12  11     2.041046701513   120.08494675   179.87055610
 H     14  13  12     2.041471378625   119.94376423   180.77429327
 H     15  14  13     2.038786282472   120.95409524   180.25047641
 H     17  16   9     2.036119656398   118.90400545   357.04250399
 H     18  17  16     2.037318547729   120.83001163   180.01696401
 H     19  18  17     2.036608582091   119.86372154   182.12113306
 H     20  19  18     2.036881109339   122.86732489   183.68159367
 H     22   6   5     2.037773574358   118.32542446   182.09463109
 H     23  22   6     2.040925790146   120.66885369   179.52532369

---------------------
BASIS SET INFORMATION
---------------------
There are 3 groups of distinct atoms

 Group   1 Type N   : 19s6p3d2f contracted to 5s4p3d2f pattern {88111/3111/111/11}
 Group   2 Type C   : 19s6p3d2f contracted to 5s4p3d2f pattern {88111/3111/111/11}
 Group   3 Type H   : 5s2p1d contracted to 3s2p1d pattern {311/11/1}

Atom   0N    basis set group =>   1
Atom   1C    basis set group =>   2
Atom   2C    basis set group =>   2
Atom   3C    basis set group =>   2
Atom   4C    basis set group =>   2
Atom   5C    basis set group =>   2
Atom   6C    basis set group =>   2
Atom   7N    basis set group =>   1
Atom   8C    basis set group =>   2
Atom   9C    basis set group =>   2
Atom  10C    basis set group =>   2
Atom  11C    basis set group =>   2
Atom  12C    basis set group =>   2
Atom  13C    basis set group =>   2
Atom  14C    basis set group =>   2
Atom  15C    basis set group =>   2
Atom  16C    basis set group =>   2
Atom  17C    basis set group =>   2
Atom  18C    basis set group =>   2
Atom  19C    basis set group =>   2
Atom  20N    basis set group =>   1
Atom  21C    basis set group =>   2
Atom  22C    basis set group =>   2
Atom  23H    basis set group =>   3
Atom  24H    basis set group =>   3
Atom  25H    basis set group =>   3
Atom  26H    basis set group =>   3
Atom  27H    basis set group =>   3
Atom  28H    basis set group =>   3
Atom  29H    basis set group =>   3
Atom  30H    basis set group =>   3
Atom  31H    basis set group =>   3
Atom  32H    basis set group =>   3
Atom  33H    basis set group =>   3
Atom  34H    basis set group =>   3
Atom  35H    basis set group =>   3
---------------------------------
AUXILIARY/J BASIS SET INFORMATION
---------------------------------
There are 3 groups of distinct atoms

 Group   1 Type N   : 10s7p5d2f1g contracted to 10s7p5d2f1g pattern {1111111111/1111111/11111/11/1}
 Group   2 Type C   : 10s7p5d2f1g contracted to 10s7p5d2f1g pattern {1111111111/1111111/11111/11/1}
 Group   3 Type H   : 4s3p2d1f contracted to 4s3p2d1f pattern {1111/111/11/1}

Atom   0N    basis set group =>   1
Atom   1C    basis set group =>   2
Atom   2C    basis set group =>   2
Atom   3C    basis set group =>   2
Atom   4C    basis set group =>   2
Atom   5C    basis set group =>   2
Atom   6C    basis set group =>   2
Atom   7N    basis set group =>   1
Atom   8C    basis set group =>   2
Atom   9C    basis set group =>   2
Atom  10C    basis set group =>   2
Atom  11C    basis set group =>   2
Atom  12C    basis set group =>   2
Atom  13C    basis set group =>   2
Atom  14C    basis set group =>   2
Atom  15C    basis set group =>   2
Atom  16C    basis set group =>   2
Atom  17C    basis set group =>   2
Atom  18C    basis set group =>   2
Atom  19C    basis set group =>   2
Atom  20N    basis set group =>   1
Atom  21C    basis set group =>   2
Atom  22C    basis set group =>   2
Atom  23H    basis set group =>   3
Atom  24H    basis set group =>   3
Atom  25H    basis set group =>   3
Atom  26H    basis set group =>   3
Atom  27H    basis set group =>   3
Atom  28H    basis set group =>   3
Atom  29H    basis set group =>   3
Atom  30H    basis set group =>   3
Atom  31H    basis set group =>   3
Atom  32H    basis set group =>   3
Atom  33H    basis set group =>   3
Atom  34H    basis set group =>   3
Atom  35H    basis set group =>   3
---------------------------------
AUXILIARY/C BASIS SET INFORMATION
---------------------------------
There are 3 groups of distinct atoms

 Group   1 Type N   : 9s7p6d4f2g contracted to 9s7p6d4f2g pattern {111111111/1111111/111111/1111/11}
 Group   2 Type C   : 9s7p6d4f2g contracted to 9s7p6d4f2g pattern {111111111/1111111/111111/1111/11}
 Group   3 Type H   : 4s3p2d1f contracted to 4s3p2d1f pattern {1111/111/11/1}

Atom   0N    basis set group =>   1
Atom   1C    basis set group =>   2
Atom   2C    basis set group =>   2
Atom   3C    basis set group =>   2
Atom   4C    basis set group =>   2
Atom   5C    basis set group =>   2
Atom   6C    basis set group =>   2
Atom   7N    basis set group =>   1
Atom   8C    basis set group =>   2
Atom   9C    basis set group =>   2
Atom  10C    basis set group =>   2
Atom  11C    basis set group =>   2
Atom  12C    basis set group =>   2
Atom  13C    basis set group =>   2
Atom  14C    basis set group =>   2
Atom  15C    basis set group =>   2
Atom  16C    basis set group =>   2
Atom  17C    basis set group =>   2
Atom  18C    basis set group =>   2
Atom  19C    basis set group =>   2
Atom  20N    basis set group =>   1
Atom  21C    basis set group =>   2
Atom  22C    basis set group =>   2
Atom  23H    basis set group =>   3
Atom  24H    basis set group =>   3
Atom  25H    basis set group =>   3
Atom  26H    basis set group =>   3
Atom  27H    basis set group =>   3
Atom  28H    basis set group =>   3
Atom  29H    basis set group =>   3
Atom  30H    basis set group =>   3
Atom  31H    basis set group =>   3
Atom  32H    basis set group =>   3
Atom  33H    basis set group =>   3
Atom  34H    basis set group =>   3
Atom  35H    basis set group =>   3


           ************************************************************
           *        Program running with 4 parallel MPI-processes     *
           *              working on a common directory               *
           ************************************************************
------------------------------------------------------------------------------
                           ORCA GTO INTEGRAL CALCULATION
                           -- RI-GTO INTEGRALS CHOSEN --
------------------------------------------------------------------------------
------------------------------------------------------------------------------
                   ___                                                        
                  /   \      - P O W E R E D   B Y -                         
                 /     \                                                     
                 |  |  |   _    _      __       _____    __    __             
                 |  |  |  | |  | |    /  \     |  _  \  |  |  /  |          
                  \  \/   | |  | |   /    \    | | | |  |  | /  /          
                 / \  \   | |__| |  /  /\  \   | |_| |  |  |/  /          
                |  |  |   |  __  | /  /__\  \  |    /   |      \           
                |  |  |   | |  | | |   __   |  |    \   |  |\   \          
                \     /   | |  | | |  |  |  |  | |\  \  |  | \   \       
                 \___/    |_|  |_| |__|  |__|  |_| \__\ |__|  \__/        
                                                                              
                      - O R C A' S   B I G   F R I E N D -                    
                                      &                                       
                       - I N T E G R A L  F E E D E R -                       
                                                                              
 v1 FN, 2020, v2 2021                                                         
------------------------------------------------------------------------------


Reading SHARK input file wb97x-d3-train-8.SHARKINP.tmp ... ok
----------------------
SHARK INTEGRAL PACKAGE
----------------------

Number of atoms                             ...     36
Number of basis functions                   ...   1378
Number of shells                            ...    538
Maximum angular momentum                    ...      3
Integral batch strategy                     ... SHARK/LIBINT Hybrid
RI-J (if used) integral strategy            ... SPLIT-RIJ (Revised 2003 algorithm where possible)
Printlevel                                  ...      1
Contraction scheme used                     ... PARTIAL GENERAL contraction
Coulomb Range Separation                    ... NOT USED
Exchange Range Separation                   ... Long Range
   Mu parameter                             ...  0.250000
   Scaling (regular/separated)              ...  0.195728  0.804272
Finite Nucleus Model                        ... NOT USED
Auxiliary Coulomb fitting basis             ... AVAILABLE
   # of basis functions in Aux-J            ...   2207
   # of shells in Aux-J                     ...    705
   Maximum angular momentum in Aux-J        ...      4
Auxiliary J/K fitting basis                 ... NOT available
Auxiliary Correlation fitting basis         ... AVAILABLE
   # of basis functions in Aux-C            ...   2828
   # of shells in Aux-C                     ...    774
   Maximum angular momentum in Aux-C        ...      4
Auxiliary 'external' fitting basis          ... NOT available
Integral threshold                          ...     2.500000e-11
Primitive cut-off                           ...     2.500000e-12
Primitive pair pre-selection threshold      ...     2.500000e-12

Calculating pre-screening integrals         ... done (  0.4 sec) Dimension = 538
Calculating pre-screening integrals (ORCA)  ... done (  0.8 sec) Dimension = 400
Organizing shell pair data                  ... done (  1.1 sec)
Shell pair information
Total number of shell pairs                 ...    144991
Shell pairs after pre-screening             ...     90098
Total number of primitive shell pairs       ...    186463
Primitive shell pairs kept                  ...    104895
          la=0 lb=0:  20220 shell pairs
          la=1 lb=0:  23003 shell pairs
          la=1 lb=1:   5578 shell pairs
          la=2 lb=0:  15193 shell pairs
          la=2 lb=1:   7482 shell pairs
          la=2 lb=2:   2581 shell pairs
          la=3 lb=0:   8248 shell pairs
          la=3 lb=1:   4150 shell pairs
          la=3 lb=2:   2831 shell pairs
          la=3 lb=3:    812 shell pairs

Calculating one electron integrals          ... done (  0.3 sec)
Calculating RI/J V-Matrix + Cholesky decomp.... done (  0.4 sec)
Calculating RI/C V-Matrix + Cholesky decomp.... done (  1.0 sec)
Calculating Nuclear repulsion               ... done (  0.0 sec) ENN=   1643.797506415183 Eh

SHARK setup successfully completed in   5.5 seconds

Maximum memory used throughout the entire GTOINT-calculation: 142.8 MB


           ************************************************************
           *        Program running with 4 parallel MPI-processes     *
           *              working on a common directory               *
           ************************************************************
-------------------------------------------------------------------------------
                                 ORCA SCF
-------------------------------------------------------------------------------

------------
SCF SETTINGS
------------
Hamiltonian:
 Density Functional     Method          .... DFT(GTOs)
 Exchange Functional    Exchange        .... WB97X-D3
 Correlation Functional Correlation     .... WB97X-D3
 Gradients option       PostSCFGGA      .... off
 Hybrid DFT is turned on
   Fraction HF Exchange ScalHFX         ....  0.195728
   Scaling of DF-GGA-X  ScalDFX         ....  0.000000
   Scaling of DF-GGA-C  ScalDFC         ....  1.000000
   Scaling of DF-LDA-C  ScalLDAC        ....  1.000000
   Perturbative correction              ....  0.000000
   Density functional embedding theory  .... OFF
 Long-range corrected/Screened/Range-Separated Hybrid DFT is turned on
   Amount of maximum screened exact exchange              ....  0.804272
   Range separation parameter mu (erf(mu*r12)/r12)        ....  0.250000
 RI-approximation to the Coulomb term is turned on
   Number of AuxJ basis functions       .... 2207
   RIJ-COSX (HFX calculated with COS-X)).... on


General Settings:
 Integral files         IntName         .... wb97x-d3-train-8
 Hartree-Fock type      HFTyp           .... RHF
 Total Charge           Charge          ....    0
 Multiplicity           Mult            ....    1
 Number of Electrons    NEL             ....  154
 Basis Dimension        Dim             .... 1240
 Nuclear Repulsion      ENuc            ....   1643.7975064152 Eh

Convergence Acceleration:
 DIIS                   CNVDIIS         .... on
   Start iteration      DIISMaxIt       ....    12
   Startup error        DIISStart       ....  0.200000
   # of expansion vecs  DIISMaxEq       ....     5
   Bias factor          DIISBfac        ....   1.050
   Max. coefficient     DIISMaxC        ....  10.000
 Trust-Rad. Augm. Hess. CNVTRAH         .... auto
   Auto Start mean grad. ratio tolernc. ....  1.125000
   Auto Start start iteration           ....    20
   Auto Start num. interpolation iter.  ....    10
   Max. Number of Micro iterations      ....    16
   Max. Number of Macro iterations      .... Maxiter - #DIIS iter
   Number of Davidson start vectors     ....     2
   Converg. threshold I  (grad. norm)   ....   1.000e-05
   Converg. threshold II (energy diff.) ....   1.000e-08
   Grad. Scal. Fac. for Micro threshold ....   0.100
   Minimum threshold for Micro iter.    ....   0.010
   NR start threshold (gradient norm)   ....   0.001
   Initial trust radius                 ....   0.400
   Minimum AH scaling param. (alpha)    ....   1.000
   Maximum AH scaling param. (alpha)    .... 1000.000
   Orbital update algorithm             .... Taylor
   White noise on init. David. guess    .... on
   Maximum white noise                  ....   0.010
   Quad. conv. algorithm                .... NR
 SOSCF                  CNVSOSCF        .... on
   Start iteration      SOSCFMaxIt      ....   150
   Startup grad/error   SOSCFStart      ....  0.003300
 Level Shifting         CNVShift        .... on
   Level shift para.    LevelShift      ....    0.2500
   Turn off err/grad.   ShiftErr        ....    0.0010
 Zerner damping         CNVZerner       .... off
 Static damping         CNVDamp         .... on
   Fraction old density DampFac         ....    0.7000
   Max. Damping (<1)    DampMax         ....    0.9800
   Min. Damping (>=0)   DampMin         ....    0.0000
   Turn off err/grad.   DampErr         ....    0.1000
 Fernandez-Rico         CNVRico         .... off

SCF Procedure:
 Maximum # iterations   MaxIter         ....   125
 SCF integral mode      SCFMode         .... Direct
   Integral package                     .... SHARK and LIBINT hybrid scheme
 Reset frequency        DirectResetFreq ....    20
 Integral Threshold     Thresh          ....  2.500e-11 Eh
 Primitive CutOff       TCut            ....  2.500e-12 Eh

Convergence Tolerance:
 Convergence Check Mode ConvCheckMode   .... Total+1el-Energy
 Convergence forced     ConvForced      .... 0
 Energy Change          TolE            ....  1.000e-08 Eh
 1-El. energy change                    ....  1.000e-05 Eh
 Orbital Gradient       TolG            ....  1.000e-05
 Orbital Rotation angle TolX            ....  1.000e-05
 DIIS Error             TolErr          ....  5.000e-07


Diagonalization of the overlap matrix:
Smallest eigenvalue                        ... 4.177e-07
Time for diagonalization                   ...    0.390 sec
Threshold for overlap eigenvalues          ... 1.000e-08
Number of eigenvalues below threshold      ... 0
Time for construction of square roots      ...    0.265 sec
Total time needed                          ...    0.663 sec

Time for model grid setup =    0.907 sec

------------------------------
INITIAL GUESS: MODEL POTENTIAL
------------------------------
Loading Hartree-Fock densities                     ... done
Calculating cut-offs                               ... done
Initializing the effective Hamiltonian             ... done
Setting up the integral package (SHARK)            ... done
Starting the Coulomb interaction                   ... done (   3.4 sec)
Reading the grid                                   ... done
Mapping shells                                     ... done
Starting the XC term evaluation                    ... done (   2.8 sec)
  promolecular density results
     # of electrons  =    153.987063990
     EX              =   -125.820587775
     EC              =     -5.171789174
     EX+EC           =   -130.992376949
Transforming the Hamiltonian                       ... done (   0.2 sec)
Diagonalizing the Hamiltonian                      ... done (   0.5 sec)
Back transforming the eigenvectors                 ... done (   0.1 sec)
Now organizing SCF variables                       ... done
                      ------------------
                      INITIAL GUESS DONE (   8.1 sec)
                      ------------------
-------------------
DFT GRID GENERATION
-------------------

General Integration Accuracy     IntAcc      ... 4.388
Radial Grid Type                 RadialGrid  ... OptM3 with GC (2021)
Angular Grid (max. ang.)         AngularGrid ... 4 (Lebedev-302)
Angular grid pruning method      GridPruning ... 4 (adaptive)
Weight generation scheme         WeightScheme... Becke
Basis function cutoff            BFCut       ... 1.0000e-11
Integration weight cutoff        WCut        ... 1.0000e-14
Angular grids for H and He will be reduced by one unit
Partially contracted basis set               ... off
Rotationally invariant grid construction     ... off

Total number of grid points                  ...   184761
Total number of batches                      ...     2905
Average number of points per batch           ...       63
Average number of grid points per atom       ...     5132
Time for grid setup =    2.937 sec

--------------------
COSX GRID GENERATION
--------------------

GRIDX 1
-------
General Integration Accuracy     IntAcc      ... 3.816
Radial Grid Type                 RadialGrid  ... OptM3 with GC (2021)
Angular Grid (max. ang.)         AngularGrid ... 1 (Lebedev-50)
Angular grid pruning method      GridPruning ... 4 (adaptive)
Weight generation scheme         WeightScheme... Becke
Basis function cutoff            BFCut       ... 1.0000e-11
Integration weight cutoff        WCut        ... 1.0000e-14
Angular grids for H and He will be reduced by one unit
Partially contracted basis set               ... on
Rotationally invariant grid construction     ... off

Total number of grid points                  ...    23465
Total number of batches                      ...      384
Average number of points per batch           ...       61
Average number of grid points per atom       ...      652
UseSFitting                                  ... on

GRIDX 2
-------
General Integration Accuracy     IntAcc      ... 4.020
Radial Grid Type                 RadialGrid  ... OptM3 with GC (2021)
Angular Grid (max. ang.)         AngularGrid ... 2 (Lebedev-110)
Angular grid pruning method      GridPruning ... 4 (adaptive)
Weight generation scheme         WeightScheme... Becke
Basis function cutoff            BFCut       ... 1.0000e-11
Integration weight cutoff        WCut        ... 1.0000e-14
Angular grids for H and He will be reduced by one unit
Partially contracted basis set               ... on
Rotationally invariant grid construction     ... off

Total number of grid points                  ...    56366
Total number of batches                      ...      900
Average number of points per batch           ...       62
Average number of grid points per atom       ...     1566
UseSFitting                                  ... on

GRIDX 3
-------
General Integration Accuracy     IntAcc      ... 4.338
Radial Grid Type                 RadialGrid  ... OptM3 with GC (2021)
Angular Grid (max. ang.)         AngularGrid ... 3 (Lebedev-194)
Angular grid pruning method      GridPruning ... 4 (adaptive)
Weight generation scheme         WeightScheme... Becke
Basis function cutoff            BFCut       ... 1.0000e-11
Integration weight cutoff        WCut        ... 1.0000e-14
Angular grids for H and He will be reduced by one unit
Partially contracted basis set               ... on
Rotationally invariant grid construction     ... off

Total number of grid points                  ...   121660
Total number of batches                      ...     1919
Average number of points per batch           ...       63
Average number of grid points per atom       ...     3379
UseSFitting                                  ... on

Time for X-Grid setup             =    8.302 sec


--------------------
CPCM SOLVATION MODEL
--------------------
CPCM parameters:
  Epsilon                                         ...       8.9300
  Refrac                                          ...       1.4242
  Rsolv                                           ...       1.3000
  Surface type                                    ... GAUSSIAN VDW
  Epsilon function type                           ...         CPCM
Solvent:                                     ... DICHLOROMETHANE
SMD-CDS solvent descriptors:
  Soln                                       ...    1.4242
  Soln25                                     ...    1.4212
  Sola                                       ...    0.1000
  Solb                                       ...    0.0500
  Solg                                       ...   39.1500
  Solc                                       ...    0.0000
  Solh                                       ...    0.6670
Radii:
 Radius for N  used is    3.5716 Bohr (=   1.8900 Ang.)
 Radius for C  used is    3.4960 Bohr (=   1.8500 Ang.)
 Radius for H  used is    2.2677 Bohr (=   1.2000 Ang.)
Calculating surface                               ...        done! (  0.0s)
GEPOL surface points                              ...         2071
GEPOL Volume                                      ...    2062.6656
GEPOL Surface-area                                ...    1140.5290
Calculating surface distance matrix               ...        done! (  0.1s)
Performing Cholesky decomposition & store         ...        done! (  0.2s)
Overall time for CPCM initialization              ...                 0.3s
 re-compute Schwartz prescreening matrix in partically contracted basis (1) ...done (   0.319 sec)
--------------
SCF ITERATIONS
--------------
ITER       Energy         Delta-E        Max-DP      RMS-DP      [F,P]     Damp
               ***  Starting incremental Fock matrix formation  ***
  0   -933.8062825241   0.000000000000 0.21475188  0.00137254  0.2221048 0.7000
  1   -933.9777428385  -0.171460314466 0.16278800  0.00103110  0.1149649 0.7000
                               ***Turning on DIIS***
  2   -934.0692116569  -0.091468818334 0.39633837  0.00239238  0.0484828 0.0000
  3   -934.2282188216  -0.159007164775 0.29537977  0.00115547  0.0496635 0.0000
  4   -934.2460067196  -0.017787897954 0.13946700  0.00038860  0.0127737 0.0000
  5   -934.2469444417  -0.000937722132 0.06827977  0.00018014  0.0046736 0.0000
                      *** Initiating the SOSCF procedure ***
                           *** Shutting down DIIS ***
                      *** Re-Reading the Fockian *** 
                      *** Removing any level shift *** 
ITER      Energy       Delta-E        Grad      Rot      Max-DP    RMS-DP
  6   -934.24712091  -0.0001764668  0.001336  0.001336  0.049424  0.000124
               *** Restarting incremental Fock matrix formation ***
  7   -934.24716391  -0.0000430036  0.000867  0.003318  0.173063  0.001651
  8   -934.24720439  -0.0000404743  0.000410  0.003194  0.138778  0.000693
  9   -934.24721150  -0.0000071171  0.000210  0.000245  0.072431  0.000491
 10   -934.24721626  -0.0000047557  0.000051  0.000159  0.071729  0.000190
 11   -934.24721655  -0.0000002899  0.000040  0.000103  0.052413  0.000102
 12   -934.24721673  -0.0000001803  0.000011  0.000094  0.063395  0.000129
 13   -934.24721677  -0.0000000406  0.000006  0.000026  0.016106  0.000072
                  ***Gradient check signals convergence***
              ***Rediagonalizing the Fockian in SOSCF/NRSCF***

               *****************************************************
               *                     SUCCESS                       *
               *           SCF CONVERGED AFTER  14 CYCLES          *
               *****************************************************

Old exchange energy                            =    -41.578482286 Eh
New exchange energy                            =    -41.578450981 Eh
Exchange energy change after final integration =      0.000031305 Eh
Total energy after final integration           =   -934.247185482 Eh
Final COS-X integration done in                =   332.787 sec

SMD CDS free energy correction energy :                -7.90753     Kcal/mol
Total Energy after SMD CDS correction =              -934.259786930 Eh

----------------
TOTAL SCF ENERGY
----------------

Total Energy       :         -934.25978693 Eh          -25422.50126 eV

Components:
Nuclear Repulsion  :         1643.79750642 Eh           44730.00418 eV
Electronic Energy  :        -2578.05729335 Eh          -70152.50544 eV
One Electron Energy:        -4526.55523567 Eh         -123173.83000 eV
Two Electron Energy:         1948.49794232 Eh           53021.32456 eV
Max COSX asymmetry :            0.00002458 Eh               0.00067 eV
CPCM Dielectric    :           -0.02831328 Eh              -0.77044 eV
SMD CDS (Gcds)     :           -0.01260145 Eh              -0.34290 eV

Virial components:
Potential Energy   :        -1863.64260340 Eh          -50712.29340 eV
Kinetic Energy     :          929.38281647 Eh           25289.79214 eV
Virial Ratio       :            2.00524754


DFT components:
N(Alpha)           :       76.999981794388 electrons
N(Beta)            :       76.999981794388 electrons
N(Total)           :      153.999963588776 electrons
E(XC)              :      -92.499792690037 Eh       
DFET-embed. en.    :        0.000000000000 Eh       
CPCM Solvation Model Properties:
Surface-charge          :           -0.06037865
Charge-correction       :            0.00030662 Eh               0.00834 eV
Free-energy (cav+disp)  :           -0.01260145 Eh              -0.34290 eV

---------------
SCF CONVERGENCE
---------------

  Last Energy change         ...   -1.6785e-08  Tolerance :   1.0000e-08
  Last MAX-Density change    ...    3.7748e-15  Tolerance :   1.0000e-07
  Last RMS-Density change    ...    1.8419e-17  Tolerance :   5.0000e-09
  Last Orbital Gradient      ...    2.1076e-06  Tolerance :   1.0000e-05
  Last Orbital Rotation      ...    1.4854e-05  Tolerance :   1.0000e-05

             **** THE GBW FILE WAS UPDATED (wb97x-d3-train-8.gbw) ****
             **** DENSITY wb97x-d3-train-8.scfp WAS UPDATED ****
             **** ENERGY FILE WAS UPDATED (wb97x-d3-train-8.en.tmp) ****
             **** THE GBW FILE WAS UPDATED (wb97x-d3-train-8.gbw) ****
             **** DENSITY wb97x-d3-train-8.scfp WAS UPDATED ****
----------------
ORBITAL ENERGIES
----------------

  NO   OCC          E(Eh)            E(eV) 
   0   2.0000     -14.516599      -395.0167 
   1   2.0000     -14.429810      -392.6551 
   2   2.0000     -14.423007      -392.4700 
   3   2.0000     -10.345762      -281.5225 
   4   2.0000     -10.333858      -281.1986 
   5   2.0000     -10.329657      -281.0843 
   6   2.0000     -10.329126      -281.0698 
   7   2.0000     -10.326780      -281.0060 
   8   2.0000     -10.318521      -280.7812 
   9   2.0000     -10.307161      -280.4721 
  10   2.0000     -10.306104      -280.4433 
  11   2.0000     -10.304999      -280.4133 
  12   2.0000     -10.298344      -280.2322 
  13   2.0000     -10.298220      -280.2288 
  14   2.0000     -10.294893      -280.1383 
  15   2.0000     -10.294314      -280.1225 
  16   2.0000     -10.294250      -280.1208 
  17   2.0000     -10.293723      -280.1065 
  18   2.0000     -10.280093      -279.7356 
  19   2.0000     -10.279319      -279.7145 
  20   2.0000     -10.279037      -279.7068 
  21   2.0000     -10.277339      -279.6606 
  22   2.0000     -10.277174      -279.6561 
  23   2.0000      -1.170357       -31.8470 
  24   2.0000      -1.047970       -28.5167 
  25   2.0000      -1.041767       -28.3479 
  26   2.0000      -1.005277       -27.3550 
  27   2.0000      -0.983712       -26.7682 
  28   2.0000      -0.952851       -25.9284 
  29   2.0000      -0.924666       -25.1614 
  30   2.0000      -0.898559       -24.4510 
  31   2.0000      -0.887522       -24.1507 
  32   2.0000      -0.883394       -24.0384 
  33   2.0000      -0.864946       -23.5364 
  34   2.0000      -0.833803       -22.6889 
  35   2.0000      -0.780678       -21.2433 
  36   2.0000      -0.769707       -20.9448 
  37   2.0000      -0.755493       -20.5580 
  38   2.0000      -0.735968       -20.0267 
  39   2.0000      -0.723992       -19.7008 
  40   2.0000      -0.703719       -19.1492 
  41   2.0000      -0.690544       -18.7907 
  42   2.0000      -0.670520       -18.2458 
  43   2.0000      -0.648444       -17.6450 
  44   2.0000      -0.622079       -16.9276 
  45   2.0000      -0.607988       -16.5442 
  46   2.0000      -0.596717       -16.2375 
  47   2.0000      -0.593197       -16.1417 
  48   2.0000      -0.578085       -15.7305 
  49   2.0000      -0.576077       -15.6759 
  50   2.0000      -0.565175       -15.3792 
  51   2.0000      -0.555876       -15.1262 
  52   2.0000      -0.547339       -14.8939 
  53   2.0000      -0.540638       -14.7115 
  54   2.0000      -0.535784       -14.5794 
  55   2.0000      -0.520248       -14.1567 
  56   2.0000      -0.518131       -14.0991 
  57   2.0000      -0.517063       -14.0700 
  58   2.0000      -0.496189       -13.5020 
  59   2.0000      -0.488591       -13.2952 
  60   2.0000      -0.484215       -13.1762 
  61   2.0000      -0.477373       -12.9900 
  62   2.0000      -0.473688       -12.8897 
  63   2.0000      -0.465398       -12.6641 
  64   2.0000      -0.460138       -12.5210 
  65   2.0000      -0.451884       -12.2964 
  66   2.0000      -0.439616       -11.9626 
  67   2.0000      -0.437028       -11.8921 
  68   2.0000      -0.432756       -11.7759 
  69   2.0000      -0.421396       -11.4668 
  70   2.0000      -0.388734       -10.5780 
  71   2.0000      -0.373654       -10.1676 
  72   2.0000      -0.362057        -9.8521 
[...]
   Time for XC-Integration:      43.477
   Time for LR-CPCM terms:       22.582
   Time for Sigma-Completion:     0.464
   Size of expansion space: 18
   Lowest Energy          :     0.146303190202
   Maximum Energy change  :     0.000062194082 (vector 9)
   Maximum residual norm  :     0.000013877247

                       ****Iteration   25****
   Time for densities:            0.350
   Time for RI-J (Direct):       17.651
   Time for K (COSX):            76.417
   Time for XC-Integration:      27.000
   Time for LR-CPCM terms:       15.700
   Time for Sigma-Completion:     0.256
   Size of expansion space: 28
   Lowest Energy          :     0.146303190202
   Maximum Energy change  :     0.000034967036 (vector 9)
   Maximum residual norm  :     0.000006473899

                       ****Iteration   26****
   Time for densities:            0.283
   Time for RI-J (Direct):       16.070
   Time for K (COSX):            67.427
   Time for XC-Integration:      21.440
   Time for LR-CPCM terms:       13.807
   Time for Sigma-Completion:     0.209
   Size of expansion space: 36
   Lowest Energy          :     0.146303190202
   Maximum Energy change  :     0.000016329643 (vector 9)
   Maximum residual norm  :     0.000003792873

                       ****Iteration   27****
   Time for densities:            0.289
   Time for RI-J (Direct):       16.077
   Time for K (COSX):            67.645
   Time for XC-Integration:      21.427
   Time for LR-CPCM terms:       13.731
   Time for Sigma-Completion:     0.210
   Size of expansion space: 44
   Lowest Energy          :     0.146303190202
   Maximum Energy change  :     0.000011634682 (vector 9)
   Maximum residual norm  :     0.000002743134

                       ****Iteration   28****
   Time for densities:            0.283
   Time for RI-J (Direct):       16.038
   Time for K (COSX):            67.754
   Time for XC-Integration:      21.351
   Time for LR-CPCM terms:       13.820
   Time for Sigma-Completion:     0.208
   Size of expansion space: 52
   Lowest Energy          :     0.146303190202
   Maximum Energy change  :     0.000008946164 (vector 9)
   Maximum residual norm  :     0.000002393924

                       ****Iteration   29****
   Time for densities:            0.287
   Time for RI-J (Direct):       16.021
   Time for K (COSX):            67.686
   Time for XC-Integration:      21.698
   Time for LR-CPCM terms:       13.766
   Time for Sigma-Completion:     0.212
   Size of expansion space: 60
   Lowest Energy          :     0.146303190202
   Maximum Energy change  :     0.000008067845 (vector 9)
   Maximum residual norm  :     0.000002195108

                       ****Iteration   30****
   Time for densities:            0.286
   Time for RI-J (Direct):       16.014
   Time for K (COSX):            67.918
   Time for XC-Integration:      21.882
   Time for LR-CPCM terms:       13.735
   Time for Sigma-Completion:     0.211
   Size of expansion space: 68
   Lowest Energy          :     0.146303190202
   Maximum Energy change  :     0.000009019722 (vector 9)
   Maximum residual norm  :     0.000002729957
   Rebuilding the expansion space

                       ****Iteration   31****
   Time for densities:            0.643
   Time for RI-J (Direct):       22.263
   Time for K (COSX):           119.013
   Time for XC-Integration:      43.288
   Time for LR-CPCM terms:       22.570
   Time for Sigma-Completion:     0.466
   Size of expansion space: 18
   Lowest Energy          :     0.146303190198
   Maximum Energy change  :     0.000004307309 (vector 9)
   Maximum residual norm  :     0.000000922944

      *** CONVERGENCE OF RESIDUAL NORM REACHED ***

Storing the converged CI vectors               ... wb97x-d3-train-8_job2.cis1

                 *** DAVIDSON DONE ***

Total time for solving the CIS problem:  4718.879sec

------------------------------------
TD-DFT/TDA EXCITED STATES (SINGLETS)
------------------------------------

the weight of the individual excitations are printed if larger than 1.0e-02

STATE  1:  E=   0.146303 au      3.981 eV    32109.8 cm**-1 <S**2> =   0.000000
    74a ->  77a  :     0.015386 (c= -0.12403911)
    75a ->  77a  :     0.011440 (c= -0.10695581)
    76a ->  77a  :     0.623598 (c= -0.78968245)
    76a ->  78a  :     0.270954 (c=  0.52053247)
    76a ->  90a  :     0.013080 (c= -0.11436693)

STATE  2:  E=   0.147756 au      4.021 eV    32428.6 cm**-1 <S**2> =   0.000000
    76a ->  77a  :     0.250928 (c= -0.50092695)
    76a ->  78a  :     0.625901 (c= -0.79113914)
    76a ->  81a  :     0.012316 (c= -0.11097959)
    76a ->  82a  :     0.029598 (c= -0.17204177)

STATE  3:  E=   0.178087 au      4.846 eV    39085.5 cm**-1 <S**2> =   0.000000
    74a ->  78a  :     0.012766 (c= -0.11298701)
    75a ->  78a  :     0.014322 (c= -0.11967654)
    76a ->  78a  :     0.042337 (c=  0.20575858)
    76a ->  79a  :     0.012554 (c=  0.11204533)
    76a ->  81a  :     0.210289 (c= -0.45857278)
    76a ->  82a  :     0.594155 (c= -0.77081470)

STATE  4:  E=   0.182255 au      4.959 eV    40000.3 cm**-1 <S**2> =   0.000000
    71a ->  79a  :     0.019538 (c= -0.13977881)
    71a ->  80a  :     0.017048 (c= -0.13056664)
    72a ->  77a  :     0.278939 (c= -0.52814638)
    74a ->  79a  :     0.028474 (c=  0.16874237)
    74a ->  80a  :     0.019424 (c=  0.13936857)
    75a ->  79a  :     0.019344 (c=  0.13908125)
    75a ->  80a  :     0.014073 (c=  0.11863053)
    76a ->  79a  :     0.405578 (c=  0.63685022)
    76a ->  80a  :     0.114496 (c=  0.33837266)
    76a ->  84a  :     0.010674 (c=  0.10331372)

STATE  5:  E=   0.188188 au      5.121 eV    41302.5 cm**-1 <S**2> =   0.000000
    72a ->  77a  :     0.037596 (c=  0.19389709)
    73a ->  84a  :     0.033752 (c= -0.18371812)
    74a ->  78a  :     0.031552 (c=  0.17762893)
    74a ->  81a  :     0.018181 (c= -0.13483662)
    74a ->  82a  :     0.024864 (c= -0.15768207)
    74a ->  84a  :     0.041453 (c= -0.20360119)
    75a ->  78a  :     0.026805 (c= -0.16372149)
    75a ->  82a  :     0.049349 (c=  0.22214715)
    75a ->  84a  :     0.020378 (c= -0.14275112)
    76a ->  79a  :     0.018181 (c=  0.13483603)
    76a ->  80a  :     0.052814 (c= -0.22981319)
    76a ->  81a  :     0.051547 (c=  0.22703957)
    76a ->  84a  :     0.443628 (c=  0.66605437)
    76a ->  85a  :     0.018675 (c= -0.13665503)

STATE  6:  E=   0.197148 au      5.365 eV    43269.0 cm**-1 <S**2> =   0.000000
    72a ->  77a  :     0.069755 (c= -0.26411242)
    73a ->  84a  :     0.012961 (c= -0.11384673)
    74a ->  78a  :     0.011442 (c=  0.10696956)
    74a ->  82a  :     0.011731 (c= -0.10830932)
    74a ->  84a  :     0.020183 (c= -0.14206649)
    75a ->  78a  :     0.017199 (c= -0.13114465)
    75a ->  82a  :     0.021700 (c=  0.14730837)
    76a ->  79a  :     0.199414 (c= -0.44655767)
    76a ->  80a  :     0.110155 (c=  0.33189550)
    76a ->  81a  :     0.065918 (c= -0.25674473)
    76a ->  82a  :     0.014765 (c=  0.12151085)
    76a ->  83a  :     0.022672 (c=  0.15057170)
    76a ->  84a  :     0.016231 (c=  0.12739951)
    76a ->  85a  :     0.035088 (c= -0.18731690)
    76a ->  87a  :     0.044627 (c=  0.21125155)
    76a ->  88a  :     0.035520 (c=  0.18846788)
    76a ->  89a  :     0.037014 (c=  0.19238972)
    76a ->  91a  :     0.019163 (c= -0.13843016)
    76a ->  92a  :     0.073206 (c= -0.27056647)

STATE  7:  E=   0.208946 au      5.686 eV    45858.4 cm**-1 <S**2> =   0.000000
    71a ->  77a  :     0.027734 (c=  0.16653649)
    71a ->  78a  :     0.057486 (c=  0.23976245)
    72a ->  77a  :     0.048677 (c=  0.22062912)
    72a ->  79a  :     0.015474 (c= -0.12439347)
    72a ->  80a  :     0.010240 (c= -0.10119368)
    73a ->  77a  :     0.089577 (c=  0.29929375)
    73a ->  78a  :     0.110427 (c= -0.33230505)
    74a ->  77a  :     0.082814 (c= -0.28777421)
    74a ->  78a  :     0.020073 (c=  0.14167768)
    75a ->  77a  :     0.079777 (c= -0.28244902)
    75a ->  78a  :     0.011441 (c=  0.10696293)
    76a ->  79a  :     0.017024 (c=  0.13047417)
    76a ->  80a  :     0.061482 (c=  0.24795619)
    76a ->  81a  :     0.028539 (c= -0.16893413)
    76a ->  87a  :     0.020670 (c=  0.14377024)
    76a ->  90a  :     0.083838 (c=  0.28954751)
    76a ->  92a  :     0.010872 (c= -0.10426936)
    76a ->  93a  :     0.027083 (c=  0.16456801)
    76a ->  94a  :     0.041500 (c=  0.20371519)
    76a ->  96a  :     0.010904 (c= -0.10442225)

STATE  8:  E=   0.210695 au      5.733 eV    46242.3 cm**-1 <S**2> =   0.000000
    71a ->  78a  :     0.016134 (c=  0.12701864)
    71a ->  79a  :     0.012461 (c= -0.11163079)
    71a ->  80a  :     0.010348 (c= -0.10172402)
    72a ->  77a  :     0.311092 (c= -0.55775595)
    73a ->  78a  :     0.023563 (c= -0.15350239)
    74a ->  77a  :     0.012127 (c= -0.11012097)
    76a ->  79a  :     0.094410 (c= -0.30726185)
    76a ->  80a  :     0.276516 (c= -0.52584802)
    76a ->  81a  :     0.016462 (c=  0.12830239)
    76a ->  82a  :     0.034874 (c= -0.18674583)
    76a ->  90a  :     0.025155 (c=  0.15860323)
    76a ->  93a  :     0.010456 (c=  0.10225305)

STATE  9:  E=   0.218154 au      5.936 eV    47879.3 cm**-1 <S**2> =   0.000000
    71a ->  77a  :     0.073169 (c=  0.27049728)
    73a ->  77a  :     0.125690 (c=  0.35452784)
    73a ->  78a  :     0.026615 (c=  0.16314092)
    74a ->  77a  :     0.138167 (c= -0.37170822)
    75a ->  77a  :     0.120260 (c= -0.34678475)
    76a ->  77a  :     0.047039 (c=  0.21688394)
    76a ->  83a  :     0.011263 (c= -0.10612680)
    76a ->  85a  :     0.076697 (c= -0.27694245)
    76a ->  87a  :     0.084421 (c= -0.29055311)
    76a ->  88a  :     0.024925 (c=  0.15787799)
    76a ->  90a  :     0.049347 (c= -0.22214296)
    76a ->  93a  :     0.026965 (c= -0.16421099)
    76a ->  94a  :     0.018732 (c= -0.13686664)

STATE 10:  E=   0.220340 au      5.996 eV    48359.0 cm**-1 <S**2> =   0.000000
    71a ->  78a  :     0.010464 (c= -0.10229136)
    73a ->  77a  :     0.015301 (c=  0.12369863)
    73a ->  78a  :     0.042049 (c=  0.20505773)
    74a ->  77a  :     0.017266 (c= -0.13139997)
    74a ->  82a  :     0.012226 (c= -0.11056926)
    75a ->  77a  :     0.017798 (c= -0.13340916)
    76a ->  83a  :     0.031208 (c=  0.17665696)
    76a ->  85a  :     0.244276 (c=  0.49424279)
    76a ->  86a  :     0.010966 (c=  0.10471754)
    76a ->  87a  :     0.221432 (c=  0.47056512)
    76a ->  89a  :     0.045346 (c= -0.21294563)
    76a ->  90a  :     0.078259 (c= -0.27974890)
    76a ->  91a  :     0.018251 (c=  0.13509576)
    76a ->  94a  :     0.032391 (c= -0.17997629)
    76a -> 105a  :     0.018421 (c=  0.13572454)
    76a -> 121a  :     0.010241 (c=  0.10119716)


-----------------------------
TD-DFT/TDA-EXCITATION SPECTRA
-----------------------------

Center of mass = (  0.5247,  0.2686, -0.4753)
Calculating the Dipole integrals                  ... done
Transforming integrals                            ... done
Calculating the Linear Momentum integrals         ... done
Transforming integrals                            ... done
Calculating angular momentum integrals            ... done
Transforming integrals                            ... done

-----------------------------------------------------------------------------
         ABSORPTION SPECTRUM VIA TRANSITION ELECTRIC DIPOLE MOMENTS
-----------------------------------------------------------------------------
State   Energy    Wavelength  fosc         T2        TX        TY        TZ  
        (cm-1)      (nm)                 (au**2)    (au)      (au)      (au) 
-----------------------------------------------------------------------------
   1   32109.8    311.4   0.460961259   4.72609   0.88864   1.81132  -0.80964
   2   32428.6    308.4   0.617626250   6.27007   1.85336  -0.00559  -1.68378
   3   39085.5    255.8   0.514789440   4.33600  -1.18939   1.35342   1.04385
   4   40000.3    250.0   0.001774266   0.01460   0.07829  -0.09064   0.01602
   5   41302.5    242.1   0.006747544   0.05378   0.03834  -0.22674   0.03004
   6   43269.0    231.1   0.013572510   0.10327   0.11149  -0.25325   0.16341
   7   45858.4    218.1   0.233250264   1.67448   0.47317   0.91113  -0.78767
   8   46242.3    216.3   0.111899934   0.79665   0.85510  -0.25247  -0.04137
   9   47879.3    208.9   0.224768731   1.54548   0.95350   0.04623  -0.79636
  10   48359.0    206.8   0.006140135   0.04180   0.07421   0.00652  -0.19040

-----------------------------------------------------------------------------
         ABSORPTION SPECTRUM VIA TRANSITION VELOCITY DIPOLE MOMENTS
-----------------------------------------------------------------------------
State   Energy    Wavelength   fosc        P2         PX        PY        PZ  
        (cm-1)      (nm)                 (au**2)     (au)      (au)      (au) 
-----------------------------------------------------------------------------
   1   32109.8    311.4   0.228963090   0.05025  -0.13204  -0.13828   0.11701
   2   32428.6    308.4   0.168327639   0.03731  -0.14418  -0.01245   0.12792
   3   39085.5    255.8   0.297982784   0.07960   0.18448  -0.14118  -0.16011
   4   40000.3    250.0   0.001225141   0.00033  -0.01686   0.00666   0.00250
   5   41302.5    242.1   0.002023049   0.00057  -0.00751   0.01453   0.01742
   6   43269.0    231.1   0.001409377   0.00042   0.00456   0.01766  -0.00916
   7   45858.4    218.1   0.086698888   0.02717  -0.07143  -0.12287   0.08351
   8   46242.3    216.3   0.012172965   0.00385  -0.05203  -0.02324   0.02450
   9   47879.3    208.9   0.123895719   0.04054  -0.15722  -0.03604   0.12052
  10   48359.0    206.8   0.007318353   0.00242  -0.02931  -0.01301   0.03729

-------------------------------------------------------------------
                             CD SPECTRUM
-------------------------------------------------------------------
State  Energy     Wavelength     R         MX        MY        MZ   
       (cm-1)       (nm)     (1e40*cgs)   (au)      (au)      (au)  
-------------------------------------------------------------------
   1   32109.8    311.4     26.69912  -0.22731   0.00170  -0.31564
   2   32428.6    308.4      1.92539   0.36734   0.04023   0.40178
   3   39085.5    255.8    -43.10632   0.03505  -0.00262  -0.04426
   4   40000.3    250.0      0.91041   0.08855   0.07601   0.11782
   5   41302.5    242.1     -7.00873   0.12958   0.10210   0.11036
   6   43269.0    231.1     16.25779   0.04266  -0.12420  -0.01056
   7   45858.4    218.1    -25.85155   0.29957   0.04893   0.30616
   8   46242.3    216.3    -15.63092  -0.07492  -0.09617  -0.16014
   9   47879.3    208.9    -29.84764  -0.03319   0.02529   0.04123
  10   48359.0    206.8      2.45651  -0.02708  -0.02360  -0.03873

-------------------------------------------------------------------
         CD SPECTRUM VIA TRANSITION VELOCITY DIPOLE MOMENTS        
-------------------------------------------------------------------
State  Energy     Wavelength     R         MX        MY        MZ   
       (cm-1)       (nm)     (1e40*cgs)   (au)      (au)      (au)  
-------------------------------------------------------------------
   1   32109.8    311.4    -23.05410  -0.22731   0.00170  -0.31564
   2   32428.6    308.4     -6.59864   0.36734   0.04023   0.40178
   3   39085.5    255.8     36.85772   0.03505  -0.00262  -0.04426
   4   40000.3    250.0     -1.79156   0.08855   0.07601   0.11782
   5   41302.5    242.1      6.09415   0.12958   0.10210   0.11036
   6   43269.0    231.1     -4.55003   0.04266  -0.12420  -0.01056
   7   45858.4    218.1     -4.15623   0.29957   0.04893   0.30616
   8   46242.3    216.3      4.94316  -0.07492  -0.09617  -0.16014
   9   47879.3    208.9     20.04526  -0.03319   0.02529   0.04123
  10   48359.0    206.8     -0.73519  -0.02708  -0.02360  -0.03873

Total run time:     4728.202 sec

           *** ORCA-CIS/TD-DFT FINISHED WITHOUT ERROR ***

Maximum memory used throughout the entire CIS-calculation: 2287.7 MB

-----------------------
CIS/TD-DFT TOTAL ENERGY
-----------------------

    E(SCF)  =   -934.261961451 Eh
    DE(CIS) =      0.146303190 Eh (Root  1)
    ----------------------------- ---------
    E(tot)  =   -934.115658261 Eh



-------------------------------------------------------------------------------
                          DFT DISPERSION CORRECTION                            
                                                                               
                              DFTD3 V3.1  Rev 1                                
                              USING zero damping                               
-------------------------------------------------------------------------------
The omegaB97X-D3 functional is recognized. Fit by Chai et al.
Active option DFTDOPT                   ...         3   

molecular C6(AA) [au] = 18366.963037 


            DFT-D V3
 parameters
 s6 scaling factor         :     1.0000 
 rs6 scaling factor        :     1.2810 
 s8 scaling factor         :     1.0000 
 rs8 scaling factor        :     1.0940 
 Damping factor alpha6     :    14.0000 
 Damping factor alpha8     :    16.0000 
 ad hoc parameters k1-k3   :    16.0000     1.3333    -4.0000 

 Edisp/kcal,au: -9.424152395758  -0.015018341204 
 E6   /kcal   :  -4.441987074 
 E8   /kcal   :  -4.982165321 
 % E8         :  52.865924830 

-------------------------   ----------------
Dispersion correction           -0.015018341
-------------------------   ----------------


-------------------------   --------------------
FINAL SINGLE POINT ENERGY      -934.130676601908
-------------------------   --------------------


                            ***************************************
                            *     ORCA property calculations      *
                            ***************************************

                                    ---------------------
                                    Active property flags
                                    ---------------------
   (+) Dipole Moment


------------------------------------------------------------------------------
                       ORCA ELECTRIC PROPERTIES CALCULATION
------------------------------------------------------------------------------

Dipole Moment Calculation                       ... on
Quadrupole Moment Calculation                   ... off
Polarizability Calculation                      ... off
GBWName                                         ... wb97x-d3-train-8_job2.gbw
Electron density                                ... wb97x-d3-train-8_job2.scfp
The origin for moment calculation is the CENTER OF MASS  = ( 0.524736,  0.268556 -0.475324)

-------------
DIPOLE MOMENT
-------------
                                X             Y             Z
Electronic contribution:      8.21766       2.15610      -7.36687
Nuclear contribution   :     -9.41602      -4.95409       8.52587
                        -----------------------------------------
Total Dipole Moment    :     -1.19835      -2.79798       1.15900
                        -----------------------------------------
Magnitude (a.u.)       :      3.25700
Magnitude (Debye)      :      8.27863



--------------------
Rotational spectrum 
--------------------
 
Rotational constants in cm-1:     0.016283     0.004560     0.003660 
Rotational constants in MHz :   488.158347   136.704891   109.725317 

 Dipole components along the rotational axes: 
x,y,z [a.u.] :    -2.036700    -2.531347    -0.228416 
x,y,z [Debye]:    -5.176879    -6.434172    -0.580587 

 

Timings for individual modules:

Sum of individual times         ...     6037.557 sec (= 100.626 min)
GTO integral calculation        ...        5.648 sec (=   0.094 min)   0.1 %
SCF iterations                  ...     1303.196 sec (=  21.720 min)  21.6 %
CIS module                      ...     4728.714 sec (=  78.812 min)  78.3 %



                             ****ORCA TERMINATED NORMALLY****
TOTAL RUN TIME: 0 days 6 hours 34 minutes 9 seconds 827 msec
