
                                 *****************
                                 * O   R   C   A *
                                 *****************

                                            #,                                       
                                            ###                                      
                                            ####                                     
                                            #####                                    
                                            ######                                   
                                           ########,                                 
                                     ,,################,,,,,                         
                               ,,#################################,,                 
                          ,,##########################################,,             
                       ,#########################################, ''#####,          
                    ,#############################################,,   '####,        
                  ,##################################################,,,,####,       
                ,###########''''           ''''###############################       
              ,#####''   ,,,,##########,,,,          '''####'''          '####       
            ,##' ,,,,###########################,,,                        '##       
           ' ,,###''''                  '''############,,,                           
         ,,##''                                '''############,,,,        ,,,,,,###''
      ,#''                                            '''#######################'''  
     '                                                          ''''####''''         
             ,#######,   #######,   ,#######,      ##                                
            ,#'     '#,  ##    ##  ,#'     '#,    #''#        ######   ,####,        
            ##       ##  ##   ,#'  ##            #'  '#       #        #'  '#        
            ##       ##  #######   ##           ,######,      #####,   #    #        
            '#,     ,#'  ##    ##  '#,     ,#' ,#      #,         ##   #,  ,#        
             '#######'   ##     ##  '#######'  #'      '#     #####' # '####'        



                  #######################################################
                  #                        -***-                        #
                  #          Department of theory and spectroscopy      #
                  #    Directorship and core code : Frank Neese         #
                  #        Max Planck Institute fuer Kohlenforschung    #
                  #                Kaiser Wilhelm Platz 1               #
                  #                 D-45470 Muelheim/Ruhr               #
                  #                      Germany                        #
                  #                                                     #
                  #                  All rights reserved                #
                  #                        -***-                        #
                  #######################################################


                         Program Version 5.0.2 -  RELEASE  -


 With contributions from (in alphabetic order):
   Daniel Aravena         : Magnetic Suceptibility
   Michael Atanasov       : Ab Initio Ligand Field Theory (pilot matlab implementation)
   Alexander A. Auer      : GIAO ZORA, VPT2 properties, NMR spectrum
   Ute Becker             : Parallelization
   Giovanni Bistoni       : ED, misc. LED, open-shell LED, HFLD
   Martin Brehm           : Molecular dynamics
   Dmytro Bykov           : SCF Hessian
   Vijay G. Chilkuri      : MRCI spin determinant printing, contributions to CSF-ICE
   Dipayan Datta          : RHF DLPNO-CCSD density
   Achintya Kumar Dutta   : EOM-CC, STEOM-CC
   Dmitry Ganyushin       : Spin-Orbit,Spin-Spin,Magnetic field MRCI
   Miquel Garcia          : C-PCM and meta-GGA Hessian, CC/C-PCM, Gaussian charge scheme
   Yang Guo               : DLPNO-NEVPT2, F12-NEVPT2, CIM, IAO-localization
   Andreas Hansen         : Spin unrestricted coupled pair/coupled cluster methods
   Benjamin Helmich-Paris : MC-RPA, TRAH-SCF, COSX integrals
   Lee Huntington         : MR-EOM, pCC
   Robert Izsak           : Overlap fitted RIJCOSX, COSX-SCS-MP3, EOM
   Marcus Kettner         : VPT2
   Christian Kollmar      : KDIIS, OOCD, Brueckner-CCSD(T), CCSD density, CASPT2, CASPT2-K
   Simone Kossmann        : Meta GGA functionals, TD-DFT gradient, OOMP2, MP2 Hessian
   Martin Krupicka        : Initial AUTO-CI
   Lucas Lang             : DCDCAS
   Marvin Lechner         : AUTO-CI (C++ implementation), FIC-MRCC
   Dagmar Lenk            : GEPOL surface, SMD
   Dimitrios Liakos       : Extrapolation schemes; Compound Job, initial MDCI parallelization
   Dimitrios Manganas     : Further ROCIS development; embedding schemes
   Dimitrios Pantazis     : SARC Basis sets
   Anastasios Papadopoulos: AUTO-CI, single reference methods and gradients
   Taras Petrenko         : DFT Hessian,TD-DFT gradient, ASA, ECA, R-Raman, ABS, FL, XAS/XES, NRVS
   Peter Pinski           : DLPNO-MP2, DLPNO-MP2 Gradient
   Christoph Reimann      : Effective Core Potentials
   Marius Retegan         : Local ZFS, SOC
   Christoph Riplinger    : Optimizer, TS searches, QM/MM, DLPNO-CCSD(T), (RO)-DLPNO pert. Triples
   Tobias Risthaus        : Range-separated hybrids, TD-DFT gradient, RPA, STAB
   Michael Roemelt        : Original ROCIS implementation
   Masaaki Saitow         : Open-shell DLPNO-CCSD energy and density
   Barbara Sandhoefer     : DKH picture change effects
   Avijit Sen             : IP-ROCIS
   Kantharuban Sivalingam : CASSCF convergence, NEVPT2, FIC-MRCI
   Bernardo de Souza      : ESD, SOC TD-DFT
   Georgi Stoychev        : AutoAux, RI-MP2 NMR, DLPNO-MP2 response
   Willem Van den Heuvel  : Paramagnetic NMR
   Boris Wezisla          : Elementary symmetry handling
   Frank Wennmohs         : Technical directorship


 We gratefully acknowledge several colleagues who have allowed us to
 interface, adapt or use parts of their codes:
   Stefan Grimme, W. Hujo, H. Kruse, P. Pracht,  : VdW corrections, initial TS optimization,
                  C. Bannwarth, S. Ehlert          DFT functionals, gCP, sTDA/sTD-DF
   Ed Valeev, F. Pavosevic, A. Kumar             : LibInt (2-el integral package), F12 methods
   Garnet Chan, S. Sharma, J. Yang, R. Olivares  : DMRG
   Ulf Ekstrom                                   : XCFun DFT Library
   Mihaly Kallay                                 : mrcc  (arbitrary order and MRCC methods)
   Jiri Pittner, Ondrej Demel                    : Mk-CCSD
   Frank Weinhold                                : gennbo (NPA and NBO analysis)
   Christopher J. Cramer and Donald G. Truhlar   : smd solvation model
   Lars Goerigk                                  : TD-DFT with DH, B97 family of functionals
   V. Asgeirsson, H. Jonsson                     : NEB implementation
   FAccTs GmbH                                   : IRC, NEB, NEB-TS, DLPNO-Multilevel, CI-OPT
                                                   MM, QMMM, 2- and 3-layer-ONIOM, Crystal-QMMM,
                                                   LR-CPCM, SF, NACMEs, symmetry and pop. for TD-DFT,
                                                   nearIR, NL-DFT gradient (VV10), updates on ESD,
                                                   ML-optimized integration grids
   S Lehtola, MJT Oliveira, MAL Marques          : LibXC Library
   Liviu Ungur et al                             : ANISO software


 Your calculation uses the libint2 library for the computation of 2-el integrals
 For citations please refer to: http://libint.valeyev.net

 Your ORCA version has been built with support for libXC version: 5.1.0
 For citations please refer to: https://tddft.org/programs/libxc/

 This ORCA versions uses:
   CBLAS   interface :  Fast vector & matrix operations
   LAPACKE interface :  Fast linear algebra routines
   SCALAPACK package :  Parallel linear algebra routines
   Shared memory     :  Shared parallel matrices
   BLAS/LAPACK       :  OpenBLAS 0.3.15  USE64BITINT DYNAMIC_ARCH NO_AFFINITY Haswell SINGLE_THREADED
        Core in use  :  Haswell
   Copyright (c) 2011-2014, The OpenBLAS Project


Your calculation utilizes the SMD solvation module
Please cite in your paper:
A.V. Marenich, C.J. Cramer, D.G. Truhlar J. Phys. Chem. B, 113, (2009), 6378 

================================================================================

----- Orbital basis set information -----
Your calculation utilizes the basis: aug-cc-pVTZ 
    H, B-Ne : Obtained from the ccRepo (grant-hill.group.shef.ac.uk/ccrepo) Feb. 2017
              R. A. Kendall, T. H. Dunning, Jr., R. J. Harrison, J. Chem. Phys. 96, 6796 (1992)
         He : Obtained from the ccRepo (grant-hill.group.shef.ac.uk/ccrepo) Feb. 2017
              D. E. Woon, T. H. Dunning, Jr., J. Chem. Phys. 100, 2975 (1994)
  Li-Be, Na : Obtained from the ccRepo (grant-hill.group.shef.ac.uk/ccrepo) Feb. 2017
              B. P. Prascher, D. E. Woon, K. A. Peterson, T. H. Dunning, Jr., A. K. Wilson, Theor. Chem. Acc. 128, 69 (2011)
         Mg : Obtained from the Peterson Research Group Website (tyr0.chem.wsu.edu/~kipeters) Feb. 2017
              B. P. Prascher, D. E. Woon, K. A. Peterson, T. H. Dunning, Jr., A. K. Wilson, Theor. Chem. Acc. 128, 69 (2011)
      Al-Ar : Obtained from the ccRepo (grant-hill.group.shef.ac.uk/ccrepo) Feb. 2017
              D. E. Woon, T. H. Dunning, Jr., J. Chem. Phys. 98, 1358 (1993)
      Sc-Zn : Obtained from the ccRepo (grant-hill.group.shef.ac.uk/ccrepo) Feb. 2017
              N. B. Balabanov, K. A. Peterson, J. Chem. Phys. 123, 064107 (2005)
              N. B. Balabanov, K. A. Peterson, J. Chem. Phys. 125, 074110 (2006)
      Ga-Kr : Obtained from the ccRepo (grant-hill.group.shef.ac.uk/ccrepo) Feb. 2017
              A. K. Wilson, D. E. Woon, K. A. Peterson, T. H. Dunning, Jr., J. Chem. Phys. 110, 7667 (1999)
     Ag, Au : Obtained from the Peterson Research Group Website (tyr0.chem.wsu.edu/~kipeters) Feb. 2017
              K. A. Peterson, C. Puzzarini, Theor. Chem. Acc. 114, 283 (2005)

The basis set includes element-specific modifications.

Your calculation utilizes the basis: cc-pVTZ 
       H, B-Ne : Obtained from the ccRepo (grant-hill.group.shef.ac.uk/ccrepo) Feb. 2017
                 T. H. Dunning, Jr., J. Chem. Phys. 90, 1007 (1989)
            He : Obtained from the ccRepo (grant-hill.group.shef.ac.uk/ccrepo) Feb. 2017
                 D. E. Woon, T. H. Dunning, Jr., J. Chem. Phys. 100, 2975 (1994)
  Li-Be, Na-Mg : Obtained from the ccRepo (grant-hill.group.shef.ac.uk/ccrepo) Feb. 2017
                 B. P. Prascher, D. E. Woon, K. A. Peterson, T. H. Dunning, Jr., A. K. Wilson, Theor. Chem. Acc. 128, 69 (2011)
         Al-Ar : Obtained from the ccRepo (grant-hill.group.shef.ac.uk/ccrepo) Feb. 2017
                 D. E. Woon, T. H. Dunning, Jr., J. Chem. Phys. 98, 1358 (1993)
            Ca : Obtained from the Peterson Research Group Website (tyr0.chem.wsu.edu/~kipeters) Feb. 2017
                 J. Koput, K. A. Peterson, J. Phys. Chem. 106, 9595 (2002)
         Sc-Zn : Obtained from the ccRepo (grant-hill.group.shef.ac.uk/ccrepo) Feb. 2017
                 N. B. Balabanov, K. A. Peterson, J. Chem. Phys. 123, 064107 (2005)
                 N. B. Balabanov, K. A. Peterson, J. Chem. Phys. 125, 074110 (2006)
         Ga-Kr : Obtained from the ccRepo (grant-hill.group.shef.ac.uk/ccrepo) Feb. 2017
                 A. K. Wilson, D. E. Woon, K. A. Peterson, T. H. Dunning, Jr., J. Chem. Phys. 110, 7667 (1999)
             Y : Obtained from the ccRepo (grant-hill.group.shef.ac.uk/ccrepo) Feb. 2017
                 K. A. Peterson, D. Figgen, M. Dolg, H. Stoll, J. Chem. Phys. 126, 124101 (2007)
        Ag, Au : Obtained from the Peterson Research Group Website (tyr0.chem.wsu.edu/~kipeters) Feb. 2017
                 K. A. Peterson, C. Puzzarini, Theor. Chem. Acc. 114, 283 (2005)

----- AuxJ basis set information -----
Your calculation utilizes the auxiliary basis: aug-cc-pVTZ/JK 
  H, B-F, Al-Cl, Ga-Br : Obtained from the TURBOMOLE 7.0 basis set library

The basis set includes element-specific modifications.

Your calculation utilizes the auxiliary basis: cc-pVTZ/JK 
  H, B-F, Al-Cl, Ga-Br : Obtained from the TURBOMOLE 7.0 basis set library

----- AuxC basis set information -----
Your calculation utilizes the auxiliary basis: aug-cc-pVTZ/C 
  H-He, B-F, Al-Ar, Ga-Kr : Obtained from the EMSL Basis Set Exchange (bse.pnl.gov) Feb. 2017
                            F. Weigend, A. Kohn, C. Hattig, J. Chem. Phys. 116, 3175 (2002)
                   Be, Mg : Obtained from the TURBOMOLE 7.0 basis set library
                            C. Haettig, Phys. Chem. Chem. Phys. 7, 59 (2005)
                       Ne : Obtained from the EMSL Basis Set Exchange (bse.pnl.gov) Feb. 2017
                            C. Haettig, Phys. Chem. Chem. Phys. 7, 59 (2005)
                            F. Weigend, A. Kohn, C. Hattig, J. Chem. Phys. 116, 3175 (2002)
                    Sc-Zn : Obtained from the EMSL Basis Set Exchange (bse.pnl.gov) Feb. 2017
                            J. G. Hill, J. A. Platts, J. Chem. Phys. 128, 044104 (2008)

The basis set includes element-specific modifications.

Your calculation utilizes the auxiliary basis: cc-pVTZ/C 
  Obtained from the EMSL Basis Set Exchange (bse.pnl.gov) Feb. 2017
  H-He, B-F, Al-Ar, Ga-Kr : F. Weigend, A. Kohn, C. Hattig, J. Chem. Phys. 116, 3175 (2002)
             Li-Be, Na-Mg : C. Haettig, Phys. Chem. Chem. Phys. 7, 59 (2005)
                       Ne : C. Haettig, Phys. Chem. Chem. Phys. 7, 59 (2005)
                            F. Weigend, A. Kohn, C. Hattig, J. Chem. Phys. 116, 3175 (2002)
                    Sc-Zn : J. G. Hill, J. A. Platts, J. Chem. Phys. 128, 044104 (2008)

================================================================================
                                        WARNINGS
                       Please study these warnings very carefully!
================================================================================


WARNING: Geometry Optimization
  ===> : Switching off AutoStart
         For restart on a previous wavefunction, please use MOREAD

INFO   : the flag for use of the SHARK integral package has been found!



***************************************
The coordinates will be read from file: 
***************************************


Your calculation utilizes the SMD solvation module
Please cite in your paper:
A.V. Marenich, C.J. Cramer, D.G. Truhlar J. Phys. Chem. B, 113, (2009), 6378 

================================================================================

----- Orbital basis set information -----
Your calculation utilizes the basis: aug-cc-pVTZ 
    H, B-Ne : Obtained from the ccRepo (grant-hill.group.shef.ac.uk/ccrepo) Feb. 2017
              R. A. Kendall, T. H. Dunning, Jr., R. J. Harrison, J. Chem. Phys. 96, 6796 (1992)
         He : Obtained from the ccRepo (grant-hill.group.shef.ac.uk/ccrepo) Feb. 2017
              D. E. Woon, T. H. Dunning, Jr., J. Chem. Phys. 100, 2975 (1994)
  Li-Be, Na : Obtained from the ccRepo (grant-hill.group.shef.ac.uk/ccrepo) Feb. 2017
              B. P. Prascher, D. E. Woon, K. A. Peterson, T. H. Dunning, Jr., A. K. Wilson, Theor. Chem. Acc. 128, 69 (2011)
         Mg : Obtained from the Peterson Research Group Website (tyr0.chem.wsu.edu/~kipeters) Feb. 2017
              B. P. Prascher, D. E. Woon, K. A. Peterson, T. H. Dunning, Jr., A. K. Wilson, Theor. Chem. Acc. 128, 69 (2011)
      Al-Ar : Obtained from the ccRepo (grant-hill.group.shef.ac.uk/ccrepo) Feb. 2017
              D. E. Woon, T. H. Dunning, Jr., J. Chem. Phys. 98, 1358 (1993)
      Sc-Zn : Obtained from the ccRepo (grant-hill.group.shef.ac.uk/ccrepo) Feb. 2017
              N. B. Balabanov, K. A. Peterson, J. Chem. Phys. 123, 064107 (2005)
              N. B. Balabanov, K. A. Peterson, J. Chem. Phys. 125, 074110 (2006)
      Ga-Kr : Obtained from the ccRepo (grant-hill.group.shef.ac.uk/ccrepo) Feb. 2017
              A. K. Wilson, D. E. Woon, K. A. Peterson, T. H. Dunning, Jr., J. Chem. Phys. 110, 7667 (1999)
     Ag, Au : Obtained from the Peterson Research Group Website (tyr0.chem.wsu.edu/~kipeters) Feb. 2017
              K. A. Peterson, C. Puzzarini, Theor. Chem. Acc. 114, 283 (2005)

The basis set includes element-specific modifications.

Your calculation utilizes the basis: cc-pVTZ 
       H, B-Ne : Obtained from the ccRepo (grant-hill.group.shef.ac.uk/ccrepo) Feb. 2017
                 T. H. Dunning, Jr., J. Chem. Phys. 90, 1007 (1989)
            He : Obtained from the ccRepo (grant-hill.group.shef.ac.uk/ccrepo) Feb. 2017
                 D. E. Woon, T. H. Dunning, Jr., J. Chem. Phys. 100, 2975 (1994)
  Li-Be, Na-Mg : Obtained from the ccRepo (grant-hill.group.shef.ac.uk/ccrepo) Feb. 2017
                 B. P. Prascher, D. E. Woon, K. A. Peterson, T. H. Dunning, Jr., A. K. Wilson, Theor. Chem. Acc. 128, 69 (2011)
         Al-Ar : Obtained from the ccRepo (grant-hill.group.shef.ac.uk/ccrepo) Feb. 2017
                 D. E. Woon, T. H. Dunning, Jr., J. Chem. Phys. 98, 1358 (1993)
            Ca : Obtained from the Peterson Research Group Website (tyr0.chem.wsu.edu/~kipeters) Feb. 2017
                 J. Koput, K. A. Peterson, J. Phys. Chem. 106, 9595 (2002)
         Sc-Zn : Obtained from the ccRepo (grant-hill.group.shef.ac.uk/ccrepo) Feb. 2017
                 N. B. Balabanov, K. A. Peterson, J. Chem. Phys. 123, 064107 (2005)
                 N. B. Balabanov, K. A. Peterson, J. Chem. Phys. 125, 074110 (2006)
         Ga-Kr : Obtained from the ccRepo (grant-hill.group.shef.ac.uk/ccrepo) Feb. 2017
                 A. K. Wilson, D. E. Woon, K. A. Peterson, T. H. Dunning, Jr., J. Chem. Phys. 110, 7667 (1999)
             Y : Obtained from the ccRepo (grant-hill.group.shef.ac.uk/ccrepo) Feb. 2017
                 K. A. Peterson, D. Figgen, M. Dolg, H. Stoll, J. Chem. Phys. 126, 124101 (2007)
        Ag, Au : Obtained from the Peterson Research Group Website (tyr0.chem.wsu.edu/~kipeters) Feb. 2017
                 K. A. Peterson, C. Puzzarini, Theor. Chem. Acc. 114, 283 (2005)

----- AuxJ basis set information -----
Your calculation utilizes the auxiliary basis: aug-cc-pVTZ/JK 
  H, B-F, Al-Cl, Ga-Br : Obtained from the TURBOMOLE 7.0 basis set library

The basis set includes element-specific modifications.

Your calculation utilizes the auxiliary basis: cc-pVTZ/JK 
  H, B-F, Al-Cl, Ga-Br : Obtained from the TURBOMOLE 7.0 basis set library

----- AuxC basis set information -----
Your calculation utilizes the auxiliary basis: aug-cc-pVTZ/C 
  H-He, B-F, Al-Ar, Ga-Kr : Obtained from the EMSL Basis Set Exchange (bse.pnl.gov) Feb. 2017
                            F. Weigend, A. Kohn, C. Hattig, J. Chem. Phys. 116, 3175 (2002)
                   Be, Mg : Obtained from the TURBOMOLE 7.0 basis set library
                            C. Haettig, Phys. Chem. Chem. Phys. 7, 59 (2005)
                       Ne : Obtained from the EMSL Basis Set Exchange (bse.pnl.gov) Feb. 2017
                            C. Haettig, Phys. Chem. Chem. Phys. 7, 59 (2005)
                            F. Weigend, A. Kohn, C. Hattig, J. Chem. Phys. 116, 3175 (2002)
                    Sc-Zn : Obtained from the EMSL Basis Set Exchange (bse.pnl.gov) Feb. 2017
                            J. G. Hill, J. A. Platts, J. Chem. Phys. 128, 044104 (2008)

The basis set includes element-specific modifications.

Your calculation utilizes the auxiliary basis: cc-pVTZ/C 
  Obtained from the EMSL Basis Set Exchange (bse.pnl.gov) Feb. 2017
  H-He, B-F, Al-Ar, Ga-Kr : F. Weigend, A. Kohn, C. Hattig, J. Chem. Phys. 116, 3175 (2002)
             Li-Be, Na-Mg : C. Haettig, Phys. Chem. Chem. Phys. 7, 59 (2005)
                       Ne : C. Haettig, Phys. Chem. Chem. Phys. 7, 59 (2005)
                            F. Weigend, A. Kohn, C. Hattig, J. Chem. Phys. 116, 3175 (2002)
                    Sc-Zn : J. G. Hill, J. A. Platts, J. Chem. Phys. 128, 044104 (2008)

================================================================================
                                        WARNINGS
                       Please study these warnings very carefully!
================================================================================

INFO   : Checking CIS options ...

INFO   : the flag for use of the SHARK integral package has been found!

================================================================================
                                       INPUT FILE
================================================================================
NAME = x3lyp-train-19.inp
|  1> ! x3lyp aug-cc-PVTZ RIJCOSX Opt
|  2> %maxcore 4000
|  3> %basis
|  4>  AuxJ "aug-cc-PVTZ/JK"
|  5>  AuxC "aug-cc-PVTZ/C"
|  6>  newGTO H "cc-PVTZ" end
|  7>  newAuxJGTO H "cc-PVTZ/JK" end
|  8>  newAuxCGTO H "cc-PVTZ/C" end
|  9> end
| 10> %cpcm
| 11>  SMD true
| 12>  SMDsolvent "dimethylsulfoxide"
| 13> end
| 14> %pal nprocs 4 end
| 15> * xyz 0 1
| 16> O         -1.10270        2.11530       -1.72360
| 17> C         -0.39350        1.36340       -1.09310
| 18> N          1.00170        1.42490       -1.09150
| 19> C          1.59780        0.46820       -0.30070
| 20> C          3.02770        0.34250       -0.15220
| 21> C          3.91620        1.19900       -0.81370
| 22> C          5.27940        1.05250       -0.65340
| 23> C          5.78420        0.05440        0.16560
| 24> C          4.91430       -0.79940        0.82620
| 25> C          3.54920       -0.66220        0.67320
| 26> C          0.57570       -0.27340        0.25950
| 27> C          0.26280       -1.37720        1.13530
| 28> O          0.94240       -2.13800        1.77370
| 29> O         -1.12690       -1.46380        1.15210
| 30> C         -1.67790       -0.50200        0.35710
| 31> C         -3.10990       -0.43120        0.24050
| 32> C         -3.70390        0.54460       -0.56920
| 33> C         -5.07890        0.60100       -0.67490
| 34> C         -5.87410       -0.30240        0.01570
| 35> C         -5.29050       -1.27060        0.81960
| 36> C         -3.91730       -1.33930        0.93510
| 37> C         -0.67970        0.24860       -0.20720
| 38> H          1.50060        2.11590       -1.62920
| 39> H          3.54990        1.98470       -1.45770
| 40> H          5.95320        1.72000       -1.16990
| 41> H          6.85130       -0.05570        0.28690
| 42> H          5.30290       -1.57790        1.46490
| 43> H          2.87730       -1.32910        1.18930
| 44> H         -3.08380        1.24580       -1.10540
| 45> H         -5.53640        1.35340       -1.29960
| 46> H         -6.94940       -0.25210       -0.07240
| 47> H         -5.91100       -1.97270        1.35630
| 48> H         -3.45050       -2.08760        1.55660
| 49> *
| 50> 
| 51> 
| 52> $new_job
| 53> ! x3lyp aug-cc-PVTZ RIJCOSX SP
| 54> %maxcore 4000
| 55> %basis
| 56>  AuxJ "aug-cc-PVTZ/JK"
| 57>  AuxC "aug-cc-PVTZ/C"
| 58>  newGTO H "cc-PVTZ" end
| 59>  newAuxJGTO H "cc-PVTZ/JK" end
| 60>  newAuxCGTO H "cc-PVTZ/C" end
| 61> end
| 62> %cpcm
| 63>  SMD true
| 64>  SMDsolvent "dimethylsulfoxide"
| 65> end
| 66> %pal nprocs 4 end
| 67> %tddft
| 68>  nroots 10
| 69>  maxdim 7
| 70> end
| 71> * xyzfile 0 1
| 72> 
| 73>                          ****END OF INPUT****
================================================================================


                 $$$$$$$$$$$$$$$$$$$$$$$$$$$$$$$$$$$$$$$$$$$$$$ 
                 $ THERE ARE  2 JOBS TO BE PROCESSED THIS RUN $
                 $$$$$$$$$$$$$$$$$$$$$$$$$$$$$$$$$$$$$$$$$$$$$$ 




                 $$$$$$$$$$$$$$$$  JOB NUMBER  1 $$$$$$$$$$$$$$


                       *****************************
                       * Geometry Optimization Run *
                       *****************************

Geometry optimization settings:
Update method            Update   .... BFGS
Choice of coordinates    CoordSys .... Z-matrix Internals
Initial Hessian          InHess   .... Almoef's Model

Convergence Tolerances:
Energy Change            TolE     ....  5.0000e-06 Eh
Max. Gradient            TolMAXG  ....  3.0000e-04 Eh/bohr
RMS Gradient             TolRMSG  ....  1.0000e-04 Eh/bohr
Max. Displacement        TolMAXD  ....  4.0000e-03 bohr
RMS Displacement         TolRMSD  ....  2.0000e-03 bohr
Strict Convergence                ....  False
------------------------------------------------------------------------------
                        ORCA OPTIMIZATION COORDINATE SETUP
------------------------------------------------------------------------------

The optimization will be done in new redundant internal coordinates
Making redundant internal coordinates   ...  (new redundants) done
Evaluating the initial hessian          ...  (Almloef) done
Evaluating the coordinates              ...  done
Calculating the B-matrix                .... done
Calculating the G-matrix                .... done
Diagonalizing the G-matrix              .... done
Small eigenvalue found = 3.567e-03
Small eigenvalue found = 1.278e-02
Small eigenvalue found = 1.663e-02
The first mode is                       ....   89
The number of degrees of freedom        ....   93

    -----------------------------------------------------------------
                    Redundant Internal Coordinates


    -----------------------------------------------------------------
         Definition                    Initial Value    Approx d2E/dq
    -----------------------------------------------------------------
      1. B(C   1,O   0)                  1.2107         1.081189   
      2. B(N   2,C   1)                  1.3966         0.546281   
      3. B(C   3,N   2)                  1.3769         0.587091   
      4. B(C   4,C   3)                  1.4431         0.514115   
      5. B(C   5,C   4)                  1.4002         0.601781   
      6. B(C   6,C   5)                  1.3804         0.647251   
      7. B(C   7,C   6)                  1.3863         0.633381   
      8. B(C   8,C   7)                  1.3864         0.633124   
      9. B(C   9,C   4)                  1.4010         0.600155   
     10. B(C   9,C   8)                  1.3805         0.647029   
     11. B(C  10,C   3)                  1.3815         0.644665   
     12. B(C  11,C  10)                  1.4434         0.513566   
     13. B(O  12,C  11)                  1.2034         1.110572   
     14. B(O  13,C  11)                  1.3925         0.554487   
     15. B(C  14,O  13)                  1.3641         0.615526   
     16. B(C  15,C  14)                  1.4385         0.522863   
     17. B(C  16,C  15)                  1.4002         0.601758   
     18. B(C  17,C  16)                  1.3802         0.647677   
     19. B(C  18,C  17)                  1.3876         0.630355   
     20. B(C  19,C  18)                  1.3872         0.631314   
     21. B(C  20,C  19)                  1.3798         0.648747   
     22. B(C  20,C  15)                  1.3996         0.603043   
     23. B(C  21,C  14)                  1.3705         0.671225   
     24. B(C  21,C  10)                  1.4375         0.524810   
     25. B(C  21,C   1)                  1.4524         0.496775   
     26. B(H  22,N   2)                  1.0077         0.436344   
     27. B(H  23,C   5)                  1.0799         0.373679   
     28. B(H  24,C   6)                  1.0800         0.373616   
     29. B(H  25,C   7)                  1.0796         0.374123   
     30. B(H  26,C   8)                  1.0794         0.374459   
     31. B(H  27,C   9)                  1.0782         0.376022   
     32. B(H  28,C  16)                  1.0788         0.375285   
     33. B(H  29,C  17)                  1.0797         0.374044   
     34. B(H  30,C  18)                  1.0801         0.373472   
     35. B(H  31,C  19)                  1.0798         0.373822   
     36. B(H  32,C  20)                  1.0789         0.375029   
     37. A(O   0,C   1,C  21)          132.7568         0.458144   
     38. A(O   0,C   1,N   2)          123.9484         0.463063   
     39. A(N   2,C   1,C  21)          103.2948         0.405293   
     40. A(C   3,N   2,H  22)          124.6488         0.355865   
     41. A(C   1,N   2,H  22)          121.6132         0.351549   
     42. A(C   1,N   2,C   3)          113.7381         0.414778   
     43. A(C   4,C   3,C  10)          130.1369         0.422679   
     44. A(N   2,C   3,C   4)          123.2699         0.412999   
     45. A(N   2,C   3,C  10)          106.5931         0.430026   
     46. A(C   5,C   4,C   9)          118.7383         0.429230   
     47. A(C   3,C   4,C   5)          121.7932         0.417520   
     48. A(C   3,C   4,C   9)          119.4685         0.417319   
     49. A(C   6,C   5,H  23)          118.7790         0.357733   
     50. A(C   4,C   5,C   6)          120.4551         0.435098   
     51. A(C   4,C   5,H  23)          120.7659         0.353339   
     52. A(C   7,C   6,H  24)          120.0238         0.356408   
     53. A(C   5,C   6,C   7)          120.3063         0.439130   
     54. A(C   5,C   6,H  24)          119.6700         0.357723   
     55. A(C   6,C   7,C   8)          119.7632         0.437386   
     56. A(C   8,C   7,H  25)          120.2549         0.356466   
     57. A(C   6,C   7,H  25)          119.9819         0.356490   
     58. A(C   9,C   8,H  26)          119.5567         0.357839   
     59. A(C   7,C   8,H  26)          120.0158         0.356520   
     60. A(C   7,C   8,C   9)          120.4275         0.439071   
     61. A(C   8,C   9,H  27)          120.1119         0.358092   
     62. A(C   4,C   9,H  27)          119.5786         0.353551   
     63. A(C   4,C   9,C   8)          120.3096         0.434859   
     64. A(C  11,C  10,C  21)          106.5815         0.407423   
     65. A(C   3,C  10,C  21)          108.6360         0.424237   
     66. A(C   3,C  10,C  11)          144.7824         0.422598   
     67. A(C  10,C  11,O  12)          133.0730         0.463196   
     68. A(O  12,C  11,O  13)          121.1896         0.466613   
     69. A(C  10,C  11,O  13)          105.7374         0.408759   
     70. A(C  11,O  13,C  14)          110.6247         0.419397   
     71. A(O  13,C  14,C  15)          118.9511         0.417740   
     72. A(C  15,C  14,C  21)          131.6623         0.427030   
     73. A(O  13,C  14,C  21)          109.3864         0.436861   
     74. A(C  16,C  15,C  20)          119.6305         0.429597   
     75. A(C  14,C  15,C  20)          120.1391         0.418934   
     76. A(C  14,C  15,C  16)          120.2303         0.418774   
     77. A(C  17,C  16,H  28)          120.5328         0.358034   
     78. A(C  15,C  16,H  28)          119.7725         0.353593   
     79. A(C  15,C  16,C  17)          119.6947         0.435146   
     80. A(C  18,C  17,H  29)          119.9237         0.356188   
     81. A(C  16,C  17,H  29)          119.6654         0.357832   
     82. A(C  16,C  17,C  18)          120.4109         0.438803   
     83. A(C  19,C  18,H  30)          119.9092         0.356187   
     84. A(C  17,C  18,H  30)          119.9755         0.356095   
     85. A(C  17,C  18,C  19)          120.1153         0.436783   
     86. A(C  20,C  19,H  31)          119.8625         0.357897   
     87. A(C  18,C  19,H  31)          120.0067         0.356244   
     88. A(C  18,C  19,C  20)          120.1308         0.439054   
     89. A(C  19,C  20,H  32)          120.8866         0.358093   
     90. A(C  15,C  20,H  32)          119.0955         0.353680   
     91. A(C  15,C  20,C  19)          120.0178         0.435443   
     92. A(C  10,C  21,C  14)          107.6698         0.427315   
     93. A(C   1,C  21,C  14)          144.5921         0.423137   
     94. A(C   1,C  21,C  10)          107.7380         0.405036   
     95. D(H  22,N   2,C   1,C  21)    179.9820         0.023768   
     96. D(H  22,N   2,C   1,O   0)     -0.0191         0.023768   
     97. D(C   3,N   2,C   1,O   0)   -179.9919         0.023768   
     98. D(C   3,N   2,C   1,C  21)      0.0092         0.023768   
     99. D(C  10,C   3,N   2,C   1)     -0.0502         0.027689   
    100. D(C  10,C   3,N   2,H  22)    179.9780         0.027689   
    101. D(C   4,C   3,N   2,C   1)    179.8209         0.027689   
    102. D(C   4,C   3,N   2,H  22)     -0.1509         0.027689   
    103. D(C   9,C   4,C   3,C  10)     -0.1021         0.018018   
    104. D(C   5,C   4,C   3,N   2)     -0.0169         0.018018   
    105. D(C   5,C   4,C   3,C  10)    179.8215         0.018018   
    106. D(C   9,C   4,C   3,N   2)   -179.9405         0.018018   
    107. D(H  23,C   5,C   4,C   3)      0.0841         0.024973   
    108. D(C   6,C   5,C   4,C   3)   -179.8959         0.024973   
    109. D(C   6,C   5,C   4,C   9)      0.0282         0.024973   
    110. D(H  23,C   5,C   4,C   9)   -179.9918         0.024973   
    111. D(H  24,C   6,C   5,H  23)      0.0011         0.029152   
    112. D(C   7,C   6,C   5,H  23)   -179.9881         0.029152   
    113. D(H  24,C   6,C   5,C   4)    179.9814         0.029152   
    114. D(C   7,C   6,C   5,C   4)     -0.0077         0.029152   
    115. D(H  25,C   7,C   6,H  24)     -0.0128         0.027835   
    116. D(H  25,C   7,C   6,C   5)    179.9763         0.027835   
    117. D(C   8,C   7,C   6,C   5)     -0.0181         0.027835   
    118. D(C   8,C   7,C   6,H  24)    179.9929         0.027835   
    119. D(H  26,C   8,C   7,H  25)      0.0081         0.027811   
    120. D(H  26,C   8,C   7,C   6)   -179.9975         0.027811   
    121. D(C   9,C   8,C   7,H  25)   -179.9715         0.027811   
    122. D(C   9,C   8,C   7,C   6)      0.0229         0.027811   
    123. D(H  27,C   9,C   4,C   3)     -0.0933         0.024831   
    124. D(C   8,C   9,C   4,C   5)     -0.0234         0.024831   
    125. D(C   8,C   9,C   4,C   3)    179.9026         0.024831   
    126. D(H  27,C   9,C   8,H  26)      0.0142         0.029130   
    127. D(H  27,C   9,C   8,C   7)    179.9939         0.029130   
    128. D(C   4,C   9,C   8,H  26)   -179.9817         0.029130   
    129. D(C   4,C   9,C   8,C   7)     -0.0020         0.029130   
    130. D(H  27,C   9,C   4,C   5)    179.9808         0.024831   
    131. D(C  21,C  10,C   3,C   4)   -179.7893         0.028903   
    132. D(C  21,C  10,C   3,N   2)      0.0697         0.028903   
    133. D(C  11,C  10,C   3,C   4)      0.0878         0.028903   
    134. D(C  11,C  10,C   3,N   2)    179.9468         0.028903   
    135. D(O  13,C  11,C  10,C  21)      0.0273         0.017979   
    136. D(O  12,C  11,C  10,C  21)   -179.9369         0.017979   
    137. D(O  12,C  11,C  10,C   3)      0.1847         0.017979   
    138. D(O  13,C  11,C  10,C   3)   -179.8512         0.017979   
    139. D(C  14,O  13,C  11,O  12)    179.9885         0.022254   
    140. D(C  14,O  13,C  11,C  10)      0.0192         0.022254   
    141. D(C  21,C  14,O  13,C  11)     -0.0610         0.027768   
    142. D(C  15,C  14,O  13,C  11)    179.8185         0.027768   
    143. D(C  20,C  15,C  14,C  21)    179.8259         0.018649   
    144. D(C  20,C  15,C  14,O  13)     -0.0220         0.018649   
    145. D(C  16,C  15,C  14,C  21)     -0.0905         0.018649   
    146. D(C  16,C  15,C  14,O  13)   -179.9384         0.018649   
    147. D(H  28,C  16,C  15,C  20)    179.9863         0.024971   
    148. D(H  28,C  16,C  15,C  14)     -0.0969         0.024971   
    149. D(C  17,C  16,C  15,C  20)     -0.0306         0.024971   
    150. D(C  17,C  16,C  15,C  14)    179.8862         0.024971   
    151. D(H  29,C  17,C  16,H  28)      0.0018         0.029193   
    152. D(H  29,C  17,C  16,C  15)   -179.9812         0.029193   
    153. D(C  18,C  17,C  16,H  28)    179.9857         0.029193   
    154. D(C  18,C  17,C  16,C  15)      0.0027         0.029193   
    155. D(H  30,C  18,C  17,C  16)   -179.9778         0.027552   
    156. D(C  19,C  18,C  17,H  29)   -179.9906         0.027552   
    157. D(C  19,C  18,C  17,C  16)      0.0256         0.027552   
    158. D(H  30,C  18,C  17,H  29)      0.0060         0.027552   
    159. D(H  31,C  19,C  18,H  30)     -0.0011         0.027641   
    160. D(H  31,C  19,C  18,C  17)    179.9955         0.027641   
    161. D(C  20,C  19,C  18,H  30)    179.9777         0.027641   
    162. D(C  20,C  19,C  18,C  17)     -0.0256         0.027641   
    163. D(H  32,C  20,C  19,H  31)      0.0033         0.029296   
    164. D(H  32,C  20,C  19,C  18)   -179.9755         0.029296   
    165. D(C  15,C  20,C  19,H  31)    179.9764         0.029296   
    166. D(C  15,C  20,C  19,C  18)     -0.0025         0.029296   
    167. D(H  32,C  20,C  15,C  16)   -179.9959         0.025084   
    168. D(H  32,C  20,C  15,C  14)      0.0872         0.025084   
    169. D(C  19,C  20,C  15,C  16)      0.0306         0.025084   
    170. D(C  19,C  20,C  15,C  14)   -179.8863         0.025084   
    171. D(C  10,C  21,C  14,C  15)   -179.7822         0.031518   
    172. D(C   1,C  21,C  14,C  15)      0.0997         0.031518   
    173. D(C   1,C  21,C  14,O  13)    179.9586         0.031518   
    174. D(C  14,C  21,C  10,C  11)     -0.0636         0.018791   
    175. D(C  14,C  21,C  10,C   3)    179.8624         0.018791   
    176. D(C   1,C  21,C  10,C  11)   -179.9917         0.018791   
    177. D(C   1,C  21,C  10,C   3)     -0.0657         0.018791   
    178. D(C  14,C  21,C   1,N   2)   -179.8478         0.016807   
    179. D(C  14,C  21,C   1,O   0)      0.1535         0.016807   
    180. D(C  10,C  21,C  14,O  13)      0.0768         0.031518   
    181. D(C  10,C  21,C   1,N   2)      0.0340         0.016807   
    182. D(C  10,C  21,C   1,O   0)   -179.9647         0.016807   
    -----------------------------------------------------------------

Number of atoms                         .... 33
Number of degrees of freedom            .... 182

         *************************************************************
         *                GEOMETRY OPTIMIZATION CYCLE   1            *
         *************************************************************
---------------------------------
CARTESIAN COORDINATES (ANGSTROEM)
---------------------------------
  O     -1.102700    2.115300   -1.723600
  C     -0.393500    1.363400   -1.093100
  N      1.001700    1.424900   -1.091500
  C      1.597800    0.468200   -0.300700
  C      3.027700    0.342500   -0.152200
  C      3.916200    1.199000   -0.813700
  C      5.279400    1.052500   -0.653400
  C      5.784200    0.054400    0.165600
  C      4.914300   -0.799400    0.826200
  C      3.549200   -0.662200    0.673200
  C      0.575700   -0.273400    0.259500
  C      0.262800   -1.377200    1.135300
  O      0.942400   -2.138000    1.773700
  O     -1.126900   -1.463800    1.152100
  C     -1.677900   -0.502000    0.357100
  C     -3.109900   -0.431200    0.240500
  C     -3.703900    0.544600   -0.569200
  C     -5.078900    0.601000   -0.674900
  C     -5.874100   -0.302400    0.015700
  C     -5.290500   -1.270600    0.819600
  C     -3.917300   -1.339300    0.935100
  C     -0.679700    0.248600   -0.207200
  H      1.500600    2.115900   -1.629200
  H      3.549900    1.984700   -1.457700
  H      5.953200    1.720000   -1.169900
  H      6.851300   -0.055700    0.286900
  H      5.302900   -1.577900    1.464900
  H      2.877300   -1.329100    1.189300
  H     -3.083800    1.245800   -1.105400
  H     -5.536400    1.353400   -1.299600
  H     -6.949400   -0.252100   -0.072400
  H     -5.911000   -1.972700    1.356300
  H     -3.450500   -2.087600    1.556600

----------------------------
CARTESIAN COORDINATES (A.U.)
----------------------------
  NO LB      ZA    FRAG     MASS         X           Y           Z
   0 O     8.0000    0    15.999   -2.083801    3.997338   -3.257132
   1 C     6.0000    0    12.011   -0.743607    2.576453   -2.065660
   2 N     7.0000    0    14.007    1.892939    2.692671   -2.062636
   3 C     6.0000    0    12.011    3.019404    0.884770   -0.568241
   4 C     6.0000    0    12.011    5.721524    0.647231   -0.287616
   5 C     6.0000    0    12.011    7.400545    2.265782   -1.537670
   6 C     6.0000    0    12.011    9.976620    1.988937   -1.234747
   7 C     6.0000    0    12.011   10.930554    0.102801    0.312939
   8 C     6.0000    0    12.011    9.286681   -1.510647    1.561292
   9 C     6.0000    0    12.011    6.707016   -1.251377    1.272164
  10 C     6.0000    0    12.011    1.087915   -0.516651    0.490384
  11 C     6.0000    0    12.011    0.496620   -2.602531    2.145406
  12 O     8.0000    0    15.999    1.780878   -4.040234    3.351807
  13 O     8.0000    0    15.999   -2.129532   -2.766181    2.177153
  14 C     6.0000    0    12.011   -3.170771   -0.948643    0.674821
  15 C     6.0000    0    12.011   -5.876859   -0.814850    0.454479
  16 C     6.0000    0    12.011   -6.999357    1.029145   -1.075632
  17 C     6.0000    0    12.011   -9.597730    1.135725   -1.275376
  18 C     6.0000    0    12.011  -11.100440   -0.571453    0.029669
  19 C     6.0000    0    12.011   -9.997596   -2.401086    1.548820
  20 C     6.0000    0    12.011   -7.402624   -2.530910    1.767083
  21 C     6.0000    0    12.011   -1.284447    0.469786   -0.391551
  22 H     1.0000    0     1.008    2.835723    3.998472   -3.078742
  23 H     1.0000    0     1.008    6.708339    3.750539   -2.754654
  24 H     1.0000    0     1.008   11.249918    3.250329   -2.210791
  25 H     1.0000    0     1.008   12.947081   -0.105258    0.542162
  26 H     1.0000    0     1.008   10.021029   -2.981799    2.768260
  27 H     1.0000    0     1.008    5.437309   -2.511635    2.247451
  28 H     1.0000    0     1.008   -5.827537    2.354221   -2.088903
  29 H     1.0000    0     1.008  -10.462280    2.557555   -2.455888
  30 H     1.0000    0     1.008  -13.132463   -0.476400   -0.136816
  31 H     1.0000    0     1.008  -11.170171   -3.727863    2.563036
  32 H     1.0000    0     1.008   -6.520500   -3.944992    2.941548

--------------------------------
INTERNAL COORDINATES (ANGSTROEM)
--------------------------------
 O      0   0   0     0.000000000000     0.00000000     0.00000000
 C      1   0   0     1.210722305072     0.00000000     0.00000000
 N      2   1   0     1.396555709594   123.94836827     0.00000000
 C      3   2   1     1.376943985789   113.73807114   180.00805972
 C      4   3   2     1.443075448478   123.26989901   179.82090579
 C      5   4   3     1.400216679661   121.79315467     0.00000000
 C      6   5   4     1.380388561239   120.45513009   180.10406463
 C      7   6   5     1.386285558606   120.30625020     0.00000000
 C      8   7   6     1.386395618141   119.76322758     0.00000000
 C      9   8   7     1.380482107816   120.42749910     0.00000000
 C      4   3   2     1.381478559370   106.59306486   359.94982621
 C     11   4   3     1.443366374141   144.78235699   179.94676818
 O     12  11   4     1.203423184088   133.07297530     0.18470069
 O     12  11   4     1.392496998201   105.73744224   180.14884558
 C     14  12  11     1.364069367738   110.62471197     0.00000000
 C     15  14  12     1.438482603301   118.95112882   179.81854658
 C     16  15  14     1.400227028021   120.23034280   180.06156885
 C     17  16  15     1.380209567421   119.69466375   179.88619583
 C     18  17  16     1.387588901656   120.41090707     0.00000000
 C     19  18  17     1.387175334988   120.11527895     0.02555794
 C     20  19  18     1.379760189308   120.13077090   359.97437381
 C     15  14  12     1.370488267006   109.38640919   359.93896253
 H      3   2   1     1.007721935853   121.61315668     0.00000000
 H      6   5   4     1.079924154744   120.76587369     0.08406180
 H      7   6   5     1.079969879210   119.66998550   179.98144443
 H      8   7   6     1.079600903112   119.98187827   179.97632508
 H      9   8   7     1.079356243323   120.01582902   180.00250790
 H     10   9   8     1.078222810925   120.11185264   179.99387702
 H     17  16  15     1.078756640768   119.77252839   359.90306295
 H     18  17  16     1.079658325583   119.66541596   180.01881717
 H     19  18  17     1.080074900181   119.97553402   180.02218709
 H     20  19  18     1.079820147062   120.00674086   179.99553876
 H     21  20  19     1.078942713957   120.88661192   180.02446206

---------------------------
INTERNAL COORDINATES (A.U.)
---------------------------
 O      0   0   0     0.000000000000     0.00000000     0.00000000
 C      1   0   0     2.287933580817     0.00000000     0.00000000
 N      2   1   0     2.639107821897   123.94836827     0.00000000
 C      3   2   1     2.602047034891   113.73807114   180.00805972
 C      4   3   2     2.727017388209   123.26989901   179.82090579
 C      5   4   3     2.646026052707   121.79315467     0.00000000
 C      6   5   4     2.608556339140   120.45513009   180.10406463
 C      7   6   5     2.619700049176   120.30625020     0.00000000
 C      8   7   6     2.619908031555   119.76322758     0.00000000
 C      9   8   7     2.608733116551   120.42749910     0.00000000
 C      4   3   2     2.610616137094   106.59306486   359.94982621
 C     11   4   3     2.727567158037   144.78235699   179.94676818
 O     12  11   4     2.274140241137   133.07297530     0.18470069
 O     12  11   4     2.631437968908   105.73744224   180.14884558
 C     14  12  11     2.577717532695   110.62471197     0.00000000
 C     15  14  12     2.718338168649   118.95112882   179.81854658
 C     16  15  14     2.646045608274   120.23034280   180.06156885
 C     17  16  15     2.608218089843   119.69466375   179.88619583
 C     18  17  16     2.622163010599   120.41090707     0.00000000
 C     19  18  17     2.621381482858   120.11527895     0.02555794
 C     20  19  18     2.607368888280   120.13077090   359.97437381
 C     15  14  12     2.589847494393   109.38640919   359.93896253
 H      3   2   1     1.904318477908   121.61315668     0.00000000
 H      6   5   4     2.040760897873   120.76587369     0.08406180
 H      7   6   5     2.040847304590   119.66998550   179.98144443
 H      8   7   6     2.040150040816   119.98187827   179.97632508
 H      9   8   7     2.039687700818   120.01582902   180.00250790
 H     10   9   8     2.037545823996   120.11185264   179.99387702
 H     17  16  15     2.038554616199   119.77252839   359.90306295
 H     18  17  16     2.040258553559   119.66541596   180.01881717
 H     19  18  17     2.041045765464   119.97553402   180.02218709
 H     20  19  18     2.040564351837   120.00674086   179.99553876
 H     21  20  19     2.038906243568   120.88661192   180.02446206

---------------------
BASIS SET INFORMATION
---------------------
There are 4 groups of distinct atoms

 Group   1 Type O   : 19s6p3d2f contracted to 5s4p3d2f pattern {88111/3111/111/11}
 Group   2 Type C   : 19s6p3d2f contracted to 5s4p3d2f pattern {88111/3111/111/11}
 Group   3 Type N   : 19s6p3d2f contracted to 5s4p3d2f pattern {88111/3111/111/11}
 Group   4 Type H   : 5s2p1d contracted to 3s2p1d pattern {311/11/1}

Atom   0O    basis set group =>   1
Atom   1C    basis set group =>   2
Atom   2N    basis set group =>   3
Atom   3C    basis set group =>   2
Atom   4C    basis set group =>   2
Atom   5C    basis set group =>   2
Atom   6C    basis set group =>   2
Atom   7C    basis set group =>   2
Atom   8C    basis set group =>   2
Atom   9C    basis set group =>   2
Atom  10C    basis set group =>   2
Atom  11C    basis set group =>   2
Atom  12O    basis set group =>   1
Atom  13O    basis set group =>   1
Atom  14C    basis set group =>   2
Atom  15C    basis set group =>   2
Atom  16C    basis set group =>   2
Atom  17C    basis set group =>   2
Atom  18C    basis set group =>   2
Atom  19C    basis set group =>   2
Atom  20C    basis set group =>   2
Atom  21C    basis set group =>   2
Atom  22H    basis set group =>   4
Atom  23H    basis set group =>   4
Atom  24H    basis set group =>   4
Atom  25H    basis set group =>   4
Atom  26H    basis set group =>   4
Atom  27H    basis set group =>   4
Atom  28H    basis set group =>   4
Atom  29H    basis set group =>   4
Atom  30H    basis set group =>   4
Atom  31H    basis set group =>   4
Atom  32H    basis set group =>   4
---------------------------------
AUXILIARY/J BASIS SET INFORMATION
---------------------------------
There are 4 groups of distinct atoms

 Group   1 Type O   : 10s7p5d2f1g contracted to 10s7p5d2f1g pattern {1111111111/1111111/11111/11/1}
 Group   2 Type C   : 10s7p5d2f1g contracted to 10s7p5d2f1g pattern {1111111111/1111111/11111/11/1}
 Group   3 Type N   : 10s7p5d2f1g contracted to 10s7p5d2f1g pattern {1111111111/1111111/11111/11/1}
 Group   4 Type H   : 4s3p2d1f contracted to 4s3p2d1f pattern {1111/111/11/1}

Atom   0O    basis set group =>   1
Atom   1C    basis set group =>   2
Atom   2N    basis set group =>   3
Atom   3C    basis set group =>   2
Atom   4C    basis set group =>   2
Atom   5C    basis set group =>   2
Atom   6C    basis set group =>   2
Atom   7C    basis set group =>   2
Atom   8C    basis set group =>   2
Atom   9C    basis set group =>   2
Atom  10C    basis set group =>   2
Atom  11C    basis set group =>   2
Atom  12O    basis set group =>   1
Atom  13O    basis set group =>   1
Atom  14C    basis set group =>   2
Atom  15C    basis set group =>   2
Atom  16C    basis set group =>   2
Atom  17C    basis set group =>   2
Atom  18C    basis set group =>   2
Atom  19C    basis set group =>   2
Atom  20C    basis set group =>   2
Atom  21C    basis set group =>   2
Atom  22H    basis set group =>   4
Atom  23H    basis set group =>   4
Atom  24H    basis set group =>   4
Atom  25H    basis set group =>   4
Atom  26H    basis set group =>   4
Atom  27H    basis set group =>   4
Atom  28H    basis set group =>   4
Atom  29H    basis set group =>   4
Atom  30H    basis set group =>   4
Atom  31H    basis set group =>   4
Atom  32H    basis set group =>   4
---------------------------------
AUXILIARY/C BASIS SET INFORMATION
---------------------------------
There are 4 groups of distinct atoms

 Group   1 Type O   : 9s7p6d4f2g contracted to 9s7p6d4f2g pattern {111111111/1111111/111111/1111/11}
 Group   2 Type C   : 9s7p6d4f2g contracted to 9s7p6d4f2g pattern {111111111/1111111/111111/1111/11}
 Group   3 Type N   : 9s7p6d4f2g contracted to 9s7p6d4f2g pattern {111111111/1111111/111111/1111/11}
 Group   4 Type H   : 4s3p2d1f contracted to 4s3p2d1f pattern {1111/111/11/1}

Atom   0O    basis set group =>   1
Atom   1C    basis set group =>   2
Atom   2N    basis set group =>   3
Atom   3C    basis set group =>   2
Atom   4C    basis set group =>   2
Atom   5C    basis set group =>   2
Atom   6C    basis set group =>   2
Atom   7C    basis set group =>   2
Atom   8C    basis set group =>   2
Atom   9C    basis set group =>   2
Atom  10C    basis set group =>   2
Atom  11C    basis set group =>   2
Atom  12O    basis set group =>   1
Atom  13O    basis set group =>   1
Atom  14C    basis set group =>   2
Atom  15C    basis set group =>   2
Atom  16C    basis set group =>   2
Atom  17C    basis set group =>   2
Atom  18C    basis set group =>   2
Atom  19C    basis set group =>   2
Atom  20C    basis set group =>   2
Atom  21C    basis set group =>   2
Atom  22H    basis set group =>   4
Atom  23H    basis set group =>   4
Atom  24H    basis set group =>   4
Atom  25H    basis set group =>   4
Atom  26H    basis set group =>   4
Atom  27H    basis set group =>   4
Atom  28H    basis set group =>   4
Atom  29H    basis set group =>   4
Atom  30H    basis set group =>   4
Atom  31H    basis set group =>   4
Atom  32H    basis set group =>   4


           ************************************************************
           *        Program running with 4 parallel MPI-processes     *
           *              working on a common directory               *
           ************************************************************
------------------------------------------------------------------------------
                           ORCA GTO INTEGRAL CALCULATION
                           -- RI-GTO INTEGRALS CHOSEN --
------------------------------------------------------------------------------
------------------------------------------------------------------------------
                   ___                                                        
                  /   \      - P O W E R E D   B Y -                         
                 /     \                                                     
                 |  |  |   _    _      __       _____    __    __             
                 |  |  |  | |  | |    /  \     |  _  \  |  |  /  |          
                  \  \/   | |  | |   /    \    | | | |  |  | /  /          
                 / \  \   | |__| |  /  /\  \   | |_| |  |  |/  /          
                |  |  |   |  __  | /  /__\  \  |    /   |      \           
                |  |  |   | |  | | |   __   |  |    \   |  |\   \          
                \     /   | |  | | |  |  |  |  | |\  \  |  | \   \       
                 \___/    |_|  |_| |__|  |__|  |_| \__\ |__|  \__/        
                                                                              
                      - O R C A' S   B I G   F R I E N D -                    
                                      &                                       
                       - I N T E G R A L  F E E D E R -                       
                                                                              
 v1 FN, 2020, v2 2021                                                         
------------------------------------------------------------------------------


Reading SHARK input file x3lyp-train-19.SHARKINP.tmp ... ok
----------------------
SHARK INTEGRAL PACKAGE
----------------------

Number of atoms                             ...     33
Number of basis functions                   ...   1298
Number of shells                            ...    506
Maximum angular momentum                    ...      3
Integral batch strategy                     ... SHARK/LIBINT Hybrid
RI-J (if used) integral strategy            ... SPLIT-RIJ (Revised 2003 algorithm where possible)
Printlevel                                  ...      1
Contraction scheme used                     ... PARTIAL GENERAL contraction
Coulomb Range Separation                    ... NOT USED
Exchange Range Separation                   ... NOT USED
Finite Nucleus Model                        ... NOT USED
Auxiliary Coulomb fitting basis             ... AVAILABLE
   # of basis functions in Aux-J            ...   2068
   # of shells in Aux-J                     ...    660
   Maximum angular momentum in Aux-J        ...      4
Auxiliary J/K fitting basis                 ... NOT available
Auxiliary Correlation fitting basis         ... AVAILABLE
   # of basis functions in Aux-C            ...   2662
   # of shells in Aux-C                     ...    726
   Maximum angular momentum in Aux-C        ...      4
Auxiliary 'external' fitting basis          ... NOT available
Integral threshold                          ...     2.500000e-11
Primitive cut-off                           ...     2.500000e-12
Primitive pair pre-selection threshold      ...     2.500000e-12

Calculating pre-screening integrals         ... done (  0.3 sec) Dimension = 506
Calculating pre-screening integrals (ORCA)  ... done (  0.7 sec) Dimension = 374
Organizing shell pair data                  ... done (  2.1 sec)
Shell pair information
Total number of shell pairs                 ...    128271
Shell pairs after pre-screening             ...     80155
Total number of primitive shell pairs       ...    163977
Primitive shell pairs kept                  ...     93008
          la=0 lb=0:  17798 shell pairs
          la=1 lb=0:  20393 shell pairs
          la=1 lb=1:   4882 shell pairs
          la=2 lb=0:  13576 shell pairs
          la=2 lb=1:   6578 shell pairs
          la=2 lb=2:   2304 shell pairs
          la=3 lb=0:   7506 shell pairs
          la=3 lb=1:   3767 shell pairs
          la=3 lb=2:   2588 shell pairs
          la=3 lb=3:    763 shell pairs

Calculating one electron integrals          ... done (  0.3 sec)
Calculating RI/J V-Matrix + Cholesky decomp.... done (  0.3 sec)
Calculating RI/C V-Matrix + Cholesky decomp.... done (  0.5 sec)
Calculating Nuclear repulsion               ... done (  0.0 sec) ENN=   1611.424833126302 Eh

SHARK setup successfully completed in   7.6 seconds

Maximum memory used throughout the entire GTOINT-calculation: 127.4 MB


           ************************************************************
           *        Program running with 4 parallel MPI-processes     *
           *              working on a common directory               *
           ************************************************************
-------------------------------------------------------------------------------
                                 ORCA SCF
-------------------------------------------------------------------------------

------------
SCF SETTINGS
------------
Hamiltonian:
 Density Functional     Method          .... DFT(GTOs)
 Exchange Functional    Exchange        .... X
 Correlation Functional Correlation     .... LYP
 LDA part of GGA corr.  LDAOpt          .... VWN-5
 Gradients option       PostSCFGGA      .... off
 Hybrid DFT is turned on
   Fraction HF Exchange ScalHFX         ....  0.218000
   Scaling of DF-GGA-X  ScalDFX         ....  0.709000
   Scaling of DF-GGA-C  ScalDFC         ....  0.871000
   Scaling of DF-LDA-C  ScalLDAC        ....  1.000000
   Perturbative correction              ....  0.000000
   Density functional embedding theory  .... OFF
 RI-approximation to the Coulomb term is turned on
   Number of AuxJ basis functions       .... 2068
   RIJ-COSX (HFX calculated with COS-X)).... on


General Settings:
 Integral files         IntName         .... x3lyp-train-19
 Hartree-Fock type      HFTyp           .... RHF
 Total Charge           Charge          ....    0
 Multiplicity           Mult            ....    1
 Number of Electrons    NEL             ....  150
 Basis Dimension        Dim             .... 1166
 Nuclear Repulsion      ENuc            ....   1611.4248331263 Eh

Convergence Acceleration:
 DIIS                   CNVDIIS         .... on
   Start iteration      DIISMaxIt       ....    12
   Startup error        DIISStart       ....  0.200000
   # of expansion vecs  DIISMaxEq       ....     5
   Bias factor          DIISBfac        ....   1.050
   Max. coefficient     DIISMaxC        ....  10.000
 Trust-Rad. Augm. Hess. CNVTRAH         .... auto
   Auto Start mean grad. ratio tolernc. ....  1.125000
   Auto Start start iteration           ....    20
   Auto Start num. interpolation iter.  ....    10
   Max. Number of Micro iterations      ....    16
   Max. Number of Macro iterations      .... Maxiter - #DIIS iter
   Number of Davidson start vectors     ....     2
   Converg. threshold I  (grad. norm)   ....   1.000e-05
   Converg. threshold II (energy diff.) ....   1.000e-08
   Grad. Scal. Fac. for Micro threshold ....   0.100
   Minimum threshold for Micro iter.    ....   0.010
   NR start threshold (gradient norm)   ....   0.001
   Initial trust radius                 ....   0.400
   Minimum AH scaling param. (alpha)    ....   1.000
   Maximum AH scaling param. (alpha)    .... 1000.000
   Orbital update algorithm             .... Taylor
   White noise on init. David. guess    .... on
   Maximum white noise                  ....   0.010
   Quad. conv. algorithm                .... NR
 SOSCF                  CNVSOSCF        .... on
   Start iteration      SOSCFMaxIt      ....   150
   Startup grad/error   SOSCFStart      ....  0.003300
 Level Shifting         CNVShift        .... on
   Level shift para.    LevelShift      ....    0.2500
   Turn off err/grad.   ShiftErr        ....    0.0010
 Zerner damping         CNVZerner       .... off
 Static damping         CNVDamp         .... on
   Fraction old density DampFac         ....    0.7000
   Max. Damping (<1)    DampMax         ....    0.9800
   Min. Damping (>=0)   DampMin         ....    0.0000
   Turn off err/grad.   DampErr         ....    0.1000
 Fernandez-Rico         CNVRico         .... off

SCF Procedure:
 Maximum # iterations   MaxIter         ....   125
 SCF integral mode      SCFMode         .... Direct
   Integral package                     .... SHARK and LIBINT hybrid scheme
 Reset frequency        DirectResetFreq ....    20
 Integral Threshold     Thresh          ....  2.500e-11 Eh
 Primitive CutOff       TCut            ....  2.500e-12 Eh

Convergence Tolerance:
 Convergence Check Mode ConvCheckMode   .... Total+1el-Energy
 Convergence forced     ConvForced      .... 0
 Energy Change          TolE            ....  1.000e-08 Eh
 1-El. energy change                    ....  1.000e-05 Eh
 Orbital Gradient       TolG            ....  1.000e-05
 Orbital Rotation angle TolX            ....  1.000e-05
 DIIS Error             TolErr          ....  5.000e-07


Diagonalization of the overlap matrix:
Smallest eigenvalue                        ... 3.486e-07
Time for diagonalization                   ...    0.326 sec
Threshold for overlap eigenvalues          ... 1.000e-08
Number of eigenvalues below threshold      ... 0
Time for construction of square roots      ...    0.227 sec
Total time needed                          ...    0.561 sec

Time for model grid setup =    0.784 sec

------------------------------
INITIAL GUESS: MODEL POTENTIAL
------------------------------
Loading Hartree-Fock densities                     ... done
Calculating cut-offs                               ... done
Initializing the effective Hamiltonian             ... done
Setting up the integral package (SHARK)            ... done
Starting the Coulomb interaction                   ... done (   3.4 sec)
Reading the grid                                   ... done
Mapping shells                                     ... done
Starting the XC term evaluation                    ... done (   2.9 sec)
  promolecular density results
     # of electrons  =    149.992685023
     EX              =   -127.907180309
     EC              =     -5.179188331
     EX+EC           =   -133.086368639
Transforming the Hamiltonian                       ... done (   0.2 sec)
Diagonalizing the Hamiltonian                      ... done (   0.4 sec)
Back transforming the eigenvectors                 ... done (   0.1 sec)
Now organizing SCF variables                       ... done
                      ------------------
                      INITIAL GUESS DONE (   7.7 sec)
                      ------------------
-------------------
DFT GRID GENERATION
-------------------

General Integration Accuracy     IntAcc      ... 4.388
Radial Grid Type                 RadialGrid  ... OptM3 with GC (2021)
Angular Grid (max. ang.)         AngularGrid ... 4 (Lebedev-302)
Angular grid pruning method      GridPruning ... 4 (adaptive)
Weight generation scheme         WeightScheme... Becke
Basis function cutoff            BFCut       ... 1.0000e-11
Integration weight cutoff        WCut        ... 1.0000e-14
Angular grids for H and He will be reduced by one unit
Partially contracted basis set               ... off
Rotationally invariant grid construction     ... off

Total number of grid points                  ...   172329
Total number of batches                      ...     2708
Average number of points per batch           ...       63
Average number of grid points per atom       ...     5222
Time for grid setup =    3.043 sec

--------------------
COSX GRID GENERATION
--------------------

GRIDX 1
-------
General Integration Accuracy     IntAcc      ... 3.816
Radial Grid Type                 RadialGrid  ... OptM3 with GC (2021)
Angular Grid (max. ang.)         AngularGrid ... 1 (Lebedev-50)
Angular grid pruning method      GridPruning ... 4 (adaptive)
Weight generation scheme         WeightScheme... Becke
Basis function cutoff            BFCut       ... 1.0000e-11
Integration weight cutoff        WCut        ... 1.0000e-14
Angular grids for H and He will be reduced by one unit
Partially contracted basis set               ... on
Rotationally invariant grid construction     ... off

Total number of grid points                  ...    21847
Total number of batches                      ...      361
Average number of points per batch           ...       60
Average number of grid points per atom       ...      662
UseSFitting                                  ... on

GRIDX 2
-------
General Integration Accuracy     IntAcc      ... 4.020
Radial Grid Type                 RadialGrid  ... OptM3 with GC (2021)
Angular Grid (max. ang.)         AngularGrid ... 2 (Lebedev-110)
Angular grid pruning method      GridPruning ... 4 (adaptive)
Weight generation scheme         WeightScheme... Becke
Basis function cutoff            BFCut       ... 1.0000e-11
Integration weight cutoff        WCut        ... 1.0000e-14
Angular grids for H and He will be reduced by one unit
Partially contracted basis set               ... on
Rotationally invariant grid construction     ... off

Total number of grid points                  ...    53133
Total number of batches                      ...      848
Average number of points per batch           ...       62
Average number of grid points per atom       ...     1610
UseSFitting                                  ... on

GRIDX 3
-------
General Integration Accuracy     IntAcc      ... 4.338
Radial Grid Type                 RadialGrid  ... OptM3 with GC (2021)
Angular Grid (max. ang.)         AngularGrid ... 3 (Lebedev-194)
Angular grid pruning method      GridPruning ... 4 (adaptive)
Weight generation scheme         WeightScheme... Becke
Basis function cutoff            BFCut       ... 1.0000e-11
Integration weight cutoff        WCut        ... 1.0000e-14
Angular grids for H and He will be reduced by one unit
Partially contracted basis set               ... on
Rotationally invariant grid construction     ... off

Total number of grid points                  ...   114741
Total number of batches                      ...     1807
Average number of points per batch           ...       63
Average number of grid points per atom       ...     3477
UseSFitting                                  ... on

Time for X-Grid setup             =    6.857 sec


--------------------
CPCM SOLVATION MODEL
--------------------
CPCM parameters:
  Epsilon                                         ...      46.8260
  Refrac                                          ...       1.4170
  Rsolv                                           ...       1.3000
  Surface type                                    ... GAUSSIAN VDW
  Epsilon function type                           ...         CPCM
Solvent:                                     ... DIMETHYLSULFOXIDE
SMD-CDS solvent descriptors:
  Soln                                       ...    1.4170
  Soln25                                     ...    1.4773
  Sola                                       ...    0.0000
  Solb                                       ...    0.8800
  Solg                                       ...   61.7800
  Solc                                       ...    0.0000
  Solh                                       ...    0.0000
Radii:
 Radius for O  used is    4.3350 Bohr (=   2.2940 Ang.)
 Radius for C  used is    3.4960 Bohr (=   1.8500 Ang.)
 Radius for N  used is    3.5716 Bohr (=   1.8900 Ang.)
 Radius for H  used is    2.2677 Bohr (=   1.2000 Ang.)
Calculating surface                               ...        done! (  0.0s)
GEPOL surface points                              ...         1717
GEPOL Volume                                      ...    2187.1796
GEPOL Surface-area                                ...    1122.8276
Calculating surface distance matrix               ...        done! (  0.0s)
Performing Cholesky decomposition & store         ...        done! (  0.2s)
Overall time for CPCM initialization              ...                 0.2s
 re-compute Schwartz prescreening matrix in partically contracted basis (1) ...done (   0.284 sec)
--------------
SCF ITERATIONS
--------------
ITER       Energy         Delta-E        Max-DP      RMS-DP      [F,P]     Damp
               ***  Starting incremental Fock matrix formation  ***
  0   -971.9770459109   0.000000000000 0.34419636  0.00189952  0.3162369 0.7000
  1   -972.2379762928  -0.260930381940 0.23279236  0.00132322  0.1189515 0.7000
                               ***Turning on DIIS***
  2   -972.3410728584  -0.103096565622 0.55082121  0.00267425  0.0399715 0.0000
  3   -972.5117826360  -0.170709777597 0.11874158  0.00069010  0.0602558 0.0000
  4   -972.5430600611  -0.031277425121 0.04162265  0.00021633  0.0208149 0.0000
  5   -972.5454884844  -0.002428423257 0.03258991  0.00016888  0.0093745 0.0000
                      *** Initiating the SOSCF procedure ***
                           *** Shutting down DIIS ***
                      *** Re-Reading the Fockian *** 
                      *** Removing any level shift *** 
ITER      Energy       Delta-E        Grad      Rot      Max-DP    RMS-DP
  6   -972.54568147  -0.0001929854  0.000324  0.000324  0.064353  0.000163
               *** Restarting incremental Fock matrix formation ***
  7   -972.54567868   0.0000027940  0.000218  0.001165  0.170784  0.000738
  8   -972.54568091  -0.0000022373  0.000177  0.000565  0.021606  0.000176
  9   -972.54568356  -0.0000026436  0.000082  0.000392  0.049132  0.000240
 10   -972.54568380  -0.0000002414  0.000062  0.000247  0.017048  0.000080
 11   -972.54568394  -0.0000001409  0.000025  0.000084  0.039316  0.000146
 12   -972.54568395  -0.0000000097  0.000010  0.000030  0.043761  0.000159
 13   -972.54568393   0.0000000188  0.000008  0.000041  0.096931  0.000327
 14   -972.54568392   0.0000000105  0.000003  0.000005  0.076518  0.000233
 15   -972.54568397  -0.0000000486  0.000003  0.000009  0.049460  0.000136
 16   -972.54568397  -0.0000000026  0.000003  0.000012  0.052981  0.000165
 17   -972.54568399  -0.0000000192  0.000003  0.000005  0.045681  0.000119
 18   -972.54568403  -0.0000000392  0.000003  0.000013  0.033428  0.000179
 19   -972.54568403  -0.0000000035  0.000005  0.000004  0.067032  0.000150
 20   -972.54568407  -0.0000000347  0.000004  0.000017  0.307370  0.000677

 WARNING: the maximum gradient error descreased on average only by a factor   1.0
          during the last 20 iterations

                      *** Initiating the TRAH-SCF procedure ***

              ***Rediagonalizing the Fockian in SOSCF/NRSCF***

TRAH GRIDX
----------

General Integration Accuracy     IntAcc      ... 3.067
Radial Grid Type                 RadialGrid  ... OptM3 with GC (2021)
Angular Grid (max. ang.)         AngularGrid ... 1 (Lebedev-50)
Angular grid pruning method      GridPruning ... 4 (adaptive)
Weight generation scheme         WeightScheme... Becke
Basis function cutoff            BFCut       ... 1.0000e-11
Integration weight cutoff        WCut        ... 1.0000e-14
Angular grids for H and He will be reduced by one unit
Partially contracted basis set               ... on
Rotationally invariant grid construction     ... off

Total number of grid points                  ...    11708
Total number of batches                      ...      200
Average number of points per batch           ...       58
Average number of grid points per atom       ...      355


TRAH GRID
---------

General Integration Accuracy     IntAcc      ... 3.467
Radial Grid Type                 RadialGrid  ... OptM3 with GC (2021)
Angular Grid (max. ang.)         AngularGrid ... 1 (Lebedev-50)
Angular grid pruning method      GridPruning ... 4 (adaptive)
Weight generation scheme         WeightScheme... Becke
Basis function cutoff            BFCut       ... 1.0000e-11
Integration weight cutoff        WCut        ... 1.0000e-14
Angular grids for H and He will be reduced by one unit
Partially contracted basis set               ... off
Rotationally invariant grid construction     ... off

Total number of grid points                  ...    26030
Total number of batches                      ...      422
Average number of points per batch           ...       61
Average number of grid points per atom       ...      789

 --------------------------------------------------------------------------------------------
   Iter.        energy            ||Error||_2        Shift      TRadius  Mac/Mic        Rej.
 --------------------------------------------------------------------------------------------
    0       -972.545683940590     1.231069e-03                     0.400 (TRAH MAcro)   No
    0     dE    -6.495950e-08     1.457932e-03    -1.2992e-07      0.000 (TRAH MIcro)
    0     dE    -1.150609e-07     1.032785e-04    -2.3012e-07      0.000 (TRAH MIcro)
    1       -972.545684039419     1.040463e-04                           (NR   MAcro)
    1     dE    -6.391227e-10     3.012976e-05                           (NR   MIcro)
    1     dE    -6.840529e-10     1.105197e-05                           (NR   MIcro)
    1     dE    -6.918839e-10     3.061225e-06                           (NR   MIcro)
    1     dE    -6.925321e-10     8.403116e-07                           (NR   MIcro)
    2       -972.545684039243     9.855958e-07                           (NR   MAcro)

               *****************************************************
               *                     SUCCESS                       *
               *           SCF CONVERGED AFTER  30 CYCLES          *
               *****************************************************

Old exchange energy                            =    -28.049597263 Eh
New exchange energy                            =    -28.049515406 Eh
Exchange energy change after final integration =      0.000081857 Eh
Total energy after final integration           =   -972.545602182 Eh
Final COS-X integration done in                =   175.521 sec

SMD CDS free energy correction energy :                -2.60877     Kcal/mol
Total Energy after SMD CDS correction =              -972.549759519 Eh

----------------
TOTAL SCF ENERGY
----------------

Total Energy       :         -972.54975952 Eh          -26464.42438 eV

Components:
Nuclear Repulsion  :         1611.42483313 Eh           43849.09895 eV
Electronic Energy  :        -2583.97459265 Eh          -70313.52334 eV
One Electron Energy:        -4521.64431505 Eh         -123040.19706 eV
Two Electron Energy:         1937.66972241 Eh           52726.67372 eV
Max COSX asymmetry :            0.00005529 Eh               0.00150 eV
CPCM Dielectric    :           -0.02385915 Eh              -0.64924 eV
SMD CDS (Gcds)     :           -0.00415734 Eh              -0.11313 eV

Virial components:
Potential Energy   :        -1940.25565219 Eh          -52797.04045 eV
Kinetic Energy     :          967.70589267 Eh           26332.61606 eV
Virial Ratio       :            2.00500552


DFT components:
N(Alpha)           :       75.000084228333 electrons
N(Beta)            :       75.000084228333 electrons
N(Total)           :      150.000168456667 electrons
E(X)               :     -100.074446228710 Eh       
E(C)               :       -5.812250197668 Eh       
E(XC)              :     -105.886696426378 Eh       
DFET-embed. en.    :        0.000000000000 Eh       
CPCM Solvation Model Properties:
Surface-charge          :           -0.04879657
Charge-correction       :            0.00058532 Eh               0.01593 eV
Free-energy (cav+disp)  :           -0.00415734 Eh              -0.11313 eV

---------------
SCF CONVERGENCE
---------------

  Last Energy change         ...    1.7610e-10  Tolerance :   1.0000e-08
  Last Orbital Gradient      ...    9.8560e-07  Tolerance :   1.0000e-05
  Last Orbital Rotation      ...    1.6896e-05

             **** THE GBW FILE WAS UPDATED (x3lyp-train-19.gbw) ****
             **** DENSITY x3lyp-train-19.scfp WAS UPDATED ****
             **** ENERGY FILE WAS UPDATED (x3lyp-train-19.en.tmp) ****
             **** THE GBW FILE WAS UPDATED (x3lyp-train-19.gbw) ****
             **** DENSITY x3lyp-train-19.scfp WAS UPDATED ****
----------------
ORBITAL ENERGIES
----------------

  NO   OCC          E(Eh)            E(eV) 
   0   2.0000     -19.232080      -523.3315 
   1   2.0000     -19.156302      -521.2695 
   2   2.0000     -19.146829      -521.0117 
   3   2.0000     -14.395298      -391.7160 
   4   2.0000     -10.336383      -281.2673 
   5   2.0000     -10.315971      -280.7118 
   6   2.0000     -10.293986      -280.1136 
   7   2.0000     -10.279499      -279.7194 
   8   2.0000     -10.224662      -278.2272 
   9   2.0000     -10.223129      -278.1855 
  10   2.0000     -10.210290      -277.8361 
  11   2.0000     -10.209314      -277.8096 
  12   2.0000     -10.208600      -277.7901 
  13   2.0000     -10.206753      -277.7399 
  14   2.0000     -10.205059      -277.6938 
  15   2.0000     -10.204677      -277.6834 
  16   2.0000     -10.204428      -277.6766 
  17   2.0000     -10.204206      -277.6706 
  18   2.0000     -10.202110      -277.6135 
  19   2.0000     -10.201437      -277.5952 
  20   2.0000     -10.201034      -277.5843 
  21   2.0000     -10.200924      -277.5813 
  22   2.0000      -1.142827       -31.0979 
  23   2.0000      -1.070260       -29.1232 
  24   2.0000      -1.054496       -28.6943 
  25   2.0000      -0.988931       -26.9102 
  26   2.0000      -0.881067       -23.9750 
  27   2.0000      -0.878994       -23.9186 
  28   2.0000      -0.835330       -22.7305 
  29   2.0000      -0.801993       -21.8233 
  30   2.0000      -0.790782       -21.5183 
  31   2.0000      -0.763769       -20.7832 
  32   2.0000      -0.762437       -20.7470 
  33   2.0000      -0.729521       -19.8513 
  34   2.0000      -0.701731       -19.0951 
  35   2.0000      -0.682207       -18.5638 
  36   2.0000      -0.640914       -17.4402 
  37   2.0000      -0.623712       -16.9721 
  38   2.0000      -0.618620       -16.8335 
  39   2.0000      -0.613157       -16.6849 
  40   2.0000      -0.590563       -16.0700 
  41   2.0000      -0.551298       -15.0016 
  42   2.0000      -0.545288       -14.8380 
  43   2.0000      -0.516313       -14.0496 
  44   2.0000      -0.514018       -13.9872 
  45   2.0000      -0.502027       -13.6609 
  46   2.0000      -0.499297       -13.5866 
  47   2.0000      -0.485152       -13.2016 
  48   2.0000      -0.467707       -12.7269 
  49   2.0000      -0.466711       -12.6998 
  50   2.0000      -0.459928       -12.5153 
  51   2.0000      -0.456305       -12.4167 
  52   2.0000      -0.453436       -12.3386 
  53   2.0000      -0.442940       -12.0530 
  54   2.0000      -0.437097       -11.8940 
  55   2.0000      -0.433137       -11.7863 
  56   2.0000      -0.430997       -11.7280 
  57   2.0000      -0.405412       -11.0318 
  58   2.0000      -0.405358       -11.0303 
  59   2.0000      -0.398273       -10.8376 
  60   2.0000      -0.394128       -10.7248 
  61   2.0000      -0.369875       -10.0648 
  62   2.0000      -0.365136        -9.9359 
  63   2.0000      -0.363119        -9.8810 
  64   2.0000      -0.356254        -9.6942 
  65   2.0000      -0.351865        -9.5747 
  66   2.0000      -0.350342        -9.5333 
  67   2.0000      -0.302441        -8.2298 
  68   2.0000      -0.302319        -8.2265 
  69   2.0000      -0.280528        -7.6336 
  70   2.0000      -0.276743        -7.5306 
  71   2.0000      -0.274160        -7.4603 
  72   2.0000      -0.268569        -7.3081 
  73   2.0000      -0.267616        -7.2822 
  74   2.0000      -0.208396        -5.6708 
[...]
Orbital Orthonormalization  ....       0.798 sec  (  0.1%)
DIIS solution               ....       0.209 sec  (  0.0%)
SOSCF solution              ....       1.597 sec  (  0.3%)
Grid generation             ....       8.052 sec  (  1.3%)

Maximum memory used throughout the entire SCF-calculation: 336.6 MB


           ************************************************************
           *        Program running with 4 parallel MPI-processes     *
           *              working on a common directory               *
           ************************************************************
------------------------------------------------------------------------------
                        ORCA TD-DFT/TDA CALCULATION
------------------------------------------------------------------------------

Input orbitals are from        ... x3lyp-train-19_job2.gbw
CI-vector output               ... x3lyp-train-19_job2.cis
Tamm-Dancoff approximation     ... operative
CIS-Integral strategy          ... AO-integrals
Integral handling              ... AO integral Direct
Max. core memory used          ... 4000 MB
Reference state                ... RHF
Generation of triplets         ... off
Follow IRoot                   ... off
Number of operators            ... 1
Orbital ranges used for CIS calculation:
 Operator 0:  Orbitals  22... 74  to  75...1165
XAS localization array:
 Operator 0:  Orbitals  -1... -1

-------------------
XC-INTEGRATION GRID
-------------------

General Integration Accuracy     IntAcc      ... 3.467
Radial Grid Type                 RadialGrid  ... OptM3 with GC (2021)
Angular Grid (max. ang.)         AngularGrid ... 1 (Lebedev-50)
Angular grid pruning method      GridPruning ... 4 (adaptive)
Weight generation scheme         WeightScheme... Becke
Basis function cutoff            BFCut       ... 1.0000e-11
Integration weight cutoff        WCut        ... 1.0000e-14
Angular grids for H and He will be reduced by one unit
Partially contracted basis set               ... off
Rotationally invariant grid construction     ... off

Total number of grid points                  ...    26012
Total number of batches                      ...      421
Average number of points per batch           ...       61
Average number of grid points per atom       ...      788

---------------------
COSX-INTEGRATION GRID
---------------------

General Integration Accuracy     IntAcc      ... 3.067
Radial Grid Type                 RadialGrid  ... OptM3 with GC (2021)
Angular Grid (max. ang.)         AngularGrid ... 1 (Lebedev-50)
Angular grid pruning method      GridPruning ... 4 (adaptive)
Weight generation scheme         WeightScheme... Becke
Basis function cutoff            BFCut       ... 1.0000e-11
Integration weight cutoff        WCut        ... 1.0000e-14
Angular grids for H and He will be reduced by one unit
Partially contracted basis set               ... on
Rotationally invariant grid construction     ... off

Total number of grid points                  ...    11716
Total number of batches                      ...      199
Average number of points per batch           ...       58
Average number of grid points per atom       ...      355

---------------
TD-DFT XC SETUP
---------------

DFT calculation                         ... on
Name of the grid file                   ... x3lyp-train-19_job2.grid_cis.tmp
Exchange functional (TD-DFT)            ... X
Correlation functional (TD-DFT)         ... LYP
 LDA part of GGA corr.  LDAOpt (TD-DFT) ... VWN-5
Hybrid DFT                              ... on
   Exchange mixing (TD-DFT)             ...  0.218
   GGA exch. scaling (TD-DFT)           ...  0.709
   GGA corr. scaling (TD-DFT)           ...  0.871

Building densities             ... done
Calculating rho(r) on the grid ... done
Building xc-kernel on the grid ... done
                    *** TD-DFT CALCULATION INITIALIZED ***

---------------------------------
    LR-CPCM (non-equilibrium)
---------------------------------

Setting up LR-CPCM             ... done

------------------------
DAVIDSON-DIAGONALIZATION
------------------------

Dimension of the eigenvalue problem            ...  57823
Number of roots to be determined               ...     10
Maximum size of the expansion space            ...     70
Maximum number of iterations                   ...    100
Convergence tolerance for the residual         ...    1.000e-06
Convergence tolerance for the energies         ...    1.000e-06
Orthogonality tolerance                        ...    1.000e-14
Level Shift                                    ...    0.000e+00
Constructing the preconditioner                ... o.k.
Building the initial guess                     ... o.k.
Number of trial vectors determined             ...     70


                       ****Iteration    0****

   Memory handling for direct AO based CIS:
   Memory per vector needed      ...    62 MB
   Memory needed                 ...  1867 MB
   Memory available              ...  4000 MB
   Number of vectors per batch   ...    64
   Number of batches             ...     1
   Time for densities:            0.789
   Time for RI-J (Direct):       22.750
   Time for K (COSX):           129.699
   Time for XC-Integration:      52.292
   Time for LR-CPCM terms:       23.963
   Time for Sigma-Completion:     0.572
   Size of expansion space: 30
   Lowest Energy          :     0.122856697340
   Maximum Energy change  :     0.176118003908 (vector 9)
   Maximum residual norm  :     0.016481562238

                       ****Iteration    1****
   Time for densities:            0.259
   Time for RI-J (Direct):       13.154
   Time for K (COSX):            45.521
   Time for XC-Integration:      17.792
   Time for LR-CPCM terms:       10.961
   Time for Sigma-Completion:     0.182
   Size of expansion space: 40
   Lowest Energy          :     0.104986021392
   Maximum Energy change  :     0.017870675948 (vector 0)
   Maximum residual norm  :     0.001605474278

                       ****Iteration    2****
   Time for densities:            0.267
   Time for RI-J (Direct):       13.163
   Time for K (COSX):            45.685
   Time for XC-Integration:      18.221
   Time for LR-CPCM terms:       10.960
   Time for Sigma-Completion:     0.199
   Size of expansion space: 50
   Lowest Energy          :     0.104566393183
   Maximum Energy change  :     0.004941651725 (vector 7)
   Maximum residual norm  :     0.000681377278

                       ****Iteration    3****
   Time for densities:            0.261
   Time for RI-J (Direct):       13.173
   Time for K (COSX):            45.669
   Time for XC-Integration:      18.265
   Time for LR-CPCM terms:       10.921
   Time for Sigma-Completion:     0.195
   Size of expansion space: 60
   Lowest Energy          :     0.104529598414
   Maximum Energy change  :     0.000883558772 (vector 6)
   Maximum residual norm  :     0.000065811472

                       ****Iteration    4****
   Time for densities:            0.260
   Time for RI-J (Direct):       13.250
   Time for K (COSX):            45.516
   Time for XC-Integration:      18.471
   Time for LR-CPCM terms:       10.883
   Time for Sigma-Completion:     0.180
   Size of expansion space: 70
   Lowest Energy          :     0.104528012242
   Maximum Energy change  :     0.000068079591 (vector 6)
   Maximum residual norm  :     0.000002237461
   Rebuilding the expansion space

                       ****Iteration    5****
   Time for densities:            0.502
   Time for RI-J (Direct):       17.636
   Time for K (COSX):            87.090
   Time for XC-Integration:      36.275
   Time for LR-CPCM terms:       17.538
   Time for Sigma-Completion:     0.370
   Size of expansion space: 20
   Lowest Energy          :     0.104527608914
   Maximum Energy change  :     0.000002395664 (vector 6)
   Maximum residual norm  :     0.000000209391

      *** CONVERGENCE OF RESIDUAL NORM REACHED ***

Storing the converged CI vectors               ... x3lyp-train-19_job2.cis1

                 *** DAVIDSON DONE ***

Total time for solving the CIS problem:   745.640sec

------------------------------------
TD-DFT/TDA EXCITED STATES (SINGLETS)
------------------------------------

the weight of the individual excitations are printed if larger than 1.0e-02

STATE  1:  E=   0.104528 au      2.844 eV    22941.2 cm**-1 <S**2> =   0.000000
    74a ->  75a  :     0.953399 (c= -0.97642176)

STATE  2:  E=   0.139160 au      3.787 eV    30542.2 cm**-1 <S**2> =   0.000000
    69a ->  75a  :     0.807812 (c= -0.89878353)
    71a ->  75a  :     0.081241 (c=  0.28502892)
    73a ->  75a  :     0.015352 (c= -0.12390165)
    74a ->  76a  :     0.053255 (c=  0.23077067)

STATE  3:  E=   0.140002 au      3.810 eV    30726.9 cm**-1 <S**2> =   0.000000
    68a ->  75a  :     0.041105 (c=  0.20274487)
    69a ->  75a  :     0.114303 (c= -0.33808661)
    70a ->  75a  :     0.100066 (c=  0.31633278)
    71a ->  75a  :     0.131734 (c= -0.36295114)
    72a ->  75a  :     0.023978 (c= -0.15484803)
    73a ->  75a  :     0.144746 (c=  0.38045436)
    74a ->  76a  :     0.421533 (c= -0.64925594)

STATE  4:  E=   0.142904 au      3.889 eV    31363.8 cm**-1 <S**2> =   0.000000
    71a ->  75a  :     0.041576 (c=  0.20390232)
    72a ->  75a  :     0.019176 (c= -0.13847733)
    73a ->  75a  :     0.702950 (c=  0.83842140)
    74a ->  76a  :     0.171774 (c=  0.41445612)
    74a ->  77a  :     0.025343 (c= -0.15919528)
    74a ->  78a  :     0.014341 (c=  0.11975222)

STATE  5:  E=   0.143947 au      3.917 eV    31592.7 cm**-1 <S**2> =   0.000000
    72a ->  75a  :     0.866543 (c=  0.93088293)
    73a ->  75a  :     0.043879 (c=  0.20947391)
    74a ->  76a  :     0.010028 (c= -0.10013849)
    74a ->  77a  :     0.012607 (c=  0.11228253)
    74a ->  78a  :     0.037604 (c=  0.19391725)

STATE  6:  E=   0.150266 au      4.089 eV    32979.6 cm**-1 <S**2> =   0.000000
    68a ->  75a  :     0.084661 (c=  0.29096647)
    69a ->  75a  :     0.016783 (c=  0.12954966)
    70a ->  75a  :     0.695362 (c=  0.83388374)
    73a ->  75a  :     0.014007 (c= -0.11835123)
    74a ->  76a  :     0.123997 (c=  0.35213275)
    74a ->  79a  :     0.019763 (c= -0.14058207)

STATE  7:  E=   0.160181 au      4.359 eV    35155.8 cm**-1 <S**2> =   0.000000
    67a ->  75a  :     0.045657 (c= -0.21367468)
    68a ->  75a  :     0.016886 (c=  0.12994607)
    69a ->  75a  :     0.022490 (c= -0.14996781)
    70a ->  75a  :     0.059715 (c= -0.24436663)
    71a ->  75a  :     0.606039 (c= -0.77848486)
    74a ->  76a  :     0.178941 (c=  0.42301398)
    74a ->  79a  :     0.011925 (c=  0.10919984)
    74a ->  83a  :     0.010278 (c= -0.10138176)

STATE  8:  E=   0.161907 au      4.406 eV    35534.5 cm**-1 <S**2> =   0.000000
    67a ->  75a  :     0.842505 (c=  0.91788084)
    67a ->  79a  :     0.010046 (c=  0.10022886)
    68a ->  75a  :     0.056095 (c=  0.23684468)
    69a ->  76a  :     0.026035 (c= -0.16135371)
    71a ->  75a  :     0.017156 (c= -0.13098189)

STATE  9:  E=   0.168504 au      4.585 eV    36982.3 cm**-1 <S**2> =   0.000000
    68a ->  75a  :     0.253918 (c=  0.50390297)
    70a ->  75a  :     0.032204 (c= -0.17945374)
    71a ->  75a  :     0.051680 (c=  0.22733290)
    72a ->  76a  :     0.016128 (c=  0.12699468)
    73a ->  75a  :     0.010603 (c=  0.10297218)
    74a ->  77a  :     0.553932 (c=  0.74426601)
    74a ->  79a  :     0.028230 (c=  0.16801879)

STATE 10:  E=   0.169746 au      4.619 eV    37255.0 cm**-1 <S**2> =   0.000000
    67a ->  75a  :     0.036042 (c=  0.18984778)
    68a ->  75a  :     0.433621 (c= -0.65849927)
    70a ->  75a  :     0.021720 (c=  0.14737696)
    71a ->  75a  :     0.026651 (c= -0.16325280)
    72a ->  75a  :     0.022497 (c= -0.14999016)
    73a ->  75a  :     0.013326 (c=  0.11543881)
    74a ->  77a  :     0.334447 (c=  0.57831426)
    74a ->  78a  :     0.019163 (c=  0.13843081)
    74a ->  79a  :     0.053198 (c= -0.23064632)


-----------------------------
TD-DFT/TDA-EXCITATION SPECTRA
-----------------------------

Center of mass = ( -0.1008, -0.1023,  0.0929)
Calculating the Dipole integrals                  ... done
Transforming integrals                            ... done
Calculating the Linear Momentum integrals         ... done
Transforming integrals                            ... done
Calculating angular momentum integrals            ... done
Transforming integrals                            ... done

-----------------------------------------------------------------------------
         ABSORPTION SPECTRUM VIA TRANSITION ELECTRIC DIPOLE MOMENTS
-----------------------------------------------------------------------------
State   Energy    Wavelength  fosc         T2        TX        TY        TZ  
        (cm-1)      (nm)                 (au**2)    (au)      (au)      (au) 
-----------------------------------------------------------------------------
   1   22941.2    435.9   1.077821878  15.46704   3.70883   1.03685  -0.79785
   2   30542.2    327.4   0.003682366   0.03969  -0.19352  -0.01607   0.04456
   3   30726.9    325.4   0.033948280   0.36373   0.59912  -0.00296   0.06912
   4   31363.8    318.8   0.011790444   0.12376   0.27491  -0.12812   0.17824
   5   31592.7    316.5   0.039419444   0.41077  -0.45466  -0.38352   0.23868
   6   32979.6    303.2   0.270879718   2.70400   1.57738  -0.33206   0.32499
   7   35155.8    284.4   0.025602515   0.23975  -0.46359   0.09286  -0.12732
   8   35534.5    281.4   0.008717987   0.08077  -0.27724   0.05478  -0.03006
   9   36982.3    270.4   0.010137772   0.09025  -0.19320   0.19783  -0.11740
  10   37255.0    268.4   0.052648819   0.46524   0.67490   0.09803   0.01208

-----------------------------------------------------------------------------
         ABSORPTION SPECTRUM VIA TRANSITION VELOCITY DIPOLE MOMENTS
-----------------------------------------------------------------------------
State   Energy    Wavelength   fosc        P2         PX        PY        PZ  
        (cm-1)      (nm)                 (au**2)     (au)      (au)      (au) 
-----------------------------------------------------------------------------
   1   22941.2    435.9   0.338223205   0.05303  -0.21855   0.04895  -0.05358
   2   30542.2    327.4   0.002570963   0.00054   0.01590   0.01091   0.01284
   3   30726.9    325.4   0.012171946   0.00256  -0.04990  -0.00113   0.00807
   4   31363.8    318.8   0.002847648   0.00061  -0.02225  -0.00785   0.00732
   5   31592.7    316.5   0.009243839   0.00200   0.03877  -0.01738   0.01382
   6   32979.6    303.2   0.103223073   0.02327  -0.15038  -0.02240   0.01223
   7   35155.8    284.4   0.010182455   0.00245   0.04940  -0.00138   0.00204
   8   35534.5    281.4   0.004406787   0.00107   0.03114   0.00783   0.00624
   9   36982.3    270.4   0.003941101   0.00100   0.02793   0.01249  -0.00773
  10   37255.0    268.4   0.027652542   0.00704  -0.08274  -0.00988   0.00989

-------------------------------------------------------------------
                             CD SPECTRUM
-------------------------------------------------------------------
State  Energy     Wavelength     R         MX        MY        MZ   
       (cm-1)       (nm)     (1e40*cgs)   (au)      (au)      (au)  
-------------------------------------------------------------------
   1   22941.2    435.9    -14.71395  -0.01145   0.02712   0.02113
   2   30542.2    327.4      5.25150  -0.07424   0.08491  -0.04179
   3   30726.9    325.4    -12.03062  -0.02708  -0.07930  -0.13788
   4   31363.8    318.8     -0.64857  -0.00172  -0.02510  -0.02312
   5   31592.7    316.5     -2.86748   0.01145   0.01927   0.02728
   6   32979.6    303.2     20.48925   0.02557  -0.26859  -0.26479
   7   35155.8    284.4      5.62068  -0.02084   0.09950   0.05482
   8   35534.5    281.4    -23.94942   0.13759  -0.16419   0.12174
   9   36982.3    270.4     -2.10944  -0.00352  -0.02840  -0.00396
  10   37255.0    268.4     15.57308   0.00085   0.28491   0.37484

-------------------------------------------------------------------
         CD SPECTRUM VIA TRANSITION VELOCITY DIPOLE MOMENTS        
-------------------------------------------------------------------
State  Energy     Wavelength     R         MX        MY        MZ   
       (cm-1)       (nm)     (1e40*cgs)   (au)      (au)      (au)  
-------------------------------------------------------------------
   1   22941.2    435.9     12.17099  -0.01145   0.02712   0.02113
   2   30542.2    327.4     -2.67777  -0.07424   0.08491  -0.04179
   3   30726.9    325.4      1.10833  -0.02708  -0.07930  -0.13788
   4   31363.8    318.8      0.21791  -0.00172  -0.02510  -0.02312
   5   31592.7    316.5      1.59222   0.01145   0.01927   0.02728
   6   32979.6    303.2     -3.34776   0.02557  -0.26859  -0.26479
   7   35155.8    284.4     -3.10547  -0.02084   0.09950   0.05482
   8   35534.5    281.4     10.94381   0.13759  -0.16419   0.12174
   9   36982.3    270.4     -1.18210  -0.00352  -0.02840  -0.00396
  10   37255.0    268.4      2.28429   0.00085   0.28491   0.37484

Total run time:      752.622 sec

           *** ORCA-CIS/TD-DFT FINISHED WITHOUT ERROR ***

Maximum memory used throughout the entire CIS-calculation: 1718.4 MB

-----------------------
CIS/TD-DFT TOTAL ENERGY
-----------------------

    E(SCF)  =   -972.551690179 Eh
    DE(CIS) =      0.104527609 Eh (Root  1)
    ----------------------------- ---------
    E(tot)  =   -972.447162570 Eh


-------------------------   --------------------
FINAL SINGLE POINT ENERGY      -972.447162570177
-------------------------   --------------------


                            ***************************************
                            *     ORCA property calculations      *
                            ***************************************

                                    ---------------------
                                    Active property flags
                                    ---------------------
   (+) Dipole Moment


------------------------------------------------------------------------------
                       ORCA ELECTRIC PROPERTIES CALCULATION
------------------------------------------------------------------------------

Dipole Moment Calculation                       ... on
Quadrupole Moment Calculation                   ... off
Polarizability Calculation                      ... off
GBWName                                         ... x3lyp-train-19_job2.gbw
Electron density                                ... x3lyp-train-19_job2.scfp
The origin for moment calculation is the CENTER OF MASS  = (-0.100772, -0.102286  0.092945)

-------------
DIPOLE MOMENT
-------------
                                X             Y             Z
Electronic contribution:     -0.47222      -0.68861       0.48991
Nuclear contribution   :      1.57825       1.62054      -1.29213
                        -----------------------------------------
Total Dipole Moment    :      1.10602       0.93193      -0.80222
                        -----------------------------------------
Magnitude (a.u.)       :      1.65389
Magnitude (Debye)      :      4.20385



--------------------
Rotational spectrum 
--------------------
 
Rotational constants in cm-1:     0.027279     0.004868     0.004138 
Rotational constants in MHz :   817.802100   145.927340   124.057137 

 Dipole components along the rotational axes: 
x,y,z [a.u.] :     1.169441     1.168922    -0.037076 
x,y,z [Debye]:     2.972482     2.971164    -0.094239 

 

Timings for individual modules:

Sum of individual times         ...     1378.157 sec (=  22.969 min)
GTO integral calculation        ...        5.505 sec (=   0.092 min)   0.4 %
SCF iterations                  ...      619.345 sec (=  10.322 min)  44.9 %
CIS module                      ...      753.307 sec (=  12.555 min)  54.7 %



                             ****ORCA TERMINATED NORMALLY****
TOTAL RUN TIME: 0 days 6 hours 32 minutes 27 seconds 112 msec
