
                                 *****************
                                 * O   R   C   A *
                                 *****************

                                            #,                                       
                                            ###                                      
                                            ####                                     
                                            #####                                    
                                            ######                                   
                                           ########,                                 
                                     ,,################,,,,,                         
                               ,,#################################,,                 
                          ,,##########################################,,             
                       ,#########################################, ''#####,          
                    ,#############################################,,   '####,        
                  ,##################################################,,,,####,       
                ,###########''''           ''''###############################       
              ,#####''   ,,,,##########,,,,          '''####'''          '####       
            ,##' ,,,,###########################,,,                        '##       
           ' ,,###''''                  '''############,,,                           
         ,,##''                                '''############,,,,        ,,,,,,###''
      ,#''                                            '''#######################'''  
     '                                                          ''''####''''         
             ,#######,   #######,   ,#######,      ##                                
            ,#'     '#,  ##    ##  ,#'     '#,    #''#        ######   ,####,        
            ##       ##  ##   ,#'  ##            #'  '#       #        #'  '#        
            ##       ##  #######   ##           ,######,      #####,   #    #        
            '#,     ,#'  ##    ##  '#,     ,#' ,#      #,         ##   #,  ,#        
             '#######'   ##     ##  '#######'  #'      '#     #####' # '####'        



                  #######################################################
                  #                        -***-                        #
                  #          Department of theory and spectroscopy      #
                  #    Directorship and core code : Frank Neese         #
                  #        Max Planck Institute fuer Kohlenforschung    #
                  #                Kaiser Wilhelm Platz 1               #
                  #                 D-45470 Muelheim/Ruhr               #
                  #                      Germany                        #
                  #                                                     #
                  #                  All rights reserved                #
                  #                        -***-                        #
                  #######################################################


                         Program Version 5.0.2 -  RELEASE  -


 With contributions from (in alphabetic order):
   Daniel Aravena         : Magnetic Suceptibility
   Michael Atanasov       : Ab Initio Ligand Field Theory (pilot matlab implementation)
   Alexander A. Auer      : GIAO ZORA, VPT2 properties, NMR spectrum
   Ute Becker             : Parallelization
   Giovanni Bistoni       : ED, misc. LED, open-shell LED, HFLD
   Martin Brehm           : Molecular dynamics
   Dmytro Bykov           : SCF Hessian
   Vijay G. Chilkuri      : MRCI spin determinant printing, contributions to CSF-ICE
   Dipayan Datta          : RHF DLPNO-CCSD density
   Achintya Kumar Dutta   : EOM-CC, STEOM-CC
   Dmitry Ganyushin       : Spin-Orbit,Spin-Spin,Magnetic field MRCI
   Miquel Garcia          : C-PCM and meta-GGA Hessian, CC/C-PCM, Gaussian charge scheme
   Yang Guo               : DLPNO-NEVPT2, F12-NEVPT2, CIM, IAO-localization
   Andreas Hansen         : Spin unrestricted coupled pair/coupled cluster methods
   Benjamin Helmich-Paris : MC-RPA, TRAH-SCF, COSX integrals
   Lee Huntington         : MR-EOM, pCC
   Robert Izsak           : Overlap fitted RIJCOSX, COSX-SCS-MP3, EOM
   Marcus Kettner         : VPT2
   Christian Kollmar      : KDIIS, OOCD, Brueckner-CCSD(T), CCSD density, CASPT2, CASPT2-K
   Simone Kossmann        : Meta GGA functionals, TD-DFT gradient, OOMP2, MP2 Hessian
   Martin Krupicka        : Initial AUTO-CI
   Lucas Lang             : DCDCAS
   Marvin Lechner         : AUTO-CI (C++ implementation), FIC-MRCC
   Dagmar Lenk            : GEPOL surface, SMD
   Dimitrios Liakos       : Extrapolation schemes; Compound Job, initial MDCI parallelization
   Dimitrios Manganas     : Further ROCIS development; embedding schemes
   Dimitrios Pantazis     : SARC Basis sets
   Anastasios Papadopoulos: AUTO-CI, single reference methods and gradients
   Taras Petrenko         : DFT Hessian,TD-DFT gradient, ASA, ECA, R-Raman, ABS, FL, XAS/XES, NRVS
   Peter Pinski           : DLPNO-MP2, DLPNO-MP2 Gradient
   Christoph Reimann      : Effective Core Potentials
   Marius Retegan         : Local ZFS, SOC
   Christoph Riplinger    : Optimizer, TS searches, QM/MM, DLPNO-CCSD(T), (RO)-DLPNO pert. Triples
   Tobias Risthaus        : Range-separated hybrids, TD-DFT gradient, RPA, STAB
   Michael Roemelt        : Original ROCIS implementation
   Masaaki Saitow         : Open-shell DLPNO-CCSD energy and density
   Barbara Sandhoefer     : DKH picture change effects
   Avijit Sen             : IP-ROCIS
   Kantharuban Sivalingam : CASSCF convergence, NEVPT2, FIC-MRCI
   Bernardo de Souza      : ESD, SOC TD-DFT
   Georgi Stoychev        : AutoAux, RI-MP2 NMR, DLPNO-MP2 response
   Willem Van den Heuvel  : Paramagnetic NMR
   Boris Wezisla          : Elementary symmetry handling
   Frank Wennmohs         : Technical directorship


 We gratefully acknowledge several colleagues who have allowed us to
 interface, adapt or use parts of their codes:
   Stefan Grimme, W. Hujo, H. Kruse, P. Pracht,  : VdW corrections, initial TS optimization,
                  C. Bannwarth, S. Ehlert          DFT functionals, gCP, sTDA/sTD-DF
   Ed Valeev, F. Pavosevic, A. Kumar             : LibInt (2-el integral package), F12 methods
   Garnet Chan, S. Sharma, J. Yang, R. Olivares  : DMRG
   Ulf Ekstrom                                   : XCFun DFT Library
   Mihaly Kallay                                 : mrcc  (arbitrary order and MRCC methods)
   Jiri Pittner, Ondrej Demel                    : Mk-CCSD
   Frank Weinhold                                : gennbo (NPA and NBO analysis)
   Christopher J. Cramer and Donald G. Truhlar   : smd solvation model
   Lars Goerigk                                  : TD-DFT with DH, B97 family of functionals
   V. Asgeirsson, H. Jonsson                     : NEB implementation
   FAccTs GmbH                                   : IRC, NEB, NEB-TS, DLPNO-Multilevel, CI-OPT
                                                   MM, QMMM, 2- and 3-layer-ONIOM, Crystal-QMMM,
                                                   LR-CPCM, SF, NACMEs, symmetry and pop. for TD-DFT,
                                                   nearIR, NL-DFT gradient (VV10), updates on ESD,
                                                   ML-optimized integration grids
   S Lehtola, MJT Oliveira, MAL Marques          : LibXC Library
   Liviu Ungur et al                             : ANISO software


 Your calculation uses the libint2 library for the computation of 2-el integrals
 For citations please refer to: http://libint.valeyev.net

 Your ORCA version has been built with support for libXC version: 5.1.0
 For citations please refer to: https://tddft.org/programs/libxc/

 This ORCA versions uses:
   CBLAS   interface :  Fast vector & matrix operations
   LAPACKE interface :  Fast linear algebra routines
   SCALAPACK package :  Parallel linear algebra routines
   Shared memory     :  Shared parallel matrices
   BLAS/LAPACK       :  OpenBLAS 0.3.15  USE64BITINT DYNAMIC_ARCH NO_AFFINITY SkylakeX SINGLE_THREADED
        Core in use  :  SkylakeX
   Copyright (c) 2011-2014, The OpenBLAS Project


Your calculation utilizes the SMD solvation module
Please cite in your paper:
A.V. Marenich, C.J. Cramer, D.G. Truhlar J. Phys. Chem. B, 113, (2009), 6378 

================================================================================

----- Orbital basis set information -----
Your calculation utilizes the basis: aug-cc-pVTZ 
    H, B-Ne : Obtained from the ccRepo (grant-hill.group.shef.ac.uk/ccrepo) Feb. 2017
              R. A. Kendall, T. H. Dunning, Jr., R. J. Harrison, J. Chem. Phys. 96, 6796 (1992)
         He : Obtained from the ccRepo (grant-hill.group.shef.ac.uk/ccrepo) Feb. 2017
              D. E. Woon, T. H. Dunning, Jr., J. Chem. Phys. 100, 2975 (1994)
  Li-Be, Na : Obtained from the ccRepo (grant-hill.group.shef.ac.uk/ccrepo) Feb. 2017
              B. P. Prascher, D. E. Woon, K. A. Peterson, T. H. Dunning, Jr., A. K. Wilson, Theor. Chem. Acc. 128, 69 (2011)
         Mg : Obtained from the Peterson Research Group Website (tyr0.chem.wsu.edu/~kipeters) Feb. 2017
              B. P. Prascher, D. E. Woon, K. A. Peterson, T. H. Dunning, Jr., A. K. Wilson, Theor. Chem. Acc. 128, 69 (2011)
      Al-Ar : Obtained from the ccRepo (grant-hill.group.shef.ac.uk/ccrepo) Feb. 2017
              D. E. Woon, T. H. Dunning, Jr., J. Chem. Phys. 98, 1358 (1993)
      Sc-Zn : Obtained from the ccRepo (grant-hill.group.shef.ac.uk/ccrepo) Feb. 2017
              N. B. Balabanov, K. A. Peterson, J. Chem. Phys. 123, 064107 (2005)
              N. B. Balabanov, K. A. Peterson, J. Chem. Phys. 125, 074110 (2006)
      Ga-Kr : Obtained from the ccRepo (grant-hill.group.shef.ac.uk/ccrepo) Feb. 2017
              A. K. Wilson, D. E. Woon, K. A. Peterson, T. H. Dunning, Jr., J. Chem. Phys. 110, 7667 (1999)
     Ag, Au : Obtained from the Peterson Research Group Website (tyr0.chem.wsu.edu/~kipeters) Feb. 2017
              K. A. Peterson, C. Puzzarini, Theor. Chem. Acc. 114, 283 (2005)

The basis set includes element-specific modifications.

Your calculation utilizes the basis: cc-pVTZ 
       H, B-Ne : Obtained from the ccRepo (grant-hill.group.shef.ac.uk/ccrepo) Feb. 2017
                 T. H. Dunning, Jr., J. Chem. Phys. 90, 1007 (1989)
            He : Obtained from the ccRepo (grant-hill.group.shef.ac.uk/ccrepo) Feb. 2017
                 D. E. Woon, T. H. Dunning, Jr., J. Chem. Phys. 100, 2975 (1994)
  Li-Be, Na-Mg : Obtained from the ccRepo (grant-hill.group.shef.ac.uk/ccrepo) Feb. 2017
                 B. P. Prascher, D. E. Woon, K. A. Peterson, T. H. Dunning, Jr., A. K. Wilson, Theor. Chem. Acc. 128, 69 (2011)
         Al-Ar : Obtained from the ccRepo (grant-hill.group.shef.ac.uk/ccrepo) Feb. 2017
                 D. E. Woon, T. H. Dunning, Jr., J. Chem. Phys. 98, 1358 (1993)
            Ca : Obtained from the Peterson Research Group Website (tyr0.chem.wsu.edu/~kipeters) Feb. 2017
                 J. Koput, K. A. Peterson, J. Phys. Chem. 106, 9595 (2002)
         Sc-Zn : Obtained from the ccRepo (grant-hill.group.shef.ac.uk/ccrepo) Feb. 2017
                 N. B. Balabanov, K. A. Peterson, J. Chem. Phys. 123, 064107 (2005)
                 N. B. Balabanov, K. A. Peterson, J. Chem. Phys. 125, 074110 (2006)
         Ga-Kr : Obtained from the ccRepo (grant-hill.group.shef.ac.uk/ccrepo) Feb. 2017
                 A. K. Wilson, D. E. Woon, K. A. Peterson, T. H. Dunning, Jr., J. Chem. Phys. 110, 7667 (1999)
             Y : Obtained from the ccRepo (grant-hill.group.shef.ac.uk/ccrepo) Feb. 2017
                 K. A. Peterson, D. Figgen, M. Dolg, H. Stoll, J. Chem. Phys. 126, 124101 (2007)
        Ag, Au : Obtained from the Peterson Research Group Website (tyr0.chem.wsu.edu/~kipeters) Feb. 2017
                 K. A. Peterson, C. Puzzarini, Theor. Chem. Acc. 114, 283 (2005)

----- AuxJ basis set information -----
Your calculation utilizes the auxiliary basis: aug-cc-pVTZ/JK 
  H, B-F, Al-Cl, Ga-Br : Obtained from the TURBOMOLE 7.0 basis set library

The basis set includes element-specific modifications.

Your calculation utilizes the auxiliary basis: cc-pVTZ/JK 
  H, B-F, Al-Cl, Ga-Br : Obtained from the TURBOMOLE 7.0 basis set library

----- AuxC basis set information -----
Your calculation utilizes the auxiliary basis: aug-cc-pVTZ/C 
  H-He, B-F, Al-Ar, Ga-Kr : Obtained from the EMSL Basis Set Exchange (bse.pnl.gov) Feb. 2017
                            F. Weigend, A. Kohn, C. Hattig, J. Chem. Phys. 116, 3175 (2002)
                   Be, Mg : Obtained from the TURBOMOLE 7.0 basis set library
                            C. Haettig, Phys. Chem. Chem. Phys. 7, 59 (2005)
                       Ne : Obtained from the EMSL Basis Set Exchange (bse.pnl.gov) Feb. 2017
                            C. Haettig, Phys. Chem. Chem. Phys. 7, 59 (2005)
                            F. Weigend, A. Kohn, C. Hattig, J. Chem. Phys. 116, 3175 (2002)
                    Sc-Zn : Obtained from the EMSL Basis Set Exchange (bse.pnl.gov) Feb. 2017
                            J. G. Hill, J. A. Platts, J. Chem. Phys. 128, 044104 (2008)

The basis set includes element-specific modifications.

Your calculation utilizes the auxiliary basis: cc-pVTZ/C 
  Obtained from the EMSL Basis Set Exchange (bse.pnl.gov) Feb. 2017
  H-He, B-F, Al-Ar, Ga-Kr : F. Weigend, A. Kohn, C. Hattig, J. Chem. Phys. 116, 3175 (2002)
             Li-Be, Na-Mg : C. Haettig, Phys. Chem. Chem. Phys. 7, 59 (2005)
                       Ne : C. Haettig, Phys. Chem. Chem. Phys. 7, 59 (2005)
                            F. Weigend, A. Kohn, C. Hattig, J. Chem. Phys. 116, 3175 (2002)
                    Sc-Zn : J. G. Hill, J. A. Platts, J. Chem. Phys. 128, 044104 (2008)

================================================================================
                                        WARNINGS
                       Please study these warnings very carefully!
================================================================================


WARNING: Geometry Optimization
  ===> : Switching off AutoStart
         For restart on a previous wavefunction, please use MOREAD

INFO   : the flag for use of the SHARK integral package has been found!



***************************************
The coordinates will be read from file: 
***************************************


Your calculation utilizes the SMD solvation module
Please cite in your paper:
A.V. Marenich, C.J. Cramer, D.G. Truhlar J. Phys. Chem. B, 113, (2009), 6378 

================================================================================

----- Orbital basis set information -----
Your calculation utilizes the basis: aug-cc-pVTZ 
    H, B-Ne : Obtained from the ccRepo (grant-hill.group.shef.ac.uk/ccrepo) Feb. 2017
              R. A. Kendall, T. H. Dunning, Jr., R. J. Harrison, J. Chem. Phys. 96, 6796 (1992)
         He : Obtained from the ccRepo (grant-hill.group.shef.ac.uk/ccrepo) Feb. 2017
              D. E. Woon, T. H. Dunning, Jr., J. Chem. Phys. 100, 2975 (1994)
  Li-Be, Na : Obtained from the ccRepo (grant-hill.group.shef.ac.uk/ccrepo) Feb. 2017
              B. P. Prascher, D. E. Woon, K. A. Peterson, T. H. Dunning, Jr., A. K. Wilson, Theor. Chem. Acc. 128, 69 (2011)
         Mg : Obtained from the Peterson Research Group Website (tyr0.chem.wsu.edu/~kipeters) Feb. 2017
              B. P. Prascher, D. E. Woon, K. A. Peterson, T. H. Dunning, Jr., A. K. Wilson, Theor. Chem. Acc. 128, 69 (2011)
      Al-Ar : Obtained from the ccRepo (grant-hill.group.shef.ac.uk/ccrepo) Feb. 2017
              D. E. Woon, T. H. Dunning, Jr., J. Chem. Phys. 98, 1358 (1993)
      Sc-Zn : Obtained from the ccRepo (grant-hill.group.shef.ac.uk/ccrepo) Feb. 2017
              N. B. Balabanov, K. A. Peterson, J. Chem. Phys. 123, 064107 (2005)
              N. B. Balabanov, K. A. Peterson, J. Chem. Phys. 125, 074110 (2006)
      Ga-Kr : Obtained from the ccRepo (grant-hill.group.shef.ac.uk/ccrepo) Feb. 2017
              A. K. Wilson, D. E. Woon, K. A. Peterson, T. H. Dunning, Jr., J. Chem. Phys. 110, 7667 (1999)
     Ag, Au : Obtained from the Peterson Research Group Website (tyr0.chem.wsu.edu/~kipeters) Feb. 2017
              K. A. Peterson, C. Puzzarini, Theor. Chem. Acc. 114, 283 (2005)

The basis set includes element-specific modifications.

Your calculation utilizes the basis: cc-pVTZ 
       H, B-Ne : Obtained from the ccRepo (grant-hill.group.shef.ac.uk/ccrepo) Feb. 2017
                 T. H. Dunning, Jr., J. Chem. Phys. 90, 1007 (1989)
            He : Obtained from the ccRepo (grant-hill.group.shef.ac.uk/ccrepo) Feb. 2017
                 D. E. Woon, T. H. Dunning, Jr., J. Chem. Phys. 100, 2975 (1994)
  Li-Be, Na-Mg : Obtained from the ccRepo (grant-hill.group.shef.ac.uk/ccrepo) Feb. 2017
                 B. P. Prascher, D. E. Woon, K. A. Peterson, T. H. Dunning, Jr., A. K. Wilson, Theor. Chem. Acc. 128, 69 (2011)
         Al-Ar : Obtained from the ccRepo (grant-hill.group.shef.ac.uk/ccrepo) Feb. 2017
                 D. E. Woon, T. H. Dunning, Jr., J. Chem. Phys. 98, 1358 (1993)
            Ca : Obtained from the Peterson Research Group Website (tyr0.chem.wsu.edu/~kipeters) Feb. 2017
                 J. Koput, K. A. Peterson, J. Phys. Chem. 106, 9595 (2002)
         Sc-Zn : Obtained from the ccRepo (grant-hill.group.shef.ac.uk/ccrepo) Feb. 2017
                 N. B. Balabanov, K. A. Peterson, J. Chem. Phys. 123, 064107 (2005)
                 N. B. Balabanov, K. A. Peterson, J. Chem. Phys. 125, 074110 (2006)
         Ga-Kr : Obtained from the ccRepo (grant-hill.group.shef.ac.uk/ccrepo) Feb. 2017
                 A. K. Wilson, D. E. Woon, K. A. Peterson, T. H. Dunning, Jr., J. Chem. Phys. 110, 7667 (1999)
             Y : Obtained from the ccRepo (grant-hill.group.shef.ac.uk/ccrepo) Feb. 2017
                 K. A. Peterson, D. Figgen, M. Dolg, H. Stoll, J. Chem. Phys. 126, 124101 (2007)
        Ag, Au : Obtained from the Peterson Research Group Website (tyr0.chem.wsu.edu/~kipeters) Feb. 2017
                 K. A. Peterson, C. Puzzarini, Theor. Chem. Acc. 114, 283 (2005)

----- AuxJ basis set information -----
Your calculation utilizes the auxiliary basis: aug-cc-pVTZ/JK 
  H, B-F, Al-Cl, Ga-Br : Obtained from the TURBOMOLE 7.0 basis set library

The basis set includes element-specific modifications.

Your calculation utilizes the auxiliary basis: cc-pVTZ/JK 
  H, B-F, Al-Cl, Ga-Br : Obtained from the TURBOMOLE 7.0 basis set library

----- AuxC basis set information -----
Your calculation utilizes the auxiliary basis: aug-cc-pVTZ/C 
  H-He, B-F, Al-Ar, Ga-Kr : Obtained from the EMSL Basis Set Exchange (bse.pnl.gov) Feb. 2017
                            F. Weigend, A. Kohn, C. Hattig, J. Chem. Phys. 116, 3175 (2002)
                   Be, Mg : Obtained from the TURBOMOLE 7.0 basis set library
                            C. Haettig, Phys. Chem. Chem. Phys. 7, 59 (2005)
                       Ne : Obtained from the EMSL Basis Set Exchange (bse.pnl.gov) Feb. 2017
                            C. Haettig, Phys. Chem. Chem. Phys. 7, 59 (2005)
                            F. Weigend, A. Kohn, C. Hattig, J. Chem. Phys. 116, 3175 (2002)
                    Sc-Zn : Obtained from the EMSL Basis Set Exchange (bse.pnl.gov) Feb. 2017
                            J. G. Hill, J. A. Platts, J. Chem. Phys. 128, 044104 (2008)

The basis set includes element-specific modifications.

Your calculation utilizes the auxiliary basis: cc-pVTZ/C 
  Obtained from the EMSL Basis Set Exchange (bse.pnl.gov) Feb. 2017
  H-He, B-F, Al-Ar, Ga-Kr : F. Weigend, A. Kohn, C. Hattig, J. Chem. Phys. 116, 3175 (2002)
             Li-Be, Na-Mg : C. Haettig, Phys. Chem. Chem. Phys. 7, 59 (2005)
                       Ne : C. Haettig, Phys. Chem. Chem. Phys. 7, 59 (2005)
                            F. Weigend, A. Kohn, C. Hattig, J. Chem. Phys. 116, 3175 (2002)
                    Sc-Zn : J. G. Hill, J. A. Platts, J. Chem. Phys. 128, 044104 (2008)

================================================================================
                                        WARNINGS
                       Please study these warnings very carefully!
================================================================================

INFO   : Checking CIS options ...

INFO   : the flag for use of the SHARK integral package has been found!

================================================================================
                                       INPUT FILE
================================================================================
NAME = b3lyp-train-4.inp
|  1> ! b3lyp aug-cc-PVTZ RIJCOSX Opt
|  2> %maxcore 4000
|  3> %basis
|  4>  AuxJ "aug-cc-PVTZ/JK"
|  5>  AuxC "aug-cc-PVTZ/C"
|  6>  newGTO H "cc-PVTZ" end
|  7>  newAuxJGTO H "cc-PVTZ/JK" end
|  8>  newAuxCGTO H "cc-PVTZ/C" end
|  9> end
| 10> %cpcm
| 11>  SMD true
| 12>  SMDsolvent "acetonitrile"
| 13> end
| 14> %pal nprocs 4 end
| 15> * xyz 0 1
| 16> C         -4.57040       -0.46150        0.41150
| 17> C         -4.02030        0.49180       -0.42940
| 18> C         -2.64950        0.61520       -0.54150
| 19> C         -1.79710       -0.21660        0.18870
| 20> C         -0.35690       -0.10750        0.08880
| 21> P          0.74210       -1.10260        0.96210
| 22> C          2.18870       -0.32020        0.26940
| 23> C          3.50480       -0.67740        0.58050
| 24> C          4.55840       -0.01500       -0.00560
| 25> C          4.32660        1.01730       -0.91390
| 26> C          3.04000        1.38880       -1.23760
| 27> C          1.97300        0.72160       -0.64740
| 28> S          0.31300        1.10370       -0.97940
| 29> C         -2.36710       -1.17440        1.03350
| 30> C         -3.73620       -1.29410        1.14250
| 31> H         -5.64250       -0.55610        0.49770
| 32> H         -4.66370        1.14380       -1.00180
| 33> H         -2.22950        1.36200       -1.20020
| 34> H          3.67680       -1.47810        1.28510
| 35> H          5.57280       -0.29380        0.23730
| 36> H          5.16140        1.52990       -1.36750
| 37> H          2.84950        2.18640       -1.93950
| 38> H         -1.71510       -1.82300        1.60290
| 39> H         -4.15830       -2.03970        1.80010
| 40> *
| 41> 
| 42> 
| 43> $new_job
| 44> ! b3lyp aug-cc-PVTZ RIJCOSX SP
| 45> %maxcore 4000
| 46> %basis
| 47>  AuxJ "aug-cc-PVTZ/JK"
| 48>  AuxC "aug-cc-PVTZ/C"
| 49>  newGTO H "cc-PVTZ" end
| 50>  newAuxJGTO H "cc-PVTZ/JK" end
| 51>  newAuxCGTO H "cc-PVTZ/C" end
| 52> end
| 53> %cpcm
| 54>  SMD true
| 55>  SMDsolvent "acetonitrile"
| 56> end
| 57> %pal nprocs 4 end
| 58> %tddft
| 59>  nroots 10
| 60>  maxdim 7
| 61> end
| 62> * xyzfile 0 1
| 63> 
| 64>                          ****END OF INPUT****
================================================================================


                 $$$$$$$$$$$$$$$$$$$$$$$$$$$$$$$$$$$$$$$$$$$$$$ 
                 $ THERE ARE  2 JOBS TO BE PROCESSED THIS RUN $
                 $$$$$$$$$$$$$$$$$$$$$$$$$$$$$$$$$$$$$$$$$$$$$$ 




                 $$$$$$$$$$$$$$$$  JOB NUMBER  1 $$$$$$$$$$$$$$


                       *****************************
                       * Geometry Optimization Run *
                       *****************************

Geometry optimization settings:
Update method            Update   .... BFGS
Choice of coordinates    CoordSys .... Z-matrix Internals
Initial Hessian          InHess   .... Almoef's Model

Convergence Tolerances:
Energy Change            TolE     ....  5.0000e-06 Eh
Max. Gradient            TolMAXG  ....  3.0000e-04 Eh/bohr
RMS Gradient             TolRMSG  ....  1.0000e-04 Eh/bohr
Max. Displacement        TolMAXD  ....  4.0000e-03 bohr
RMS Displacement         TolRMSD  ....  2.0000e-03 bohr
Strict Convergence                ....  False
------------------------------------------------------------------------------
                        ORCA OPTIMIZATION COORDINATE SETUP
------------------------------------------------------------------------------

The optimization will be done in new redundant internal coordinates
Making redundant internal coordinates   ...  (new redundants) done
Evaluating the initial hessian          ...  (Almloef) done
Evaluating the coordinates              ...  done
Calculating the B-matrix                .... done
Calculating the G-matrix                .... done
Diagonalizing the G-matrix              .... done
Small eigenvalue found = 9.073e-03
The first mode is                       ....   61
The number of degrees of freedom        ....   66

    -----------------------------------------------------------------
                    Redundant Internal Coordinates


    -----------------------------------------------------------------
         Definition                    Initial Value    Approx d2E/dq
    -----------------------------------------------------------------
      1. B(C   1,C   0)                  1.3851         0.636144   
      2. B(C   2,C   1)                  1.3809         0.646035   
      3. B(C   3,C   2)                  1.3970         0.608886   
      4. B(C   4,C   3)                  1.4478         0.505311   
      5. B(P   5,C   4)                  1.7207         0.623279   
      6. B(C   6,P   5)                  1.7846         0.492885   
      7. B(C   7,C   6)                  1.3987         0.605038   
      8. B(C   8,C   7)                  1.3756         0.658664   
      9. B(C   9,C   8)                  1.3944         0.614752   
     10. B(C  10,C   9)                  1.3777         0.653609   
     11. B(C  11,C  10)                  1.3900         0.624895   
     12. B(C  11,C   6)                  1.4044         0.592560   
     13. B(S  12,C  11)                  1.7355         0.473528   
     14. B(S  12,C   4)                  1.7484         0.451584   
     15. B(C  13,C   3)                  1.3986         0.605456   
     16. B(C  14,C  13)                  1.3786         0.651426   
     17. B(C  14,C   0)                  1.3869         0.631968   
     18. B(H  15,C   0)                  1.0797         0.373970   
     19. B(H  16,C   1)                  1.0801         0.373378   
     20. B(H  17,C   2)                  1.0807         0.372562   
     21. B(H  18,C   7)                  1.0804         0.373089   
     22. B(H  19,C   8)                  1.0797         0.373996   
     23. B(H  20,C   9)                  1.0795         0.374209   
     24. B(H  21,C  10)                  1.0794         0.374389   
     25. B(H  22,C  13)                  1.0817         0.371295   
     26. B(H  23,C  14)                  1.0801         0.373495   
     27. A(C   1,C   0,H  15)          120.2070         0.356729   
     28. A(C   1,C   0,C  14)          119.6229         0.437585   
     29. A(C  14,C   0,H  15)          120.1701         0.356330   
     30. A(C   0,C   1,C   2)          120.3339         0.439326   
     31. A(C   2,C   1,H  16)          119.6265         0.357570   
     32. A(C   0,C   1,H  16)          120.0396         0.356633   
     33. A(C   1,C   2,C   3)          120.6675         0.435871   
     34. A(C   3,C   2,H  17)          119.5303         0.353862   
     35. A(C   1,C   2,H  17)          119.8023         0.357437   
     36. A(C   2,C   3,C   4)          121.7374         0.417109   
     37. A(C   2,C   3,C  13)          118.3473         0.430815   
     38. A(C   4,C   3,C  13)          119.9152         0.416690   
     39. A(C   3,C   4,S  12)          118.3927         0.417176   
     40. A(P   5,C   4,S  12)          117.7751         0.462375   
     41. A(C   3,C   4,P   5)          123.8322         0.446873   
     42. A(C   4,P   5,C   6)           93.8526         0.475097   
     43. A(P   5,C   6,C   7)          124.3628         0.442478   
     44. A(C   7,C   6,C  11)          118.6290         0.428665   
     45. A(P   5,C   6,C  11)          117.0082         0.440814   
     46. A(C   6,C   7,H  18)          118.9551         0.353567   
     47. A(C   6,C   7,C   8)          120.1934         0.436894   
     48. A(C   8,C   7,H  18)          120.8516         0.358702   
     49. A(C   9,C   8,H  19)          119.5966         0.354669   
     50. A(C   7,C   8,H  19)          119.9600         0.358850   
     51. A(C   7,C   8,C   9)          120.4434         0.438151   
     52. A(C   8,C   9,C  10)          120.5245         0.437543   
     53. A(C  10,C   9,H  20)          119.6952         0.358415   
     54. A(C   8,C   9,H  20)          119.7803         0.354703   
     55. A(C   9,C  10,C  11)          119.1879         0.438836   
     56. A(C  11,C  10,H  21)          119.6914         0.355718   
     57. A(C   9,C  10,H  21)          121.1207         0.358444   
     58. A(C   6,C  11,C  10)          121.0217         0.431157   
     59. A(C  10,C  11,S  12)          123.1857         0.437056   
     60. A(C   6,C  11,S  12)          115.7926         0.432896   
     61. A(C   4,S  12,C  11)           95.5716         0.435088   
     62. A(C   3,C  13,C  14)          120.7946         0.436080   
     63. A(C  14,C  13,H  22)          120.3261         0.357735   
     64. A(C   3,C  13,H  22)          118.8793         0.353320   
     65. A(C   0,C  14,C  13)          120.2338         0.439463   
     66. A(C  13,C  14,H  23)          119.7479         0.358094   
     67. A(C   0,C  14,H  23)          120.0183         0.356254   
     68. D(H  16,C   1,C   0,C  14)   -179.9971         0.028094   
     69. D(C   2,C   1,C   0,H  15)    179.9903         0.028094   
     70. D(C   2,C   1,C   0,C  14)     -0.0051         0.028094   
     71. D(H  16,C   1,C   0,H  15)     -0.0016         0.028094   
     72. D(H  17,C   2,C   1,C   0)   -179.9991         0.029035   
     73. D(H  17,C   2,C   1,H  16)     -0.0071         0.029035   
     74. D(C   3,C   2,C   1,H  16)    179.9989         0.029035   
     75. D(C   3,C   2,C   1,C   0)      0.0069         0.029035   
     76. D(C  13,C   3,C   2,H  17)   -179.9968         0.025600   
     77. D(C   4,C   3,C   2,H  17)     -0.0015         0.025600   
     78. D(C   4,C   3,C   2,C   1)    179.9925         0.025600   
     79. D(C  13,C   3,C   2,C   1)     -0.0028         0.025600   
     80. D(P   5,C   4,C   3,C  13)     -0.0035         0.017396   
     81. D(P   5,C   4,C   3,C   2)   -179.9987         0.017396   
     82. D(S  12,C   4,C   3,C   2)      0.0039         0.017396   
     83. D(S  12,C   4,C   3,C  13)    179.9991         0.017396   
     84. D(C   6,P   5,C   4,S  12)     -0.0005         0.005993   
     85. D(C   6,P   5,C   4,C   3)   -179.9980         0.005993   
     86. D(C  11,C   6,P   5,C   4)     -0.0021         0.004252   
     87. D(C   7,C   6,P   5,C   4)    179.9985         0.004252   
     88. D(H  18,C   7,C   6,C  11)   -179.9995         0.025259   
     89. D(H  18,C   7,C   6,P   5)     -0.0001         0.025259   
     90. D(C   8,C   7,C   6,C  11)     -0.0025         0.025259   
     91. D(C   8,C   7,C   6,P   5)    179.9968         0.025259   
     92. D(H  19,C   8,C   7,H  18)     -0.0054         0.030264   
     93. D(H  19,C   8,C   7,C   6)    179.9978         0.030264   
     94. D(C   9,C   8,C   7,H  18)   -179.9973         0.030264   
     95. D(C   9,C   8,C   7,C   6)      0.0059         0.030264   
     96. D(H  20,C   9,C   8,C   7)    179.9996         0.026124   
     97. D(C  10,C   9,C   8,H  19)   -179.9954         0.026124   
     98. D(C  10,C   9,C   8,C   7)     -0.0034         0.026124   
     99. D(H  20,C   9,C   8,H  19)      0.0077         0.026124   
    100. D(H  21,C  10,C   9,H  20)      0.0034         0.029768   
    101. D(H  21,C  10,C   9,C   8)   -179.9936         0.029768   
    102. D(C  11,C  10,C   9,H  20)    179.9946         0.029768   
    103. D(C  11,C  10,C   9,C   8)     -0.0024         0.029768   
    104. D(S  12,C  11,C  10,H  21)     -0.0103         0.027047   
    105. D(C   6,C  11,C  10,H  21)    179.9971         0.027047   
    106. D(C   6,C  11,C  10,C   9)      0.0057         0.027047   
    107. D(S  12,C  11,C   6,C   7)   -179.9965         0.024174   
    108. D(S  12,C  11,C   6,P   5)      0.0041         0.024174   
    109. D(S  12,C  11,C  10,C   9)    179.9984         0.027047   
    110. D(C  10,C  11,C   6,C   7)     -0.0033         0.024174   
    111. D(C  10,C  11,C   6,P   5)    179.9973         0.024174   
    112. D(C   4,S  12,C  11,C  10)   -179.9968         0.004806   
    113. D(C   4,S  12,C  11,C   6)     -0.0038         0.004806   
    114. D(C  11,S  12,C   4,P   5)      0.0023         0.004494   
    115. D(C  11,S  12,C   4,C   3)    179.9999         0.004494   
    116. D(H  22,C  13,C   3,C   4)      0.0042         0.025296   
    117. D(H  22,C  13,C   3,C   2)    179.9996         0.025296   
    118. D(C  14,C  13,C   3,C   4)   -179.9984         0.025296   
    119. D(C  14,C  13,C   3,C   2)     -0.0031         0.025296   
    120. D(H  23,C  14,C  13,H  22)     -0.0017         0.029556   
    121. D(C   0,C  14,C  13,H  22)   -179.9978         0.029556   
    122. D(C   0,C  14,C  13,C   3)      0.0048         0.029556   
    123. D(H  23,C  14,C   0,H  15)      0.0076         0.027702   
    124. D(H  23,C  14,C   0,C   1)   -179.9969         0.027702   
    125. D(H  23,C  14,C  13,C   3)   -179.9990         0.029556   
    126. D(C  13,C  14,C   0,H  15)   -179.9962         0.027702   
    127. D(C  13,C  14,C   0,C   1)     -0.0007         0.027702   
    -----------------------------------------------------------------

Number of atoms                         .... 24
Number of degrees of freedom            .... 127

         *************************************************************
         *                GEOMETRY OPTIMIZATION CYCLE   1            *
         *************************************************************
---------------------------------
CARTESIAN COORDINATES (ANGSTROEM)
---------------------------------
  C     -4.570400   -0.461500    0.411500
  C     -4.020300    0.491800   -0.429400
  C     -2.649500    0.615200   -0.541500
  C     -1.797100   -0.216600    0.188700
  C     -0.356900   -0.107500    0.088800
  P      0.742100   -1.102600    0.962100
  C      2.188700   -0.320200    0.269400
  C      3.504800   -0.677400    0.580500
  C      4.558400   -0.015000   -0.005600
  C      4.326600    1.017300   -0.913900
  C      3.040000    1.388800   -1.237600
  C      1.973000    0.721600   -0.647400
  S      0.313000    1.103700   -0.979400
  C     -2.367100   -1.174400    1.033500
  C     -3.736200   -1.294100    1.142500
  H     -5.642500   -0.556100    0.497700
  H     -4.663700    1.143800   -1.001800
  H     -2.229500    1.362000   -1.200200
  H      3.676800   -1.478100    1.285100
  H      5.572800   -0.293800    0.237300
  H      5.161400    1.529900   -1.367500
  H      2.849500    2.186400   -1.939500
  H     -1.715100   -1.823000    1.602900
  H     -4.158300   -2.039700    1.800100

----------------------------
CARTESIAN COORDINATES (A.U.)
----------------------------
  NO LB      ZA    FRAG     MASS         X           Y           Z
   0 C     6.0000    0    12.011   -8.636804   -0.872109    0.777622
   1 C     6.0000    0    12.011   -7.597266    0.929367   -0.811448
   2 C     6.0000    0    12.011   -5.006829    1.162560   -1.023287
   3 C     6.0000    0    12.011   -3.396027   -0.409315    0.356591
   4 C     6.0000    0    12.011   -0.674443   -0.203146    0.167808
   5 P    15.0000    0    30.974    1.402366   -2.083612    1.818106
   6 C     6.0000    0    12.011    4.136044   -0.605090    0.509092
   7 C     6.0000    0    12.011    6.623112   -1.280100    1.096986
   8 C     6.0000    0    12.011    8.614128   -0.028346   -0.010582
   9 C     6.0000    0    12.011    8.176089    1.922418   -1.727021
  10 C     6.0000    0    12.011    5.744767    2.624452   -2.338725
  11 C     6.0000    0    12.011    3.728430    1.363626   -1.223409
  12 S    16.0000    0    32.060    0.591484    2.085691   -1.850798
  13 C     6.0000    0    12.011   -4.473171   -2.219294    1.953032
  14 C     6.0000    0    12.011   -7.060395   -2.445495    2.159012
  15 H     1.0000    0     1.008  -10.662780   -1.050877    0.940517
  16 H     1.0000    0     1.008   -8.813116    2.161469   -1.893128
  17 H     1.0000    0     1.008   -4.213144    2.573807   -2.268049
  18 H     1.0000    0     1.008    6.948145   -2.793204    2.428487
  19 H     1.0000    0     1.008   10.531066   -0.555202    0.448432
  20 H     1.0000    0     1.008    9.753632    2.891092   -2.584200
  21 H     1.0000    0     1.008    5.384775    4.131697   -3.665124
  22 H     1.0000    0     1.008   -3.241069   -3.444971    3.029042
  23 H     1.0000    0     1.008   -7.858048   -3.854474    3.401696

--------------------------------
INTERNAL COORDINATES (ANGSTROEM)
--------------------------------
 C      0   0   0     0.000000000000     0.00000000     0.00000000
 C      1   0   0     1.385100613674     0.00000000     0.00000000
 C      2   1   0     1.380900651749   120.33387166     0.00000000
 C      3   2   1     1.397021488740   120.66745383     0.00000000
 C      4   3   2     1.447777213524   121.73742609   179.99247754
 P      5   4   3     1.720662052816   123.83222498   180.00129550
 C      6   5   4     1.784554457000    93.85256138   180.00203796
 C      7   6   5     1.398747389631   124.36275245   179.99849513
 C      8   7   6     1.375630738970   120.19335617   179.99681574
 C      9   8   7     1.394411495937   120.44343937     0.00000000
 C     10   9   8     1.377727658139   120.52452008     0.00000000
 C     11  10   9     1.389957150419   119.18790131     0.00000000
 S     12  11  10     1.735460863863   123.18568278   179.99839372
 C      4   3   2     1.398559215765   118.34734701     0.00000000
 C     14   4   3     1.378638422502   120.79464432     0.00000000
 H      1   2   3     1.079712003268   120.20703654   179.99033929
 H      2   1   3     1.080143194211   120.03958220   180.00807260
 H      3   2   1     1.080738603919   119.80226112   180.00092985
 H      8   7   6     1.080354409442   118.95508436     0.00000000
 H      9   8   7     1.079693109175   119.95998590   179.99779393
 H     10   9   8     1.079538216091   119.78026958   179.99963503
 H     11  10   9     1.079407068719   121.12065728   180.00641727
 H     14   4   3     1.081666455059   118.87927471   179.99956939
 H     15  14   4     1.080058114177   119.74790299   180.00100506

---------------------------
INTERNAL COORDINATES (A.U.)
---------------------------
 C      0   0   0     0.000000000000     0.00000000     0.00000000
 C      1   0   0     2.617460827770     0.00000000     0.00000000
 C      2   1   0     2.609524049958   120.33387166     0.00000000
 C      3   2   1     2.639988016921   120.66745383     0.00000000
 C      4   3   2     2.735902436492   121.73742609   179.99247754
 P      5   4   3     3.251580048852   123.83222498   180.00129550
 C      6   5   4     3.372319194799    93.85256138   180.00203796
 C      7   6   5     2.643249496940   124.36275245   179.99849513
 C      8   7   6     2.599565358058   120.19335617   179.99681574
 C      9   8   7     2.635055845312   120.44343937     0.00000000
 C     10   9   8     2.603527961011   120.52452008     0.00000000
 C     11  10   9     2.626638352177   119.18790131     0.00000000
 S     12  11  10     3.279545748839   123.18568278   179.99839372
 C      4   3   2     2.642893899867   118.34734701     0.00000000
 C     14   4   3     2.605249056231   120.79464432     0.00000000
 H      1   2   3     2.040359989683   120.20703654   179.99033929
 H      2   1   3     2.041174822477   120.03958220   180.00807260
 H      3   2   1     2.042299983763   119.80226112   180.00092985
 H      8   7   6     2.041573961419   118.95508436     0.00000000
 H      9   8   7     2.040324285023   119.95998590   179.99779393
 H     10   9   8     2.040031579513   119.78026958   179.99963503
 H     11  10   9     2.039783746897   121.12065728   180.00641727
 H     14   4   3     2.044053368311   118.87927471   179.99956939
 H     15  14   4     2.041014044514   119.74790299   180.00100506

---------------------
BASIS SET INFORMATION
---------------------
There are 4 groups of distinct atoms

 Group   1 Type C   : 19s6p3d2f contracted to 5s4p3d2f pattern {88111/3111/111/11}
 Group   2 Type P   : 42s17p3d2f contracted to 6s5p3d2f pattern {131313111/77111/111/11}
 Group   3 Type S   : 42s17p3d2f contracted to 6s5p3d2f pattern {131313111/77111/111/11}
 Group   4 Type H   : 5s2p1d contracted to 3s2p1d pattern {311/11/1}

Atom   0C    basis set group =>   1
Atom   1C    basis set group =>   1
Atom   2C    basis set group =>   1
Atom   3C    basis set group =>   1
Atom   4C    basis set group =>   1
Atom   5P    basis set group =>   2
Atom   6C    basis set group =>   1
Atom   7C    basis set group =>   1
Atom   8C    basis set group =>   1
Atom   9C    basis set group =>   1
Atom  10C    basis set group =>   1
Atom  11C    basis set group =>   1
Atom  12S    basis set group =>   3
Atom  13C    basis set group =>   1
Atom  14C    basis set group =>   1
Atom  15H    basis set group =>   4
Atom  16H    basis set group =>   4
Atom  17H    basis set group =>   4
Atom  18H    basis set group =>   4
Atom  19H    basis set group =>   4
Atom  20H    basis set group =>   4
Atom  21H    basis set group =>   4
Atom  22H    basis set group =>   4
Atom  23H    basis set group =>   4
---------------------------------
AUXILIARY/J BASIS SET INFORMATION
---------------------------------
There are 4 groups of distinct atoms

 Group   1 Type C   : 10s7p5d2f1g contracted to 10s7p5d2f1g pattern {1111111111/1111111/11111/11/1}
 Group   2 Type P   : 13s11p9d3f1g contracted to 13s11p9d3f1g pattern {1111111111111/11111111111/111111111/111/1}
 Group   3 Type S   : 13s11p9d3f1g contracted to 13s11p9d3f1g pattern {1111111111111/11111111111/111111111/111/1}
 Group   4 Type H   : 4s3p2d1f contracted to 4s3p2d1f pattern {1111/111/11/1}

Atom   0C    basis set group =>   1
Atom   1C    basis set group =>   1
Atom   2C    basis set group =>   1
Atom   3C    basis set group =>   1
Atom   4C    basis set group =>   1
Atom   5P    basis set group =>   2
Atom   6C    basis set group =>   1
Atom   7C    basis set group =>   1
Atom   8C    basis set group =>   1
Atom   9C    basis set group =>   1
Atom  10C    basis set group =>   1
Atom  11C    basis set group =>   1
Atom  12S    basis set group =>   3
Atom  13C    basis set group =>   1
Atom  14C    basis set group =>   1
Atom  15H    basis set group =>   4
Atom  16H    basis set group =>   4
Atom  17H    basis set group =>   4
Atom  18H    basis set group =>   4
Atom  19H    basis set group =>   4
Atom  20H    basis set group =>   4
Atom  21H    basis set group =>   4
Atom  22H    basis set group =>   4
Atom  23H    basis set group =>   4
---------------------------------
AUXILIARY/C BASIS SET INFORMATION
---------------------------------
There are 4 groups of distinct atoms

 Group   1 Type C   : 9s7p6d4f2g contracted to 9s7p6d4f2g pattern {111111111/1111111/111111/1111/11}
 Group   2 Type P   : 11s9p8d6f3g contracted to 11s9p8d6f3g pattern {11111111111/111111111/11111111/111111/111}
 Group   3 Type S   : 11s9p8d6f3g contracted to 11s9p8d6f3g pattern {11111111111/111111111/11111111/111111/111}
 Group   4 Type H   : 4s3p2d1f contracted to 4s3p2d1f pattern {1111/111/11/1}

Atom   0C    basis set group =>   1
Atom   1C    basis set group =>   1
Atom   2C    basis set group =>   1
Atom   3C    basis set group =>   1
Atom   4C    basis set group =>   1
Atom   5P    basis set group =>   2
Atom   6C    basis set group =>   1
Atom   7C    basis set group =>   1
Atom   8C    basis set group =>   1
Atom   9C    basis set group =>   1
Atom  10C    basis set group =>   1
Atom  11C    basis set group =>   1
Atom  12S    basis set group =>   3
Atom  13C    basis set group =>   1
Atom  14C    basis set group =>   1
Atom  15H    basis set group =>   4
Atom  16H    basis set group =>   4
Atom  17H    basis set group =>   4
Atom  18H    basis set group =>   4
Atom  19H    basis set group =>   4
Atom  20H    basis set group =>   4
Atom  21H    basis set group =>   4
Atom  22H    basis set group =>   4
Atom  23H    basis set group =>   4


           ************************************************************
           *        Program running with 4 parallel MPI-processes     *
           *              working on a common directory               *
           ************************************************************
------------------------------------------------------------------------------
                           ORCA GTO INTEGRAL CALCULATION
                           -- RI-GTO INTEGRALS CHOSEN --
------------------------------------------------------------------------------
------------------------------------------------------------------------------
                   ___                                                        
                  /   \      - P O W E R E D   B Y -                         
                 /     \                                                     
                 |  |  |   _    _      __       _____    __    __             
                 |  |  |  | |  | |    /  \     |  _  \  |  |  /  |          
                  \  \/   | |  | |   /    \    | | | |  |  | /  /          
                 / \  \   | |__| |  /  /\  \   | |_| |  |  |/  /          
                |  |  |   |  __  | /  /__\  \  |    /   |      \           
                |  |  |   | |  | | |   __   |  |    \   |  |\   \          
                \     /   | |  | | |  |  |  |  | |\  \  |  | \   \       
                 \___/    |_|  |_| |__|  |__|  |_| \__\ |__|  \__/        
                                                                              
                      - O R C A' S   B I G   F R I E N D -                    
                                      &                                       
                       - I N T E G R A L  F E E D E R -                       
                                                                              
 v1 FN, 2020, v2 2021                                                         
------------------------------------------------------------------------------


Reading SHARK input file b3lyp-train-4.SHARKINP.tmp ... ok
----------------------
SHARK INTEGRAL PACKAGE
----------------------

Number of atoms                             ...     24
Number of basis functions                   ...    952
Number of shells                            ...    376
Maximum angular momentum                    ...      3
Integral batch strategy                     ... SHARK/LIBINT Hybrid
RI-J (if used) integral strategy            ... SPLIT-RIJ (Revised 2003 algorithm where possible)
Printlevel                                  ...      1
Contraction scheme used                     ... PARTIAL GENERAL contraction
Coulomb Range Separation                    ... NOT USED
Exchange Range Separation                   ... NOT USED
Finite Nucleus Model                        ... NOT USED
Auxiliary Coulomb fitting basis             ... AVAILABLE
   # of basis functions in Aux-J            ...   1539
   # of shells in Aux-J                     ...    489
   Maximum angular momentum in Aux-J        ...      4
Auxiliary J/K fitting basis                 ... NOT available
Auxiliary Correlation fitting basis         ... AVAILABLE
   # of basis functions in Aux-C            ...   1942
   # of shells in Aux-C                     ...    528
   Maximum angular momentum in Aux-C        ...      4
Auxiliary 'external' fitting basis          ... NOT available
Integral threshold                          ...     2.500000e-11
Primitive cut-off                           ...     2.500000e-12
Primitive pair pre-selection threshold      ...     2.500000e-12

Calculating pre-screening integrals         ... done (  0.1 sec) Dimension = 376
Calculating pre-screening integrals (ORCA)  ... done (  0.4 sec) Dimension = 268
Organizing shell pair data                  ... done (  1.1 sec)
Shell pair information
Total number of shell pairs                 ...     70876
Shell pairs after pre-screening             ...     47964
Total number of primitive shell pairs       ...     88476
Primitive shell pairs kept                  ...     55053
          la=0 lb=0:  10711 shell pairs
          la=1 lb=0:  12470 shell pairs
          la=1 lb=1:   3264 shell pairs
          la=2 lb=0:   7878 shell pairs
          la=2 lb=1:   3956 shell pairs
          la=2 lb=2:   1235 shell pairs
          la=3 lb=0:   4441 shell pairs
          la=3 lb=1:   2247 shell pairs
          la=3 lb=2:   1360 shell pairs
          la=3 lb=3:    402 shell pairs

Calculating one electron integrals          ... done (  0.2 sec)
Calculating RI/J V-Matrix + Cholesky decomp.... done (  0.2 sec)
Calculating RI/C V-Matrix + Cholesky decomp.... done (  0.3 sec)
Calculating Nuclear repulsion               ... done (  0.0 sec) ENN=   1078.649719388112 Eh

SHARK setup successfully completed in   3.0 seconds

Maximum memory used throughout the entire GTOINT-calculation: 85.2 MB


           ************************************************************
           *        Program running with 4 parallel MPI-processes     *
           *              working on a common directory               *
           ************************************************************
-------------------------------------------------------------------------------
                                 ORCA SCF
-------------------------------------------------------------------------------

------------
SCF SETTINGS
------------
Hamiltonian:
 Density Functional     Method          .... DFT(GTOs)
 Exchange Functional    Exchange        .... B88
   X-Alpha parameter    XAlpha          ....  0.666667
   Becke's b parameter  XBeta           ....  0.004200
 Correlation Functional Correlation     .... LYP
 LDA part of GGA corr.  LDAOpt          .... VWN-5
 Gradients option       PostSCFGGA      .... off
 Hybrid DFT is turned on
   Fraction HF Exchange ScalHFX         ....  0.200000
   Scaling of DF-GGA-X  ScalDFX         ....  0.720000
   Scaling of DF-GGA-C  ScalDFC         ....  0.810000
   Scaling of DF-LDA-C  ScalLDAC        ....  1.000000
   Perturbative correction              ....  0.000000
   Density functional embedding theory  .... OFF
   NL short-range parameter             ....  4.800000
 RI-approximation to the Coulomb term is turned on
   Number of AuxJ basis functions       .... 1539
   RIJ-COSX (HFX calculated with COS-X)).... on


General Settings:
 Integral files         IntName         .... b3lyp-train-4
 Hartree-Fock type      HFTyp           .... RHF
 Total Charge           Charge          ....    0
 Multiplicity           Mult            ....    1
 Number of Electrons    NEL             ....  118
 Basis Dimension        Dim             ....  824
 Nuclear Repulsion      ENuc            ....   1078.6497193881 Eh

Convergence Acceleration:
 DIIS                   CNVDIIS         .... on
   Start iteration      DIISMaxIt       ....    12
   Startup error        DIISStart       ....  0.200000
   # of expansion vecs  DIISMaxEq       ....     5
   Bias factor          DIISBfac        ....   1.050
   Max. coefficient     DIISMaxC        ....  10.000
 Trust-Rad. Augm. Hess. CNVTRAH         .... auto
   Auto Start mean grad. ratio tolernc. ....  1.125000
   Auto Start start iteration           ....    20
   Auto Start num. interpolation iter.  ....    10
   Max. Number of Micro iterations      ....    16
   Max. Number of Macro iterations      .... Maxiter - #DIIS iter
   Number of Davidson start vectors     ....     2
   Converg. threshold I  (grad. norm)   ....   1.000e-05
   Converg. threshold II (energy diff.) ....   1.000e-08
   Grad. Scal. Fac. for Micro threshold ....   0.100
   Minimum threshold for Micro iter.    ....   0.010
   NR start threshold (gradient norm)   ....   0.001
   Initial trust radius                 ....   0.400
   Minimum AH scaling param. (alpha)    ....   1.000
   Maximum AH scaling param. (alpha)    .... 1000.000
   Orbital update algorithm             .... Taylor
   White noise on init. David. guess    .... on
   Maximum white noise                  ....   0.010
   Quad. conv. algorithm                .... NR
 SOSCF                  CNVSOSCF        .... on
   Start iteration      SOSCFMaxIt      ....   150
   Startup grad/error   SOSCFStart      ....  0.003300
 Level Shifting         CNVShift        .... on
   Level shift para.    LevelShift      ....    0.2500
   Turn off err/grad.   ShiftErr        ....    0.0010
 Zerner damping         CNVZerner       .... off
 Static damping         CNVDamp         .... on
   Fraction old density DampFac         ....    0.7000
   Max. Damping (<1)    DampMax         ....    0.9800
   Min. Damping (>=0)   DampMin         ....    0.0000
   Turn off err/grad.   DampErr         ....    0.1000
 Fernandez-Rico         CNVRico         .... off

SCF Procedure:
 Maximum # iterations   MaxIter         ....   125
 SCF integral mode      SCFMode         .... Direct
   Integral package                     .... SHARK and LIBINT hybrid scheme
 Reset frequency        DirectResetFreq ....    20
 Integral Threshold     Thresh          ....  2.500e-11 Eh
 Primitive CutOff       TCut            ....  2.500e-12 Eh

Convergence Tolerance:
 Convergence Check Mode ConvCheckMode   .... Total+1el-Energy
 Convergence forced     ConvForced      .... 0
 Energy Change          TolE            ....  1.000e-08 Eh
 1-El. energy change                    ....  1.000e-05 Eh
 Orbital Gradient       TolG            ....  1.000e-05
 Orbital Rotation angle TolX            ....  1.000e-05
 DIIS Error             TolErr          ....  5.000e-07


Diagonalization of the overlap matrix:
Smallest eigenvalue                        ... 9.689e-07
Time for diagonalization                   ...    0.207 sec
Threshold for overlap eigenvalues          ... 1.000e-08
Number of eigenvalues below threshold      ... 0
Time for construction of square roots      ...    0.115 sec
Total time needed                          ...    0.326 sec

Time for model grid setup =    0.370 sec

------------------------------
INITIAL GUESS: MODEL POTENTIAL
------------------------------
Loading Hartree-Fock densities                     ... done
Calculating cut-offs                               ... done
Initializing the effective Hamiltonian             ... done
Setting up the integral package (SHARK)            ... done
Starting the Coulomb interaction                   ... done (   1.4 sec)
Reading the grid                                   ... done
Mapping shells                                     ... done
Starting the XC term evaluation                    ... done (   1.3 sec)
  promolecular density results
     # of electrons  =    117.995472245
     EX              =   -117.244329938
     EC              =     -4.207902558
     EX+EC           =   -121.452232496
Transforming the Hamiltonian                       ... done (   0.1 sec)
Diagonalizing the Hamiltonian                      ... done (   0.2 sec)
Back transforming the eigenvectors                 ... done (   0.0 sec)
Now organizing SCF variables                       ... done
                      ------------------
                      INITIAL GUESS DONE (   3.4 sec)
                      ------------------
-------------------
DFT GRID GENERATION
-------------------

General Integration Accuracy     IntAcc      ... 4.388
Radial Grid Type                 RadialGrid  ... OptM3 with GC (2021)
Angular Grid (max. ang.)         AngularGrid ... 4 (Lebedev-302)
Angular grid pruning method      GridPruning ... 4 (adaptive)
Weight generation scheme         WeightScheme... Becke
Basis function cutoff            BFCut       ... 1.0000e-11
Integration weight cutoff        WCut        ... 1.0000e-14
Angular grids for H and He will be reduced by one unit
Partially contracted basis set               ... off
Rotationally invariant grid construction     ... off

Total number of grid points                  ...   125109
Total number of batches                      ...     1965
Average number of points per batch           ...       63
Average number of grid points per atom       ...     5213
Time for grid setup =    1.392 sec

--------------------
COSX GRID GENERATION
--------------------

GRIDX 1
-------
General Integration Accuracy     IntAcc      ... 3.816
Radial Grid Type                 RadialGrid  ... OptM3 with GC (2021)
Angular Grid (max. ang.)         AngularGrid ... 1 (Lebedev-50)
Angular grid pruning method      GridPruning ... 4 (adaptive)
Weight generation scheme         WeightScheme... Becke
Basis function cutoff            BFCut       ... 1.0000e-11
Integration weight cutoff        WCut        ... 1.0000e-14
Angular grids for H and He will be reduced by one unit
Partially contracted basis set               ... on
Rotationally invariant grid construction     ... off

Total number of grid points                  ...    15745
Total number of batches                      ...      257
Average number of points per batch           ...       61
Average number of grid points per atom       ...      656
UseSFitting                                  ... on

GRIDX 2
-------
General Integration Accuracy     IntAcc      ... 4.020
Radial Grid Type                 RadialGrid  ... OptM3 with GC (2021)
Angular Grid (max. ang.)         AngularGrid ... 2 (Lebedev-110)
Angular grid pruning method      GridPruning ... 4 (adaptive)
Weight generation scheme         WeightScheme... Becke
Basis function cutoff            BFCut       ... 1.0000e-11
Integration weight cutoff        WCut        ... 1.0000e-14
Angular grids for H and He will be reduced by one unit
Partially contracted basis set               ... on
Rotationally invariant grid construction     ... off

Total number of grid points                  ...    37919
Total number of batches                      ...      605
Average number of points per batch           ...       62
Average number of grid points per atom       ...     1580
UseSFitting                                  ... on

GRIDX 3
-------
General Integration Accuracy     IntAcc      ... 4.338
Radial Grid Type                 RadialGrid  ... OptM3 with GC (2021)
Angular Grid (max. ang.)         AngularGrid ... 3 (Lebedev-194)
Angular grid pruning method      GridPruning ... 4 (adaptive)
Weight generation scheme         WeightScheme... Becke
Basis function cutoff            BFCut       ... 1.0000e-11
Integration weight cutoff        WCut        ... 1.0000e-14
Angular grids for H and He will be reduced by one unit
Partially contracted basis set               ... on
Rotationally invariant grid construction     ... off

Total number of grid points                  ...    83164
Total number of batches                      ...     1311
Average number of points per batch           ...       63
Average number of grid points per atom       ...     3465
UseSFitting                                  ... on

Time for X-Grid setup             =    3.659 sec


--------------------
CPCM SOLVATION MODEL
--------------------
CPCM parameters:
  Epsilon                                         ...      35.6880
  Refrac                                          ...       1.3442
  Rsolv                                           ...       1.3000
  Surface type                                    ... GAUSSIAN VDW
  Epsilon function type                           ...         CPCM
Solvent:                                     ... ACETONITRILE
SMD-CDS solvent descriptors:
  Soln                                       ...    1.3442
  Soln25                                     ...    1.3416
  Sola                                       ...    0.0700
  Solb                                       ...    0.3200
  Solg                                       ...   41.2500
  Solc                                       ...    0.0000
  Solh                                       ...    0.0000
Radii:
 Radius for C  used is    3.4960 Bohr (=   1.8500 Ang.)
 Radius for P  used is    4.0062 Bohr (=   2.1200 Ang.)
 Radius for S  used is    4.7054 Bohr (=   2.4900 Ang.)
 Radius for H  used is    2.2677 Bohr (=   1.2000 Ang.)
Calculating surface                               ...        done! (  0.0s)
GEPOL surface points                              ...         1337
GEPOL Volume                                      ...    1598.9572
GEPOL Surface-area                                ...     850.5654
Calculating surface distance matrix               ...        done! (  0.0s)
Performing Cholesky decomposition & store         ...        done! (  0.1s)
Overall time for CPCM initialization              ...                 0.1s
 re-compute Schwartz prescreening matrix in partically contracted basis (1) ...done (   0.192 sec)
--------------
SCF ITERATIONS
--------------
ITER       Energy         Delta-E        Max-DP      RMS-DP      [F,P]     Damp
               ***  Starting incremental Fock matrix formation  ***
  0  -1239.7803987993   0.000000000000 0.21802995  0.00126206  0.1520276 0.7000
  1  -1239.9532397367  -0.172840937402 0.15115704  0.00089470  0.0790243 0.7000
                               ***Turning on DIIS***
  2  -1240.0259373754  -0.072697638711 0.31018597  0.00182845  0.0324519 0.0000
  3  -1240.1253676047  -0.099430229242 0.05386719  0.00039781  0.0471440 0.0000
  4  -1240.1570034809  -0.031635876276 0.02042143  0.00018427  0.0102093 0.0000
                      *** Initiating the SOSCF procedure ***
                           *** Shutting down DIIS ***
                      *** Re-Reading the Fockian *** 
                      *** Removing any level shift *** 
ITER      Energy       Delta-E        Grad      Rot      Max-DP    RMS-DP
  5  -1240.15848511  -0.0014816300  0.000729  0.000729  0.008499  0.000067
               *** Restarting incremental Fock matrix formation ***
  6  -1240.15859790  -0.0001127926  0.000683  0.003424  0.017129  0.000333
  7  -1240.15859701   0.0000008982  0.000562  0.001023  0.003067  0.000064
  8  -1240.15862417  -0.0000271694  0.000110  0.000493  0.003317  0.000069
  9  -1240.15862382   0.0000003568  0.000130  0.000416  0.001116  0.000010
 10  -1240.15862538  -0.0000015599  0.000037  0.000230  0.001456  0.000018
 11  -1240.15862534   0.0000000412  0.000039  0.000093  0.000575  0.000007
 12  -1240.15862542  -0.0000000859  0.000005  0.000028  0.001506  0.000019
 13  -1240.15862546  -0.0000000421  0.000005  0.000021  0.000681  0.000008
                  ***Gradient check signals convergence***
              ***Rediagonalizing the Fockian in SOSCF/NRSCF***

               *****************************************************
               *                     SUCCESS                       *
               *           SCF CONVERGED AFTER  14 CYCLES          *
               *****************************************************

Old exchange energy                            =    -23.667728871 Eh
New exchange energy                            =    -23.667642976 Eh
Exchange energy change after final integration =      0.000085895 Eh
Total energy after final integration           =  -1240.158539573 Eh
Final COS-X integration done in                =    94.267 sec

SMD CDS free energy correction energy :                -2.96894     Kcal/mol
Total Energy after SMD CDS correction =             -1240.163270885 Eh

----------------
TOTAL SCF ENERGY
----------------

Total Energy       :        -1240.16327089 Eh          -33746.55824 eV

Components:
Nuclear Repulsion  :         1078.64971939 Eh           29351.55107 eV
Electronic Energy  :        -2318.81299027 Eh          -63098.10931 eV
One Electron Energy:        -3841.76145402 Eh         -104539.64386 eV
Two Electron Energy:         1522.94846375 Eh           41441.53455 eV
Max COSX asymmetry :            0.00002305 Eh               0.00063 eV
CPCM Dielectric    :           -0.01070330 Eh              -0.29125 eV
SMD CDS (Gcds)     :           -0.00473131 Eh              -0.12875 eV

Virial components:
Potential Energy   :        -2475.65794474 Eh          -67366.07750 eV
Kinetic Energy     :         1235.49467385 Eh           33619.51926 eV
Virial Ratio       :            2.00377873


DFT components:
N(Alpha)           :       58.999971484833 electrons
N(Beta)            :       58.999971484833 electrons
N(Total)           :      117.999942969666 electrons
E(X)               :      -93.984100011760 Eh       
E(C)               :       -4.952018718800 Eh       
E(XC)              :      -98.936118730560 Eh       
DFET-embed. en.    :        0.000000000000 Eh       
CPCM Solvation Model Properties:
Surface-charge          :           -0.05748628
Charge-correction       :            0.00045267 Eh               0.01232 eV
Free-energy (cav+disp)  :           -0.00473131 Eh              -0.12875 eV

---------------
SCF CONVERGENCE
---------------

  Last Energy change         ...   -3.2139e-09  Tolerance :   1.0000e-08
  Last MAX-Density change    ...    5.7732e-15  Tolerance :   1.0000e-07
  Last RMS-Density change    ...    1.8232e-17  Tolerance :   5.0000e-09
  Last Orbital Gradient      ...    1.4297e-06  Tolerance :   1.0000e-05
  Last Orbital Rotation      ...    5.6997e-06  Tolerance :   1.0000e-05

             **** THE GBW FILE WAS UPDATED (b3lyp-train-4.gbw) ****
             **** DENSITY b3lyp-train-4.scfp WAS UPDATED ****
             **** ENERGY FILE WAS UPDATED (b3lyp-train-4.en.tmp) ****
             **** THE GBW FILE WAS UPDATED (b3lyp-train-4.gbw) ****
             **** DENSITY b3lyp-train-4.scfp WAS UPDATED ****
----------------
ORBITAL ENERGIES
----------------

  NO   OCC          E(Eh)            E(eV) 
   0   2.0000     -88.923010     -2419.7181 
   1   2.0000     -77.074914     -2097.3150 
   2   2.0000     -10.224934      -278.2346 
   3   2.0000     -10.215504      -277.9780 
   4   2.0000     -10.196285      -277.4550 
   5   2.0000     -10.189653      -277.2746 
   6   2.0000     -10.182106      -277.0692 
   7   2.0000     -10.179374      -276.9948 
   8   2.0000     -10.178600      -276.9738 
   9   2.0000     -10.177600      -276.9466 
  10   2.0000     -10.177361      -276.9401 
  11   2.0000     -10.175657      -276.8937 
  12   2.0000     -10.175271      -276.8832 
  13   2.0000     -10.174703      -276.8677 
  14   2.0000     -10.174151      -276.8527 
  15   2.0000      -7.974487      -216.9968 
  16   2.0000      -6.541272      -177.9971 
  17   2.0000      -5.938198      -161.5866 
  18   2.0000      -5.934552      -161.4874 
  19   2.0000      -5.931625      -161.4077 
  20   2.0000      -4.703151      -127.9792 
  21   2.0000      -4.702420      -127.9594 
  22   2.0000      -4.699533      -127.8808 
  23   2.0000      -0.890196       -24.2235 
  24   2.0000      -0.870049       -23.6752 
  25   2.0000      -0.829142       -22.5621 
  26   2.0000      -0.776731       -21.1359 
  27   2.0000      -0.763091       -20.7648 
  28   2.0000      -0.754057       -20.5189 
  29   2.0000      -0.721635       -19.6367 
  30   2.0000      -0.684719       -18.6322 
  31   2.0000      -0.630659       -17.1611 
  32   2.0000      -0.615541       -16.7497 
  33   2.0000      -0.598213       -16.2782 
  34   2.0000      -0.575059       -15.6482 
  35   2.0000      -0.555132       -15.1059 
  36   2.0000      -0.513754       -13.9800 
  37   2.0000      -0.484036       -13.1713 
  38   2.0000      -0.475088       -12.9278 
  39   2.0000      -0.470473       -12.8022 
  40   2.0000      -0.444852       -12.1050 
  41   2.0000      -0.443267       -12.0619 
  42   2.0000      -0.427431       -11.6310 
  43   2.0000      -0.419408       -11.4127 
  44   2.0000      -0.410619       -11.1735 
  45   2.0000      -0.407620       -11.0919 
  46   2.0000      -0.386773       -10.5246 
  47   2.0000      -0.383074       -10.4240 
  48   2.0000      -0.359094        -9.7714 
  49   2.0000      -0.351670        -9.5694 
  50   2.0000      -0.344451        -9.3730 
  51   2.0000      -0.339911        -9.2495 
  52   2.0000      -0.332452        -9.0465 
  53   2.0000      -0.292485        -7.9589 
  54   2.0000      -0.278874        -7.5886 
  55   2.0000      -0.278846        -7.5878 
  56   2.0000      -0.263870        -7.1803 
  57   2.0000      -0.236339        -6.4311 
  58   2.0000      -0.212091        -5.7713 
  59   0.0000      -0.079673        -2.1680 
  60   0.0000      -0.023612        -0.6425 
  61   0.0000      -0.019365        -0.5270 
  62   0.0000      -0.006964        -0.1895 
  63   0.0000      -0.005762        -0.1568 
  64   0.0000       0.003555         0.0967 
  65   0.0000       0.013711         0.3731 
  66   0.0000       0.013970         0.3801 
  67   0.0000       0.016335         0.4445 
  68   0.0000       0.020250         0.5510 
  69   0.0000       0.024333         0.6621 
  70   0.0000       0.032600         0.8871 
  71   0.0000       0.037378         1.0171 
  72   0.0000       0.042641         1.1603 
  73   0.0000       0.043611         1.1867 
  74   0.0000       0.047222         1.2850 
  75   0.0000       0.050922         1.3857 
  76   0.0000       0.053775         1.4633 
  77   0.0000       0.054859         1.4928 
  78   0.0000       0.061966         1.6862 
  79   0.0000       0.067561         1.8384 
  80   0.0000       0.074239         2.0202 
  81   0.0000       0.075423         2.0524 
  82   0.0000       0.076943         2.0937 
  83   0.0000       0.081133         2.2077 
  84   0.0000       0.094861         2.5813 
  85   0.0000       0.096325         2.6211 
  86   0.0000       0.098361         2.6765 
  87   0.0000       0.098686         2.6854 
  88   0.0000       0.103391         2.8134 
  89   0.0000       0.103729         2.8226 
  90   0.0000       0.107713         2.9310 
  91   0.0000       0.113965         3.1012 
  92   0.0000       0.119981         3.2649 
  93   0.0000       0.123698         3.3660 
  94   0.0000       0.124377         3.3845 
  95   0.0000       0.127286         3.4636 
  96   0.0000       0.127651         3.4736 
  97   0.0000       0.131389         3.5753 
  98   0.0000       0.136333         3.7098 
  99   0.0000       0.138589         3.7712 
 100   0.0000       0.139938         3.8079 
 101   0.0000       0.140982         3.8363 
 102   0.0000       0.141554         3.8519 
 103   0.0000       0.145823         3.9680 
 104   0.0000       0.146545         3.9877 
 105   0.0000       0.148636         4.0446 
 106   0.0000       0.153159         4.1677 
 107   0.0000       0.158346         4.3088 
 108   0.0000       0.160757         4.3744 
 109   0.0000       0.165488         4.5032 
 110   0.0000       0.167607         4.5608 
 111   0.0000       0.167988         4.5712 
 112   0.0000       0.169661         4.6167 
 113   0.0000       0.171171         4.6578 
 114   0.0000       0.172720         4.6999 
 115   0.0000       0.178004         4.8437 
 116   0.0000       0.181721         4.9449 
 117   0.0000       0.181921         4.9503 
 118   0.0000       0.182498         4.9660 
 119   0.0000       0.190584         5.1861 
 120   0.0000       0.191818         5.2196 
 121   0.0000       0.200801         5.4641 
 122   0.0000       0.201797         5.4912 
 123   0.0000       0.202990         5.5236 
 124   0.0000       0.206409         5.6167 
 125   0.0000       0.213188         5.8011 
 126   0.0000       0.217163         5.9093 
 127   0.0000       0.218819         5.9544 
 128   0.0000       0.224973         6.1218 
 129   0.0000       0.231177         6.2907 
 130   0.0000       0.234445         6.3796 
 131   0.0000       0.239223         6.5096 
 132   0.0000       0.240702         6.5498 
 133   0.0000       0.248101         6.7512 
 134   0.0000       0.249137         6.7794 
 135   0.0000       0.249412         6.7869 
 136   0.0000       0.252903         6.8818 
 137   0.0000       0.256381         6.9765 
 138   0.0000       0.258487         7.0338 
 139   0.0000       0.261291         7.1101 
 140   0.0000       0.265978         7.2376 
 141   0.0000       0.272294         7.4095 
 142   0.0000       0.277000         7.5376 
 143   0.0000       0.281301         7.6546 
 144   0.0000       0.283039         7.7019 
 145   0.0000       0.284432         7.7398 
 146   0.0000       0.286665         7.8006 
 147   0.0000       0.288632         7.8541 
 148   0.0000       0.290922         7.9164 
 149   0.0000       0.294974         8.0266 
 150   0.0000       0.298202         8.1145 
 151   0.0000       0.306328         8.3356 
 152   0.0000       0.308458         8.3936 
 153   0.0000       0.313188         8.5223 
 154   0.0000       0.319910         8.7052 
 155   0.0000       0.323565         8.8047 
 156   0.0000       0.325823         8.8661 
 157   0.0000       0.330105         8.9826 
 158   0.0000       0.334351         9.0982 
 159   0.0000       0.335596         9.1320 
 160   0.0000       0.340959         9.2780 
 161   0.0000       0.344306         9.3690 
 162   0.0000       0.344894         9.3850 
 163   0.0000       0.352806         9.6003 
 164   0.0000       0.362867         9.8741 
 165   0.0000       0.364164         9.9094 
 166   0.0000       0.367650        10.0043 
 167   0.0000       0.369786        10.0624 
 168   0.0000       0.372785        10.1440 
 169   0.0000       0.379718        10.3326 
 170   0.0000       0.383194        10.4272 
 171   0.0000       0.389765        10.6060 
 172   0.0000       0.390985        10.6392 
 173   0.0000       0.391087        10.6420 
 174   0.0000       0.393057        10.6956 
 175   0.0000       0.399298        10.8655 
 176   0.0000       0.401276        10.9193 
 177   0.0000       0.403061        10.9678 
 178   0.0000       0.403444        10.9783 
 179   0.0000       0.406085        11.0501 
 180   0.0000       0.408658        11.1202 
 181   0.0000       0.411725        11.2036 
 182   0.0000       0.417310        11.3556 
 183   0.0000       0.419607        11.4181 
 184   0.0000       0.421022        11.4566 
 185   0.0000       0.421951        11.4819 
 186   0.0000       0.425198        11.5702 
 187   0.0000       0.432366        11.7653 
 188   0.0000       0.435496        11.8505 
 189   0.0000       0.436986        11.8910 
 190   0.0000       0.441236        12.0066 
 191   0.0000       0.443636        12.0720 
 192   0.0000       0.444057        12.0834 
 193   0.0000       0.454902        12.3785 
 194   0.0000       0.458819        12.4851 
 195   0.0000       0.459708        12.5093 
 196   0.0000       0.466059        12.6821 
 197   0.0000       0.468273        12.7424 
 198   0.0000       0.471731        12.8364 
 199   0.0000       0.476842        12.9755 
 200   0.0000       0.484649        13.1880 
 201   0.0000       0.485736        13.2175 
 202   0.0000       0.489075        13.3084 
 203   0.0000       0.493433        13.4270 
 204   0.0000       0.496171        13.5015 
 205   0.0000       0.497987        13.5509 
 206   0.0000       0.503481        13.7004 
 207   0.0000       0.506322        13.7777 
 208   0.0000       0.510006        13.8780 
 209   0.0000       0.514243        13.9933 
 210   0.0000       0.520846        14.1729 
 211   0.0000       0.528524        14.3819 
 212   0.0000       0.530073        14.4240 
 213   0.0000       0.542178        14.7534 
 214   0.0000       0.543306        14.7841 
 215   0.0000       0.555625        15.1193 
 216   0.0000       0.557609        15.1733 
 217   0.0000       0.575827        15.6691 
 218   0.0000       0.581794        15.8314 
 219   0.0000       0.582613        15.8537 
 220   0.0000       0.587939        15.9986 
 221   0.0000       0.588630        16.0174 
 222   0.0000       0.602075        16.3833 
 223   0.0000       0.609054        16.5732 
 224   0.0000       0.613935        16.7060 
 225   0.0000       0.622166        16.9300 
 226   0.0000       0.624916        17.0048 
 227   0.0000       0.629346        17.1254 
 228   0.0000       0.633455        17.2372 
 229   0.0000       0.639289        17.3959 
 230   0.0000       0.645263        17.5585 
 231   0.0000       0.646644        17.5961 
 232   0.0000       0.647368        17.6158 
 233   0.0000       0.649939        17.6857 
 234   0.0000       0.654047        17.7975 
 235   0.0000       0.663133        18.0448 
 236   0.0000       0.663354        18.0508 
 237   0.0000       0.667784        18.1713 
 238   0.0000       0.671362        18.2687 
 239   0.0000       0.679764        18.4973 
 240   0.0000       0.683751        18.6058 
 241   0.0000       0.687379        18.7045 
 242   0.0000       0.687996        18.7213 
 243   0.0000       0.694802        18.9065 
 244   0.0000       0.700212        19.0537 
 245   0.0000       0.701385        19.0857 
 246   0.0000       0.706721        19.2309 
 247   0.0000       0.710073        19.3221 
 248   0.0000       0.712483        19.3877 
 249   0.0000       0.715452        19.4684 
 250   0.0000       0.724799        19.7228 
 251   0.0000       0.730242        19.8709 
 252   0.0000       0.734099        19.9758 
 253   0.0000       0.734605        19.9896 
 254   0.0000       0.739839        20.1320 
 255   0.0000       0.748076        20.3562 
 256   0.0000       0.753235        20.4966 
 257   0.0000       0.754528        20.5317 
 258   0.0000       0.758213        20.6320 
 259   0.0000       0.760741        20.7008 
 260   0.0000       0.763047        20.7636 
 261   0.0000       0.764375        20.7997 
 262   0.0000       0.770206        20.9584 
 263   0.0000       0.772885        21.0313 
 264   0.0000       0.776241        21.1226 
 265   0.0000       0.778299        21.1786 
 266   0.0000       0.783880        21.3304 
 267   0.0000       0.789360        21.4796 
 268   0.0000       0.794739        21.6260 
 269   0.0000       0.795099        21.6357 
 270   0.0000       0.800773        21.7901 
 271   0.0000       0.805454        21.9175 
 272   0.0000       0.808806        22.0087 
 273   0.0000       0.817316        22.2403 
 274   0.0000       0.826732        22.4965 
 275   0.0000       0.830355        22.5951 
 276   0.0000       0.835774        22.7426 
 277   0.0000       0.836569        22.7642 
 278   0.0000       0.838178        22.8080 
 279   0.0000       0.844597        22.9827 
 280   0.0000       0.847212        23.0538 
 281   0.0000       0.850695        23.1486 
 282   0.0000       0.862036        23.4572 
 283   0.0000       0.871207        23.7067 
 284   0.0000       0.873866        23.7791 
 285   0.0000       0.876001        23.8372 
 286   0.0000       0.879185        23.9238 
 287   0.0000       0.883360        24.0375 
 288   0.0000       0.884848        24.0779 
 289   0.0000       0.885425        24.0936 
 290   0.0000       0.892473        24.2854 
 291   0.0000       0.898237        24.4423 
 292   0.0000       0.899785        24.4844 
 293   0.0000       0.906135        24.6572 
 294   0.0000       0.912409        24.8279 
 295   0.0000       0.922352        25.0985 
 296   0.0000       0.924678        25.1618 
 297   0.0000       0.927374        25.2351 
 298   0.0000       0.929346        25.2888 
 299   0.0000       0.932519        25.3751 
 300   0.0000       0.936905        25.4945 
 301   0.0000       0.938565        25.5396 
 302   0.0000       0.949435        25.8354 
 303   0.0000       0.954417        25.9710 
 304   0.0000       0.957766        26.0621 
 305   0.0000       0.964374        26.2420 
 306   0.0000       0.968111        26.3436 
 307   0.0000       0.978155        26.6170 
[...]
Orbital Orthonormalization  ....       0.450 sec  (  0.2%)
DIIS solution               ....       0.161 sec  (  0.1%)
SOSCF solution              ....       0.379 sec  (  0.2%)
Grid generation             ....       6.889 sec  (  3.2%)

Maximum memory used throughout the entire SCF-calculation: 208.4 MB


           ************************************************************
           *        Program running with 4 parallel MPI-processes     *
           *              working on a common directory               *
           ************************************************************
------------------------------------------------------------------------------
                        ORCA TD-DFT/TDA CALCULATION
------------------------------------------------------------------------------

Input orbitals are from        ... b3lyp-train-4_job2.gbw
CI-vector output               ... b3lyp-train-4_job2.cis
Tamm-Dancoff approximation     ... operative
CIS-Integral strategy          ... AO-integrals
Integral handling              ... AO integral Direct
Max. core memory used          ... 4000 MB
Reference state                ... RHF
Generation of triplets         ... off
Follow IRoot                   ... off
Number of operators            ... 1
Orbital ranges used for CIS calculation:
 Operator 0:  Orbitals  23... 58  to  59...823
XAS localization array:
 Operator 0:  Orbitals  -1... -1

-------------------
XC-INTEGRATION GRID
-------------------

General Integration Accuracy     IntAcc      ... 3.467
Radial Grid Type                 RadialGrid  ... OptM3 with GC (2021)
Angular Grid (max. ang.)         AngularGrid ... 1 (Lebedev-50)
Angular grid pruning method      GridPruning ... 4 (adaptive)
Weight generation scheme         WeightScheme... Becke
Basis function cutoff            BFCut       ... 1.0000e-11
Integration weight cutoff        WCut        ... 1.0000e-14
Angular grids for H and He will be reduced by one unit
Partially contracted basis set               ... off
Rotationally invariant grid construction     ... off

Total number of grid points                  ...    18837
Total number of batches                      ...      305
Average number of points per batch           ...       61
Average number of grid points per atom       ...      785

---------------------
COSX-INTEGRATION GRID
---------------------

General Integration Accuracy     IntAcc      ... 3.067
Radial Grid Type                 RadialGrid  ... OptM3 with GC (2021)
Angular Grid (max. ang.)         AngularGrid ... 1 (Lebedev-50)
Angular grid pruning method      GridPruning ... 4 (adaptive)
Weight generation scheme         WeightScheme... Becke
Basis function cutoff            BFCut       ... 1.0000e-11
Integration weight cutoff        WCut        ... 1.0000e-14
Angular grids for H and He will be reduced by one unit
Partially contracted basis set               ... on
Rotationally invariant grid construction     ... off

Total number of grid points                  ...     8531
Total number of batches                      ...      145
Average number of points per batch           ...       58
Average number of grid points per atom       ...      355

---------------
TD-DFT XC SETUP
---------------

DFT calculation                         ... on
Name of the grid file                   ... b3lyp-train-4_job2.grid_cis.tmp
Exchange functional (TD-DFT)            ... B88
   X-Alpha parameter    XAlpha (TD-DFT) ...  0.666667
   Becke's b parameter  XBeta (TD-DFT)  ...  0.004200
Correlation functional (TD-DFT)         ... LYP
 LDA part of GGA corr.  LDAOpt (TD-DFT) ... VWN-5
Hybrid DFT                              ... on
   Exchange mixing (TD-DFT)             ...  0.200
   GGA exch. scaling (TD-DFT)           ...  0.720
   GGA corr. scaling (TD-DFT)           ...  0.810

Building densities             ... done
Calculating rho(r) on the grid ... done
Building xc-kernel on the grid ... done
                    *** TD-DFT CALCULATION INITIALIZED ***

---------------------------------
    LR-CPCM (non-equilibrium)
---------------------------------

Setting up LR-CPCM             ... done

------------------------
DAVIDSON-DIAGONALIZATION
------------------------

Dimension of the eigenvalue problem            ...  27540
Number of roots to be determined               ...     10
Maximum size of the expansion space            ...     70
Maximum number of iterations                   ...    100
Convergence tolerance for the residual         ...    1.000e-06
Convergence tolerance for the energies         ...    1.000e-06
Orthogonality tolerance                        ...    1.000e-14
Level Shift                                    ...    0.000e+00
Constructing the preconditioner                ... o.k.
Building the initial guess                     ... o.k.
Number of trial vectors determined             ...     70


                       ****Iteration    0****

   Memory handling for direct AO based CIS:
   Memory per vector needed      ...    31 MB
   Memory needed                 ...   932 MB
   Memory available              ...  4000 MB
   Number of vectors per batch   ...   128
   Number of batches             ...     1
   Time for densities:            0.420
   Time for RI-J (Direct):       14.883
   Time for K (COSX):            74.544
   Time for XC-Integration:      38.474
   Time for LR-CPCM terms:       19.403
   Time for Sigma-Completion:     0.247
   Size of expansion space: 30
   Lowest Energy          :     0.146753699834
   Maximum Energy change  :     0.193849677832 (vector 9)
   Maximum residual norm  :     0.010453133876

                       ****Iteration    1****
   Time for densities:            0.130
   Time for RI-J (Direct):        9.890
   Time for K (COSX):            27.885
   Time for XC-Integration:      14.902
   Time for LR-CPCM terms:        9.779
   Time for Sigma-Completion:     0.083
   Size of expansion space: 40
   Lowest Energy          :     0.132819060112
   Maximum Energy change  :     0.013934639722 (vector 0)
   Maximum residual norm  :     0.000598333125

                       ****Iteration    2****
   Time for densities:            0.108
   Time for RI-J (Direct):        9.909
   Time for K (COSX):            27.307
   Time for XC-Integration:      13.504
   Time for LR-CPCM terms:        8.528
   Time for Sigma-Completion:     0.091
   Size of expansion space: 50
   Lowest Energy          :     0.132399978534
   Maximum Energy change  :     0.001913674143 (vector 9)
   Maximum residual norm  :     0.000082148727

                       ****Iteration    3****
   Time for densities:            0.130
   Time for RI-J (Direct):       10.232
   Time for K (COSX):            28.559
   Time for XC-Integration:      13.958
   Time for LR-CPCM terms:        8.678
   Time for Sigma-Completion:     0.142
   Size of expansion space: 60
   Lowest Energy          :     0.132374694862
   Maximum Energy change  :     0.000116748921 (vector 9)
   Maximum residual norm  :     0.000005260695

                       ****Iteration    4****
   Time for densities:            0.110
   Time for RI-J (Direct):       10.157
   Time for K (COSX):            27.390
   Time for XC-Integration:      13.673
   Time for LR-CPCM terms:        8.639
   Time for Sigma-Completion:     0.083
   Size of expansion space: 70
   Lowest Energy          :     0.132373627150
   Maximum Energy change  :     0.000011324493 (vector 9)
   Maximum residual norm  :     0.000000621577

      *** CONVERGENCE OF RESIDUAL NORM REACHED ***

Storing the converged CI vectors               ... b3lyp-train-4_job2.cis1

                 *** DAVIDSON DONE ***

Total time for solving the CIS problem:   393.257sec

------------------------------------
TD-DFT/TDA EXCITED STATES (SINGLETS)
------------------------------------

the weight of the individual excitations are printed if larger than 1.0e-02

STATE  1:  E=   0.132374 au      3.602 eV    29052.7 cm**-1 <S**2> =   0.000000
    58a ->  59a  :     0.928568 (c=  0.96362245)

STATE  2:  E=   0.144385 au      3.929 eV    31688.8 cm**-1 <S**2> =   0.000000
    57a ->  59a  :     0.923114 (c= -0.96078834)
    58a ->  60a  :     0.018430 (c=  0.13575734)
    58a ->  62a  :     0.019358 (c= -0.13913391)

STATE  3:  E=   0.158923 au      4.325 eV    34879.5 cm**-1 <S**2> =   0.000000
    56a ->  59a  :     0.512805 (c= -0.71610399)
    57a ->  60a  :     0.013235 (c=  0.11504460)
    58a ->  60a  :     0.403078 (c=  0.63488396)
    58a ->  61a  :     0.029900 (c= -0.17291729)
    58a ->  62a  :     0.013684 (c=  0.11697799)

STATE  4:  E=   0.166620 au      4.534 eV    36568.9 cm**-1 <S**2> =   0.000000
    54a ->  59a  :     0.111954 (c= -0.33459461)
    55a ->  59a  :     0.108717 (c=  0.32972223)
    56a ->  59a  :     0.263927 (c=  0.51373823)
    57a ->  60a  :     0.024978 (c= -0.15804317)
    58a ->  60a  :     0.386036 (c=  0.62131819)
    58a ->  61a  :     0.011483 (c=  0.10716058)
    58a ->  63a  :     0.034176 (c= -0.18486806)

STATE  5:  E=   0.169176 au      4.604 eV    37129.9 cm**-1 <S**2> =   0.000000
    53a ->  59a  :     0.031763 (c=  0.17822243)
    56a ->  59a  :     0.035183 (c= -0.18757143)
    57a ->  62a  :     0.030559 (c=  0.17481190)
    58a ->  61a  :     0.823239 (c=  0.90732519)
    58a ->  62a  :     0.018675 (c= -0.13665785)
    58a ->  63a  :     0.018044 (c=  0.13432959)

STATE  6:  E=   0.169960 au      4.625 eV    37301.9 cm**-1 <S**2> =   0.000000
    54a ->  59a  :     0.425191 (c= -0.65206638)
    55a ->  59a  :     0.296605 (c=  0.54461433)
    56a ->  59a  :     0.065155 (c= -0.25525529)
    57a ->  60a  :     0.013287 (c=  0.11527068)
    58a ->  60a  :     0.091790 (c= -0.30296822)
    58a ->  62a  :     0.027089 (c= -0.16458601)
    58a ->  63a  :     0.043633 (c=  0.20888494)

STATE  7:  E=   0.173152 au      4.712 eV    38002.5 cm**-1 <S**2> =   0.000000
    54a ->  59a  :     0.261431 (c=  0.51130288)
    55a ->  59a  :     0.150420 (c=  0.38783965)
    57a ->  61a  :     0.019361 (c=  0.13914509)
    58a ->  61a  :     0.036067 (c= -0.18991425)
    58a ->  62a  :     0.491174 (c= -0.70083790)

STATE  8:  E=   0.184089 au      5.009 eV    40403.0 cm**-1 <S**2> =   0.000000
    53a ->  59a  :     0.026405 (c= -0.16249721)
    54a ->  59a  :     0.083052 (c= -0.28818778)
    55a ->  59a  :     0.263375 (c= -0.51320107)
    56a ->  59a  :     0.011181 (c=  0.10574092)
    57a ->  60a  :     0.049930 (c=  0.22345004)
    57a ->  61a  :     0.058333 (c=  0.24152197)
    57a ->  62a  :     0.020290 (c=  0.14244247)
    57a ->  63a  :     0.010726 (c= -0.10356631)
    58a ->  60a  :     0.030245 (c=  0.17391193)
    58a ->  62a  :     0.136796 (c= -0.36985999)
    58a ->  63a  :     0.100390 (c=  0.31684360)
    58a ->  64a  :     0.132872 (c= -0.36451640)
    58a ->  66a  :     0.018571 (c=  0.13627649)

STATE  9:  E=   0.185733 au      5.054 eV    40763.7 cm**-1 <S**2> =   0.000000
    53a ->  59a  :     0.126512 (c= -0.35568512)
    54a ->  59a  :     0.018511 (c= -0.13605428)
    56a ->  59a  :     0.025642 (c= -0.16013235)
    57a ->  61a  :     0.018797 (c=  0.13710094)
    57a ->  62a  :     0.017185 (c=  0.13109156)
    58a ->  60a  :     0.024473 (c= -0.15643834)
    58a ->  61a  :     0.012806 (c=  0.11316201)
    58a ->  62a  :     0.030344 (c= -0.17419498)
    58a ->  63a  :     0.602163 (c= -0.77599138)
    58a ->  64a  :     0.022008 (c= -0.14835113)
    58a ->  65a  :     0.024645 (c=  0.15698876)
    58a ->  66a  :     0.030038 (c= -0.17331365)

STATE 10:  E=   0.189697 au      5.162 eV    41633.8 cm**-1 <S**2> =   0.000000
    53a ->  59a  :     0.104169 (c=  0.32275241)
    56a ->  59a  :     0.015972 (c=  0.12637887)
    57a ->  60a  :     0.550947 (c=  0.74225779)
    57a ->  61a  :     0.031194 (c= -0.17661836)
    57a ->  63a  :     0.040047 (c= -0.20011815)
    58a ->  63a  :     0.030501 (c= -0.17464479)
    58a ->  64a  :     0.144593 (c=  0.38025351)


-----------------------------
TD-DFT/TDA-EXCITATION SPECTRA
-----------------------------

Center of mass = (  0.2804,  0.0013, -0.0075)
Calculating the Dipole integrals                  ... done
Transforming integrals                            ... done
Calculating the Linear Momentum integrals         ... done
Transforming integrals                            ... done
Calculating angular momentum integrals            ... done
Transforming integrals                            ... done

-----------------------------------------------------------------------------
         ABSORPTION SPECTRUM VIA TRANSITION ELECTRIC DIPOLE MOMENTS
-----------------------------------------------------------------------------
State   Energy    Wavelength  fosc         T2        TX        TY        TZ  
        (cm-1)      (nm)                 (au**2)    (au)      (au)      (au) 
-----------------------------------------------------------------------------
   1   29052.7    344.2   0.462212943   5.23759  -2.20097   0.25641  -0.57234
   2   31688.8    315.6   0.322771483   3.35324   1.72450   0.37172  -0.49110
   3   34879.5    286.7   0.015725650   0.14843  -0.26051  -0.25654   0.12146
   4   36568.9    273.5   0.055273525   0.49760  -0.64851   0.26541   0.08121
   5   37129.9    269.3   0.019986702   0.17721  -0.25461  -0.26166   0.20957
   6   37301.9    268.1   0.003857487   0.03404   0.08718   0.04704   0.15566
   7   38002.5    263.1   0.102542240   0.88831  -0.92675  -0.15095   0.08165
   8   40403.0    247.5   0.055344540   0.45096  -0.58509  -0.09173   0.31658
   9   40763.7    245.3   0.030845454   0.24911  -0.25288  -0.28435   0.32297
  10   41633.8    240.2   0.019419098   0.15355   0.35673   0.16189  -0.00934

-----------------------------------------------------------------------------
         ABSORPTION SPECTRUM VIA TRANSITION VELOCITY DIPOLE MOMENTS
-----------------------------------------------------------------------------
State   Energy    Wavelength   fosc        P2         PX        PY        PZ  
        (cm-1)      (nm)                 (au**2)     (au)      (au)      (au) 
-----------------------------------------------------------------------------
   1   29052.7    344.2   0.105843306   0.02102   0.12000   0.04751  -0.06602
   2   31688.8    315.6   0.111812934   0.02422  -0.15483   0.00271  -0.01541
   3   34879.5    286.7   0.003520489   0.00084   0.02876  -0.00244   0.00243
   4   36568.9    273.5   0.015632650   0.00391   0.06153   0.01086  -0.00174
   5   37129.9    269.3   0.005107068   0.00130   0.02948  -0.00987   0.01815
   6   37301.9    268.1   0.000162145   0.00004  -0.00612   0.00192   0.00041
   7   38002.5    263.1   0.037803154   0.00982   0.09730   0.01386  -0.01265
   8   40403.0    247.5   0.013743228   0.00379   0.05609   0.01814  -0.01789
   9   40763.7    245.3   0.004864084   0.00136   0.02908  -0.01157  -0.01938
  10   41633.8    240.2   0.006999226   0.00199  -0.04453  -0.00299  -0.00003

-------------------------------------------------------------------
                             CD SPECTRUM
-------------------------------------------------------------------
State  Energy     Wavelength     R         MX        MY        MZ   
       (cm-1)       (nm)     (1e40*cgs)   (au)      (au)      (au)  
-------------------------------------------------------------------
   1   29052.7    344.2     37.39898  -0.03619  -0.15944  -0.07086
   2   31688.8    315.6     45.71325   0.05396   0.01988   0.00709
   3   34879.5    286.7      1.21477   0.03417  -0.06269  -0.03790
   4   36568.9    273.5     41.47396  -0.23058  -0.18385  -0.15723
   5   37129.9    269.3      5.65980   0.03600  -0.12191  -0.05119
   6   37301.9    268.1     -3.79238  -0.34668   0.10471   0.11084
   7   38002.5    263.1    -43.06755   0.08936   0.08754   0.05732
   8   40403.0    247.5    -35.02289   0.05054  -0.12549  -0.17762
   9   40763.7    245.3     26.36204  -0.15932   0.12077   0.15472
  10   41633.8    240.2    -21.45416  -0.00857  -0.27102  -0.15241

-------------------------------------------------------------------
         CD SPECTRUM VIA TRANSITION VELOCITY DIPOLE MOMENTS        
-------------------------------------------------------------------
State  Energy     Wavelength     R         MX        MY        MZ   
       (cm-1)       (nm)     (1e40*cgs)   (au)      (au)      (au)  
-------------------------------------------------------------------
   1   29052.7    344.2    -25.78288  -0.03619  -0.15944  -0.07086
   2   31688.8    315.6    -27.46014   0.05396   0.01988   0.00709
   3   34879.5    286.7      3.09742   0.03417  -0.06269  -0.03790
   4   36568.9    273.5    -45.02015  -0.23058  -0.18385  -0.15723
   5   37129.9    269.3      3.72171   0.03600  -0.12191  -0.05119
   6   37301.9    268.1      6.57209  -0.34668   0.10471   0.11084
   7   38002.5    263.1     25.00232   0.08936   0.08754   0.05732
   8   40403.0    247.5      9.56621   0.05054  -0.12549  -0.17762
   9   40763.7    245.3    -22.91746  -0.15932   0.12077   0.15472
  10   41633.8    240.2      2.97552  -0.00857  -0.27102  -0.15241

Total run time:      397.911 sec

           *** ORCA-CIS/TD-DFT FINISHED WITHOUT ERROR ***

Maximum memory used throughout the entire CIS-calculation: 904.6 MB

-----------------------
CIS/TD-DFT TOTAL ENERGY
-----------------------

    E(SCF)  =  -1240.165753229 Eh
    DE(CIS) =      0.132373627 Eh (Root  1)
    ----------------------------- ---------
    E(tot)  =  -1240.033379602 Eh


-------------------------   --------------------
FINAL SINGLE POINT ENERGY     -1240.033379602101
-------------------------   --------------------


                            ***************************************
                            *     ORCA property calculations      *
                            ***************************************

                                    ---------------------
                                    Active property flags
                                    ---------------------
   (+) Dipole Moment


------------------------------------------------------------------------------
                       ORCA ELECTRIC PROPERTIES CALCULATION
------------------------------------------------------------------------------

Dipole Moment Calculation                       ... on
Quadrupole Moment Calculation                   ... off
Polarizability Calculation                      ... off
GBWName                                         ... b3lyp-train-4_job2.gbw
Electron density                                ... b3lyp-train-4_job2.scfp
The origin for moment calculation is the CENTER OF MASS  = ( 0.280401,  0.001303 -0.007543)

-------------
DIPOLE MOMENT
-------------
                                X             Y             Z
Electronic contribution:      2.96786      -0.45692       0.76202
Nuclear contribution   :     -2.90763       0.74047      -1.18797
                        -----------------------------------------
Total Dipole Moment    :      0.06023       0.28355      -0.42595
                        -----------------------------------------
Magnitude (a.u.)       :      0.51523
Magnitude (Debye)      :      1.30960



--------------------
Rotational spectrum 
--------------------
 
Rotational constants in cm-1:     0.053976     0.008874     0.007744 
Rotational constants in MHz :  1618.170828   266.034839   232.151816 

 Dipole components along the rotational axes: 
x,y,z [a.u.] :    -0.129992    -0.493247    -0.072587 
x,y,z [Debye]:    -0.330412    -1.253734    -0.184502 

 

Timings for individual modules:

Sum of individual times         ...      616.338 sec (=  10.272 min)
GTO integral calculation        ...        3.936 sec (=   0.066 min)   0.6 %
SCF iterations                  ...      213.639 sec (=   3.561 min)  34.7 %
CIS module                      ...      398.763 sec (=   6.646 min)  64.7 %



                             ****ORCA TERMINATED NORMALLY****
TOTAL RUN TIME: 0 days 3 hours 51 minutes 32 seconds 917 msec
