
                                 *****************
                                 * O   R   C   A *
                                 *****************

                                            #,                                       
                                            ###                                      
                                            ####                                     
                                            #####                                    
                                            ######                                   
                                           ########,                                 
                                     ,,################,,,,,                         
                               ,,#################################,,                 
                          ,,##########################################,,             
                       ,#########################################, ''#####,          
                    ,#############################################,,   '####,        
                  ,##################################################,,,,####,       
                ,###########''''           ''''###############################       
              ,#####''   ,,,,##########,,,,          '''####'''          '####       
            ,##' ,,,,###########################,,,                        '##       
           ' ,,###''''                  '''############,,,                           
         ,,##''                                '''############,,,,        ,,,,,,###''
      ,#''                                            '''#######################'''  
     '                                                          ''''####''''         
             ,#######,   #######,   ,#######,      ##                                
            ,#'     '#,  ##    ##  ,#'     '#,    #''#        ######   ,####,        
            ##       ##  ##   ,#'  ##            #'  '#       #        #'  '#        
            ##       ##  #######   ##           ,######,      #####,   #    #        
            '#,     ,#'  ##    ##  '#,     ,#' ,#      #,         ##   #,  ,#        
             '#######'   ##     ##  '#######'  #'      '#     #####' # '####'        



                  #######################################################
                  #                        -***-                        #
                  #          Department of theory and spectroscopy      #
                  #    Directorship and core code : Frank Neese         #
                  #        Max Planck Institute fuer Kohlenforschung    #
                  #                Kaiser Wilhelm Platz 1               #
                  #                 D-45470 Muelheim/Ruhr               #
                  #                      Germany                        #
                  #                                                     #
                  #                  All rights reserved                #
                  #                        -***-                        #
                  #######################################################


                         Program Version 5.0.2 -  RELEASE  -


 With contributions from (in alphabetic order):
   Daniel Aravena         : Magnetic Suceptibility
   Michael Atanasov       : Ab Initio Ligand Field Theory (pilot matlab implementation)
   Alexander A. Auer      : GIAO ZORA, VPT2 properties, NMR spectrum
   Ute Becker             : Parallelization
   Giovanni Bistoni       : ED, misc. LED, open-shell LED, HFLD
   Martin Brehm           : Molecular dynamics
   Dmytro Bykov           : SCF Hessian
   Vijay G. Chilkuri      : MRCI spin determinant printing, contributions to CSF-ICE
   Dipayan Datta          : RHF DLPNO-CCSD density
   Achintya Kumar Dutta   : EOM-CC, STEOM-CC
   Dmitry Ganyushin       : Spin-Orbit,Spin-Spin,Magnetic field MRCI
   Miquel Garcia          : C-PCM and meta-GGA Hessian, CC/C-PCM, Gaussian charge scheme
   Yang Guo               : DLPNO-NEVPT2, F12-NEVPT2, CIM, IAO-localization
   Andreas Hansen         : Spin unrestricted coupled pair/coupled cluster methods
   Benjamin Helmich-Paris : MC-RPA, TRAH-SCF, COSX integrals
   Lee Huntington         : MR-EOM, pCC
   Robert Izsak           : Overlap fitted RIJCOSX, COSX-SCS-MP3, EOM
   Marcus Kettner         : VPT2
   Christian Kollmar      : KDIIS, OOCD, Brueckner-CCSD(T), CCSD density, CASPT2, CASPT2-K
   Simone Kossmann        : Meta GGA functionals, TD-DFT gradient, OOMP2, MP2 Hessian
   Martin Krupicka        : Initial AUTO-CI
   Lucas Lang             : DCDCAS
   Marvin Lechner         : AUTO-CI (C++ implementation), FIC-MRCC
   Dagmar Lenk            : GEPOL surface, SMD
   Dimitrios Liakos       : Extrapolation schemes; Compound Job, initial MDCI parallelization
   Dimitrios Manganas     : Further ROCIS development; embedding schemes
   Dimitrios Pantazis     : SARC Basis sets
   Anastasios Papadopoulos: AUTO-CI, single reference methods and gradients
   Taras Petrenko         : DFT Hessian,TD-DFT gradient, ASA, ECA, R-Raman, ABS, FL, XAS/XES, NRVS
   Peter Pinski           : DLPNO-MP2, DLPNO-MP2 Gradient
   Christoph Reimann      : Effective Core Potentials
   Marius Retegan         : Local ZFS, SOC
   Christoph Riplinger    : Optimizer, TS searches, QM/MM, DLPNO-CCSD(T), (RO)-DLPNO pert. Triples
   Tobias Risthaus        : Range-separated hybrids, TD-DFT gradient, RPA, STAB
   Michael Roemelt        : Original ROCIS implementation
   Masaaki Saitow         : Open-shell DLPNO-CCSD energy and density
   Barbara Sandhoefer     : DKH picture change effects
   Avijit Sen             : IP-ROCIS
   Kantharuban Sivalingam : CASSCF convergence, NEVPT2, FIC-MRCI
   Bernardo de Souza      : ESD, SOC TD-DFT
   Georgi Stoychev        : AutoAux, RI-MP2 NMR, DLPNO-MP2 response
   Willem Van den Heuvel  : Paramagnetic NMR
   Boris Wezisla          : Elementary symmetry handling
   Frank Wennmohs         : Technical directorship


 We gratefully acknowledge several colleagues who have allowed us to
 interface, adapt or use parts of their codes:
   Stefan Grimme, W. Hujo, H. Kruse, P. Pracht,  : VdW corrections, initial TS optimization,
                  C. Bannwarth, S. Ehlert          DFT functionals, gCP, sTDA/sTD-DF
   Ed Valeev, F. Pavosevic, A. Kumar             : LibInt (2-el integral package), F12 methods
   Garnet Chan, S. Sharma, J. Yang, R. Olivares  : DMRG
   Ulf Ekstrom                                   : XCFun DFT Library
   Mihaly Kallay                                 : mrcc  (arbitrary order and MRCC methods)
   Jiri Pittner, Ondrej Demel                    : Mk-CCSD
   Frank Weinhold                                : gennbo (NPA and NBO analysis)
   Christopher J. Cramer and Donald G. Truhlar   : smd solvation model
   Lars Goerigk                                  : TD-DFT with DH, B97 family of functionals
   V. Asgeirsson, H. Jonsson                     : NEB implementation
   FAccTs GmbH                                   : IRC, NEB, NEB-TS, DLPNO-Multilevel, CI-OPT
                                                   MM, QMMM, 2- and 3-layer-ONIOM, Crystal-QMMM,
                                                   LR-CPCM, SF, NACMEs, symmetry and pop. for TD-DFT,
                                                   nearIR, NL-DFT gradient (VV10), updates on ESD,
                                                   ML-optimized integration grids
   S Lehtola, MJT Oliveira, MAL Marques          : LibXC Library
   Liviu Ungur et al                             : ANISO software


 Your calculation uses the libint2 library for the computation of 2-el integrals
 For citations please refer to: http://libint.valeyev.net

 Your ORCA version has been built with support for libXC version: 5.1.0
 For citations please refer to: https://tddft.org/programs/libxc/

 This ORCA versions uses:
   CBLAS   interface :  Fast vector & matrix operations
   LAPACKE interface :  Fast linear algebra routines
   SCALAPACK package :  Parallel linear algebra routines
   Shared memory     :  Shared parallel matrices
   BLAS/LAPACK       :  OpenBLAS 0.3.15  USE64BITINT DYNAMIC_ARCH NO_AFFINITY Sandybridge SINGLE_THREADED
        Core in use  :  Sandybridge
   Copyright (c) 2011-2014, The OpenBLAS Project


Your calculation utilizes the SMD solvation module
Please cite in your paper:
A.V. Marenich, C.J. Cramer, D.G. Truhlar J. Phys. Chem. B, 113, (2009), 6378 

XCFun DFT library Copyright 2009-2010 Ulf Ekstrom and contributors.
See http://admol.org/xcfun for more information.
This is free software; see the source code for copying conditions.
There is ABSOLUTELY NO WARRANTY; not even for MERCHANTABILITY or FITNESS FOR A PARTICULAR PURPOSE.
For details see the documentation.
Scientific users of this library should cite U. Ekstrom, L. Visscher, R. Bast, A. J. Thorvaldsen and K. Ruud;
J.Chem.Theor.Comp. 2010, DOI: 10.1021/ct100117s
XCFun Version 0.99 

================================================================================

----- Orbital basis set information -----
Your calculation utilizes the basis: aug-cc-pVTZ 
    H, B-Ne : Obtained from the ccRepo (grant-hill.group.shef.ac.uk/ccrepo) Feb. 2017
              R. A. Kendall, T. H. Dunning, Jr., R. J. Harrison, J. Chem. Phys. 96, 6796 (1992)
         He : Obtained from the ccRepo (grant-hill.group.shef.ac.uk/ccrepo) Feb. 2017
              D. E. Woon, T. H. Dunning, Jr., J. Chem. Phys. 100, 2975 (1994)
  Li-Be, Na : Obtained from the ccRepo (grant-hill.group.shef.ac.uk/ccrepo) Feb. 2017
              B. P. Prascher, D. E. Woon, K. A. Peterson, T. H. Dunning, Jr., A. K. Wilson, Theor. Chem. Acc. 128, 69 (2011)
         Mg : Obtained from the Peterson Research Group Website (tyr0.chem.wsu.edu/~kipeters) Feb. 2017
              B. P. Prascher, D. E. Woon, K. A. Peterson, T. H. Dunning, Jr., A. K. Wilson, Theor. Chem. Acc. 128, 69 (2011)
      Al-Ar : Obtained from the ccRepo (grant-hill.group.shef.ac.uk/ccrepo) Feb. 2017
              D. E. Woon, T. H. Dunning, Jr., J. Chem. Phys. 98, 1358 (1993)
      Sc-Zn : Obtained from the ccRepo (grant-hill.group.shef.ac.uk/ccrepo) Feb. 2017
              N. B. Balabanov, K. A. Peterson, J. Chem. Phys. 123, 064107 (2005)
              N. B. Balabanov, K. A. Peterson, J. Chem. Phys. 125, 074110 (2006)
      Ga-Kr : Obtained from the ccRepo (grant-hill.group.shef.ac.uk/ccrepo) Feb. 2017
              A. K. Wilson, D. E. Woon, K. A. Peterson, T. H. Dunning, Jr., J. Chem. Phys. 110, 7667 (1999)
     Ag, Au : Obtained from the Peterson Research Group Website (tyr0.chem.wsu.edu/~kipeters) Feb. 2017
              K. A. Peterson, C. Puzzarini, Theor. Chem. Acc. 114, 283 (2005)

The basis set includes element-specific modifications.

Your calculation utilizes the basis: cc-pVTZ 
       H, B-Ne : Obtained from the ccRepo (grant-hill.group.shef.ac.uk/ccrepo) Feb. 2017
                 T. H. Dunning, Jr., J. Chem. Phys. 90, 1007 (1989)
            He : Obtained from the ccRepo (grant-hill.group.shef.ac.uk/ccrepo) Feb. 2017
                 D. E. Woon, T. H. Dunning, Jr., J. Chem. Phys. 100, 2975 (1994)
  Li-Be, Na-Mg : Obtained from the ccRepo (grant-hill.group.shef.ac.uk/ccrepo) Feb. 2017
                 B. P. Prascher, D. E. Woon, K. A. Peterson, T. H. Dunning, Jr., A. K. Wilson, Theor. Chem. Acc. 128, 69 (2011)
         Al-Ar : Obtained from the ccRepo (grant-hill.group.shef.ac.uk/ccrepo) Feb. 2017
                 D. E. Woon, T. H. Dunning, Jr., J. Chem. Phys. 98, 1358 (1993)
            Ca : Obtained from the Peterson Research Group Website (tyr0.chem.wsu.edu/~kipeters) Feb. 2017
                 J. Koput, K. A. Peterson, J. Phys. Chem. 106, 9595 (2002)
         Sc-Zn : Obtained from the ccRepo (grant-hill.group.shef.ac.uk/ccrepo) Feb. 2017
                 N. B. Balabanov, K. A. Peterson, J. Chem. Phys. 123, 064107 (2005)
                 N. B. Balabanov, K. A. Peterson, J. Chem. Phys. 125, 074110 (2006)
         Ga-Kr : Obtained from the ccRepo (grant-hill.group.shef.ac.uk/ccrepo) Feb. 2017
                 A. K. Wilson, D. E. Woon, K. A. Peterson, T. H. Dunning, Jr., J. Chem. Phys. 110, 7667 (1999)
             Y : Obtained from the ccRepo (grant-hill.group.shef.ac.uk/ccrepo) Feb. 2017
                 K. A. Peterson, D. Figgen, M. Dolg, H. Stoll, J. Chem. Phys. 126, 124101 (2007)
        Ag, Au : Obtained from the Peterson Research Group Website (tyr0.chem.wsu.edu/~kipeters) Feb. 2017
                 K. A. Peterson, C. Puzzarini, Theor. Chem. Acc. 114, 283 (2005)

----- AuxJ basis set information -----
Your calculation utilizes the auxiliary basis: aug-cc-pVTZ/JK 
  H, B-F, Al-Cl, Ga-Br : Obtained from the TURBOMOLE 7.0 basis set library

The basis set includes element-specific modifications.

Your calculation utilizes the auxiliary basis: cc-pVTZ/JK 
  H, B-F, Al-Cl, Ga-Br : Obtained from the TURBOMOLE 7.0 basis set library

----- AuxC basis set information -----
Your calculation utilizes the auxiliary basis: aug-cc-pVTZ/C 
  H-He, B-F, Al-Ar, Ga-Kr : Obtained from the EMSL Basis Set Exchange (bse.pnl.gov) Feb. 2017
                            F. Weigend, A. Kohn, C. Hattig, J. Chem. Phys. 116, 3175 (2002)
                   Be, Mg : Obtained from the TURBOMOLE 7.0 basis set library
                            C. Haettig, Phys. Chem. Chem. Phys. 7, 59 (2005)
                       Ne : Obtained from the EMSL Basis Set Exchange (bse.pnl.gov) Feb. 2017
                            C. Haettig, Phys. Chem. Chem. Phys. 7, 59 (2005)
                            F. Weigend, A. Kohn, C. Hattig, J. Chem. Phys. 116, 3175 (2002)
                    Sc-Zn : Obtained from the EMSL Basis Set Exchange (bse.pnl.gov) Feb. 2017
                            J. G. Hill, J. A. Platts, J. Chem. Phys. 128, 044104 (2008)

The basis set includes element-specific modifications.

Your calculation utilizes the auxiliary basis: cc-pVTZ/C 
  Obtained from the EMSL Basis Set Exchange (bse.pnl.gov) Feb. 2017
  H-He, B-F, Al-Ar, Ga-Kr : F. Weigend, A. Kohn, C. Hattig, J. Chem. Phys. 116, 3175 (2002)
             Li-Be, Na-Mg : C. Haettig, Phys. Chem. Chem. Phys. 7, 59 (2005)
                       Ne : C. Haettig, Phys. Chem. Chem. Phys. 7, 59 (2005)
                            F. Weigend, A. Kohn, C. Hattig, J. Chem. Phys. 116, 3175 (2002)
                    Sc-Zn : J. G. Hill, J. A. Platts, J. Chem. Phys. 128, 044104 (2008)

================================================================================
                                        WARNINGS
                       Please study these warnings very carefully!
================================================================================


WARNING: Geometry Optimization
  ===> : Switching off AutoStart
         For restart on a previous wavefunction, please use MOREAD

INFO   : the flag for use of the SHARK integral package has been found!



***************************************
The coordinates will be read from file: 
***************************************


Your calculation utilizes the SMD solvation module
Please cite in your paper:
A.V. Marenich, C.J. Cramer, D.G. Truhlar J. Phys. Chem. B, 113, (2009), 6378 

XCFun DFT library Copyright 2009-2010 Ulf Ekstrom and contributors.
See http://admol.org/xcfun for more information.
This is free software; see the source code for copying conditions.
There is ABSOLUTELY NO WARRANTY; not even for MERCHANTABILITY or FITNESS FOR A PARTICULAR PURPOSE.
For details see the documentation.
Scientific users of this library should cite U. Ekstrom, L. Visscher, R. Bast, A. J. Thorvaldsen and K. Ruud;
J.Chem.Theor.Comp. 2010, DOI: 10.1021/ct100117s
XCFun Version 0.99 

================================================================================

----- Orbital basis set information -----
Your calculation utilizes the basis: aug-cc-pVTZ 
    H, B-Ne : Obtained from the ccRepo (grant-hill.group.shef.ac.uk/ccrepo) Feb. 2017
              R. A. Kendall, T. H. Dunning, Jr., R. J. Harrison, J. Chem. Phys. 96, 6796 (1992)
         He : Obtained from the ccRepo (grant-hill.group.shef.ac.uk/ccrepo) Feb. 2017
              D. E. Woon, T. H. Dunning, Jr., J. Chem. Phys. 100, 2975 (1994)
  Li-Be, Na : Obtained from the ccRepo (grant-hill.group.shef.ac.uk/ccrepo) Feb. 2017
              B. P. Prascher, D. E. Woon, K. A. Peterson, T. H. Dunning, Jr., A. K. Wilson, Theor. Chem. Acc. 128, 69 (2011)
         Mg : Obtained from the Peterson Research Group Website (tyr0.chem.wsu.edu/~kipeters) Feb. 2017
              B. P. Prascher, D. E. Woon, K. A. Peterson, T. H. Dunning, Jr., A. K. Wilson, Theor. Chem. Acc. 128, 69 (2011)
      Al-Ar : Obtained from the ccRepo (grant-hill.group.shef.ac.uk/ccrepo) Feb. 2017
              D. E. Woon, T. H. Dunning, Jr., J. Chem. Phys. 98, 1358 (1993)
      Sc-Zn : Obtained from the ccRepo (grant-hill.group.shef.ac.uk/ccrepo) Feb. 2017
              N. B. Balabanov, K. A. Peterson, J. Chem. Phys. 123, 064107 (2005)
              N. B. Balabanov, K. A. Peterson, J. Chem. Phys. 125, 074110 (2006)
      Ga-Kr : Obtained from the ccRepo (grant-hill.group.shef.ac.uk/ccrepo) Feb. 2017
              A. K. Wilson, D. E. Woon, K. A. Peterson, T. H. Dunning, Jr., J. Chem. Phys. 110, 7667 (1999)
     Ag, Au : Obtained from the Peterson Research Group Website (tyr0.chem.wsu.edu/~kipeters) Feb. 2017
              K. A. Peterson, C. Puzzarini, Theor. Chem. Acc. 114, 283 (2005)

The basis set includes element-specific modifications.

Your calculation utilizes the basis: cc-pVTZ 
       H, B-Ne : Obtained from the ccRepo (grant-hill.group.shef.ac.uk/ccrepo) Feb. 2017
                 T. H. Dunning, Jr., J. Chem. Phys. 90, 1007 (1989)
            He : Obtained from the ccRepo (grant-hill.group.shef.ac.uk/ccrepo) Feb. 2017
                 D. E. Woon, T. H. Dunning, Jr., J. Chem. Phys. 100, 2975 (1994)
  Li-Be, Na-Mg : Obtained from the ccRepo (grant-hill.group.shef.ac.uk/ccrepo) Feb. 2017
                 B. P. Prascher, D. E. Woon, K. A. Peterson, T. H. Dunning, Jr., A. K. Wilson, Theor. Chem. Acc. 128, 69 (2011)
         Al-Ar : Obtained from the ccRepo (grant-hill.group.shef.ac.uk/ccrepo) Feb. 2017
                 D. E. Woon, T. H. Dunning, Jr., J. Chem. Phys. 98, 1358 (1993)
            Ca : Obtained from the Peterson Research Group Website (tyr0.chem.wsu.edu/~kipeters) Feb. 2017
                 J. Koput, K. A. Peterson, J. Phys. Chem. 106, 9595 (2002)
         Sc-Zn : Obtained from the ccRepo (grant-hill.group.shef.ac.uk/ccrepo) Feb. 2017
                 N. B. Balabanov, K. A. Peterson, J. Chem. Phys. 123, 064107 (2005)
                 N. B. Balabanov, K. A. Peterson, J. Chem. Phys. 125, 074110 (2006)
         Ga-Kr : Obtained from the ccRepo (grant-hill.group.shef.ac.uk/ccrepo) Feb. 2017
                 A. K. Wilson, D. E. Woon, K. A. Peterson, T. H. Dunning, Jr., J. Chem. Phys. 110, 7667 (1999)
             Y : Obtained from the ccRepo (grant-hill.group.shef.ac.uk/ccrepo) Feb. 2017
                 K. A. Peterson, D. Figgen, M. Dolg, H. Stoll, J. Chem. Phys. 126, 124101 (2007)
        Ag, Au : Obtained from the Peterson Research Group Website (tyr0.chem.wsu.edu/~kipeters) Feb. 2017
                 K. A. Peterson, C. Puzzarini, Theor. Chem. Acc. 114, 283 (2005)

----- AuxJ basis set information -----
Your calculation utilizes the auxiliary basis: aug-cc-pVTZ/JK 
  H, B-F, Al-Cl, Ga-Br : Obtained from the TURBOMOLE 7.0 basis set library

The basis set includes element-specific modifications.

Your calculation utilizes the auxiliary basis: cc-pVTZ/JK 
  H, B-F, Al-Cl, Ga-Br : Obtained from the TURBOMOLE 7.0 basis set library

----- AuxC basis set information -----
Your calculation utilizes the auxiliary basis: aug-cc-pVTZ/C 
  H-He, B-F, Al-Ar, Ga-Kr : Obtained from the EMSL Basis Set Exchange (bse.pnl.gov) Feb. 2017
                            F. Weigend, A. Kohn, C. Hattig, J. Chem. Phys. 116, 3175 (2002)
                   Be, Mg : Obtained from the TURBOMOLE 7.0 basis set library
                            C. Haettig, Phys. Chem. Chem. Phys. 7, 59 (2005)
                       Ne : Obtained from the EMSL Basis Set Exchange (bse.pnl.gov) Feb. 2017
                            C. Haettig, Phys. Chem. Chem. Phys. 7, 59 (2005)
                            F. Weigend, A. Kohn, C. Hattig, J. Chem. Phys. 116, 3175 (2002)
                    Sc-Zn : Obtained from the EMSL Basis Set Exchange (bse.pnl.gov) Feb. 2017
                            J. G. Hill, J. A. Platts, J. Chem. Phys. 128, 044104 (2008)

The basis set includes element-specific modifications.

Your calculation utilizes the auxiliary basis: cc-pVTZ/C 
  Obtained from the EMSL Basis Set Exchange (bse.pnl.gov) Feb. 2017
  H-He, B-F, Al-Ar, Ga-Kr : F. Weigend, A. Kohn, C. Hattig, J. Chem. Phys. 116, 3175 (2002)
             Li-Be, Na-Mg : C. Haettig, Phys. Chem. Chem. Phys. 7, 59 (2005)
                       Ne : C. Haettig, Phys. Chem. Chem. Phys. 7, 59 (2005)
                            F. Weigend, A. Kohn, C. Hattig, J. Chem. Phys. 116, 3175 (2002)
                    Sc-Zn : J. G. Hill, J. A. Platts, J. Chem. Phys. 128, 044104 (2008)

================================================================================
                                        WARNINGS
                       Please study these warnings very carefully!
================================================================================

INFO   : Checking CIS options ...

INFO   : the flag for use of the SHARK integral package has been found!

================================================================================
                                       INPUT FILE
================================================================================
NAME = m062x-train-4.inp
|  1> ! m062x defgrid3 aug-cc-PVTZ RIJCOSX Opt
|  2> %maxcore 4000
|  3> %basis
|  4>  AuxJ "aug-cc-PVTZ/JK"
|  5>  AuxC "aug-cc-PVTZ/C"
|  6>  newGTO H "cc-PVTZ" end
|  7>  newAuxJGTO H "cc-PVTZ/JK" end
|  8>  newAuxCGTO H "cc-PVTZ/C" end
|  9> end
| 10> %cpcm
| 11>  SMD true
| 12>  SMDsolvent "acetonitrile"
| 13> end
| 14> %pal nprocs 4 end
| 15> * xyz 0 1
| 16> C         -4.57040       -0.46150        0.41150
| 17> C         -4.02030        0.49180       -0.42940
| 18> C         -2.64950        0.61520       -0.54150
| 19> C         -1.79710       -0.21660        0.18870
| 20> C         -0.35690       -0.10750        0.08880
| 21> P          0.74210       -1.10260        0.96210
| 22> C          2.18870       -0.32020        0.26940
| 23> C          3.50480       -0.67740        0.58050
| 24> C          4.55840       -0.01500       -0.00560
| 25> C          4.32660        1.01730       -0.91390
| 26> C          3.04000        1.38880       -1.23760
| 27> C          1.97300        0.72160       -0.64740
| 28> S          0.31300        1.10370       -0.97940
| 29> C         -2.36710       -1.17440        1.03350
| 30> C         -3.73620       -1.29410        1.14250
| 31> H         -5.64250       -0.55610        0.49770
| 32> H         -4.66370        1.14380       -1.00180
| 33> H         -2.22950        1.36200       -1.20020
| 34> H          3.67680       -1.47810        1.28510
| 35> H          5.57280       -0.29380        0.23730
| 36> H          5.16140        1.52990       -1.36750
| 37> H          2.84950        2.18640       -1.93950
| 38> H         -1.71510       -1.82300        1.60290
| 39> H         -4.15830       -2.03970        1.80010
| 40> *
| 41> 
| 42> 
| 43> $new_job
| 44> ! m062x defgrid3 aug-cc-PVTZ RIJCOSX SP
| 45> %maxcore 4000
| 46> %basis
| 47>  AuxJ "aug-cc-PVTZ/JK"
| 48>  AuxC "aug-cc-PVTZ/C"
| 49>  newGTO H "cc-PVTZ" end
| 50>  newAuxJGTO H "cc-PVTZ/JK" end
| 51>  newAuxCGTO H "cc-PVTZ/C" end
| 52> end
| 53> %cpcm
| 54>  SMD true
| 55>  SMDsolvent "acetonitrile"
| 56> end
| 57> %pal nprocs 4 end
| 58> %tddft
| 59>  nroots 10
| 60>  maxdim 7
| 61> end
| 62> * xyzfile 0 1
| 63> 
| 64>                          ****END OF INPUT****
================================================================================


                 $$$$$$$$$$$$$$$$$$$$$$$$$$$$$$$$$$$$$$$$$$$$$$ 
                 $ THERE ARE  2 JOBS TO BE PROCESSED THIS RUN $
                 $$$$$$$$$$$$$$$$$$$$$$$$$$$$$$$$$$$$$$$$$$$$$$ 




                 $$$$$$$$$$$$$$$$  JOB NUMBER  1 $$$$$$$$$$$$$$


                       *****************************
                       * Geometry Optimization Run *
                       *****************************

Geometry optimization settings:
Update method            Update   .... BFGS
Choice of coordinates    CoordSys .... Z-matrix Internals
Initial Hessian          InHess   .... Almoef's Model

Convergence Tolerances:
Energy Change            TolE     ....  5.0000e-06 Eh
Max. Gradient            TolMAXG  ....  3.0000e-04 Eh/bohr
RMS Gradient             TolRMSG  ....  1.0000e-04 Eh/bohr
Max. Displacement        TolMAXD  ....  4.0000e-03 bohr
RMS Displacement         TolRMSD  ....  2.0000e-03 bohr
Strict Convergence                ....  False
------------------------------------------------------------------------------
                        ORCA OPTIMIZATION COORDINATE SETUP
------------------------------------------------------------------------------

The optimization will be done in new redundant internal coordinates
Making redundant internal coordinates   ...  (new redundants) done
Evaluating the initial hessian          ...  (Almloef) done
Evaluating the coordinates              ...  done
Calculating the B-matrix                .... done
Calculating the G-matrix                .... done
Diagonalizing the G-matrix              .... done
Small eigenvalue found = 9.073e-03
The first mode is                       ....   61
The number of degrees of freedom        ....   66

    -----------------------------------------------------------------
                    Redundant Internal Coordinates


    -----------------------------------------------------------------
         Definition                    Initial Value    Approx d2E/dq
    -----------------------------------------------------------------
      1. B(C   1,C   0)                  1.3851         0.636144   
      2. B(C   2,C   1)                  1.3809         0.646035   
      3. B(C   3,C   2)                  1.3970         0.608886   
      4. B(C   4,C   3)                  1.4478         0.505311   
      5. B(P   5,C   4)                  1.7207         0.623279   
      6. B(C   6,P   5)                  1.7846         0.492885   
      7. B(C   7,C   6)                  1.3987         0.605038   
      8. B(C   8,C   7)                  1.3756         0.658664   
      9. B(C   9,C   8)                  1.3944         0.614752   
     10. B(C  10,C   9)                  1.3777         0.653609   
     11. B(C  11,C  10)                  1.3900         0.624895   
     12. B(C  11,C   6)                  1.4044         0.592560   
     13. B(S  12,C  11)                  1.7355         0.473528   
     14. B(S  12,C   4)                  1.7484         0.451584   
     15. B(C  13,C   3)                  1.3986         0.605456   
     16. B(C  14,C  13)                  1.3786         0.651426   
     17. B(C  14,C   0)                  1.3869         0.631968   
     18. B(H  15,C   0)                  1.0797         0.373970   
     19. B(H  16,C   1)                  1.0801         0.373378   
     20. B(H  17,C   2)                  1.0807         0.372562   
     21. B(H  18,C   7)                  1.0804         0.373089   
     22. B(H  19,C   8)                  1.0797         0.373996   
     23. B(H  20,C   9)                  1.0795         0.374209   
     24. B(H  21,C  10)                  1.0794         0.374389   
     25. B(H  22,C  13)                  1.0817         0.371295   
     26. B(H  23,C  14)                  1.0801         0.373495   
     27. A(C   1,C   0,H  15)          120.2070         0.356729   
     28. A(C   1,C   0,C  14)          119.6229         0.437585   
     29. A(C  14,C   0,H  15)          120.1701         0.356330   
     30. A(C   0,C   1,C   2)          120.3339         0.439326   
     31. A(C   2,C   1,H  16)          119.6265         0.357570   
     32. A(C   0,C   1,H  16)          120.0396         0.356633   
     33. A(C   1,C   2,C   3)          120.6675         0.435871   
     34. A(C   3,C   2,H  17)          119.5303         0.353862   
     35. A(C   1,C   2,H  17)          119.8023         0.357437   
     36. A(C   2,C   3,C   4)          121.7374         0.417109   
     37. A(C   2,C   3,C  13)          118.3473         0.430815   
     38. A(C   4,C   3,C  13)          119.9152         0.416690   
     39. A(C   3,C   4,S  12)          118.3927         0.417176   
     40. A(P   5,C   4,S  12)          117.7751         0.462375   
     41. A(C   3,C   4,P   5)          123.8322         0.446873   
     42. A(C   4,P   5,C   6)           93.8526         0.475097   
     43. A(P   5,C   6,C   7)          124.3628         0.442478   
     44. A(C   7,C   6,C  11)          118.6290         0.428665   
     45. A(P   5,C   6,C  11)          117.0082         0.440814   
     46. A(C   6,C   7,H  18)          118.9551         0.353567   
     47. A(C   6,C   7,C   8)          120.1934         0.436894   
     48. A(C   8,C   7,H  18)          120.8516         0.358702   
     49. A(C   9,C   8,H  19)          119.5966         0.354669   
     50. A(C   7,C   8,H  19)          119.9600         0.358850   
     51. A(C   7,C   8,C   9)          120.4434         0.438151   
     52. A(C   8,C   9,C  10)          120.5245         0.437543   
     53. A(C  10,C   9,H  20)          119.6952         0.358415   
     54. A(C   8,C   9,H  20)          119.7803         0.354703   
     55. A(C   9,C  10,C  11)          119.1879         0.438836   
     56. A(C  11,C  10,H  21)          119.6914         0.355718   
     57. A(C   9,C  10,H  21)          121.1207         0.358444   
     58. A(C   6,C  11,C  10)          121.0217         0.431157   
     59. A(C  10,C  11,S  12)          123.1857         0.437056   
     60. A(C   6,C  11,S  12)          115.7926         0.432896   
     61. A(C   4,S  12,C  11)           95.5716         0.435088   
     62. A(C   3,C  13,C  14)          120.7946         0.436080   
     63. A(C  14,C  13,H  22)          120.3261         0.357735   
     64. A(C   3,C  13,H  22)          118.8793         0.353320   
     65. A(C   0,C  14,C  13)          120.2338         0.439463   
     66. A(C  13,C  14,H  23)          119.7479         0.358094   
     67. A(C   0,C  14,H  23)          120.0183         0.356254   
     68. D(H  16,C   1,C   0,C  14)   -179.9971         0.028094   
     69. D(C   2,C   1,C   0,H  15)    179.9903         0.028094   
     70. D(C   2,C   1,C   0,C  14)     -0.0051         0.028094   
     71. D(H  16,C   1,C   0,H  15)     -0.0016         0.028094   
     72. D(H  17,C   2,C   1,C   0)   -179.9991         0.029035   
     73. D(H  17,C   2,C   1,H  16)     -0.0071         0.029035   
     74. D(C   3,C   2,C   1,H  16)    179.9989         0.029035   
     75. D(C   3,C   2,C   1,C   0)      0.0069         0.029035   
     76. D(C  13,C   3,C   2,H  17)   -179.9968         0.025600   
     77. D(C   4,C   3,C   2,H  17)     -0.0015         0.025600   
     78. D(C   4,C   3,C   2,C   1)    179.9925         0.025600   
     79. D(C  13,C   3,C   2,C   1)     -0.0028         0.025600   
     80. D(P   5,C   4,C   3,C  13)     -0.0035         0.017396   
     81. D(P   5,C   4,C   3,C   2)   -179.9987         0.017396   
     82. D(S  12,C   4,C   3,C   2)      0.0039         0.017396   
     83. D(S  12,C   4,C   3,C  13)    179.9991         0.017396   
     84. D(C   6,P   5,C   4,S  12)     -0.0005         0.005993   
     85. D(C   6,P   5,C   4,C   3)   -179.9980         0.005993   
     86. D(C  11,C   6,P   5,C   4)     -0.0021         0.004252   
     87. D(C   7,C   6,P   5,C   4)    179.9985         0.004252   
     88. D(H  18,C   7,C   6,C  11)   -179.9995         0.025259   
     89. D(H  18,C   7,C   6,P   5)     -0.0001         0.025259   
     90. D(C   8,C   7,C   6,C  11)     -0.0025         0.025259   
     91. D(C   8,C   7,C   6,P   5)    179.9968         0.025259   
     92. D(H  19,C   8,C   7,H  18)     -0.0054         0.030264   
     93. D(H  19,C   8,C   7,C   6)    179.9978         0.030264   
     94. D(C   9,C   8,C   7,H  18)   -179.9973         0.030264   
     95. D(C   9,C   8,C   7,C   6)      0.0059         0.030264   
     96. D(H  20,C   9,C   8,C   7)    179.9996         0.026124   
     97. D(C  10,C   9,C   8,H  19)   -179.9954         0.026124   
     98. D(C  10,C   9,C   8,C   7)     -0.0034         0.026124   
     99. D(H  20,C   9,C   8,H  19)      0.0077         0.026124   
    100. D(H  21,C  10,C   9,H  20)      0.0034         0.029768   
    101. D(H  21,C  10,C   9,C   8)   -179.9936         0.029768   
    102. D(C  11,C  10,C   9,H  20)    179.9946         0.029768   
    103. D(C  11,C  10,C   9,C   8)     -0.0024         0.029768   
    104. D(S  12,C  11,C  10,H  21)     -0.0103         0.027047   
    105. D(C   6,C  11,C  10,H  21)    179.9971         0.027047   
    106. D(C   6,C  11,C  10,C   9)      0.0057         0.027047   
    107. D(S  12,C  11,C   6,C   7)   -179.9965         0.024174   
    108. D(S  12,C  11,C   6,P   5)      0.0041         0.024174   
    109. D(S  12,C  11,C  10,C   9)    179.9984         0.027047   
    110. D(C  10,C  11,C   6,C   7)     -0.0033         0.024174   
    111. D(C  10,C  11,C   6,P   5)    179.9973         0.024174   
    112. D(C   4,S  12,C  11,C  10)   -179.9968         0.004806   
    113. D(C   4,S  12,C  11,C   6)     -0.0038         0.004806   
    114. D(C  11,S  12,C   4,P   5)      0.0023         0.004494   
    115. D(C  11,S  12,C   4,C   3)    179.9999         0.004494   
    116. D(H  22,C  13,C   3,C   4)      0.0042         0.025296   
    117. D(H  22,C  13,C   3,C   2)    179.9996         0.025296   
    118. D(C  14,C  13,C   3,C   4)   -179.9984         0.025296   
    119. D(C  14,C  13,C   3,C   2)     -0.0031         0.025296   
    120. D(H  23,C  14,C  13,H  22)     -0.0017         0.029556   
    121. D(C   0,C  14,C  13,H  22)   -179.9978         0.029556   
    122. D(C   0,C  14,C  13,C   3)      0.0048         0.029556   
    123. D(H  23,C  14,C   0,H  15)      0.0076         0.027702   
    124. D(H  23,C  14,C   0,C   1)   -179.9969         0.027702   
    125. D(H  23,C  14,C  13,C   3)   -179.9990         0.029556   
    126. D(C  13,C  14,C   0,H  15)   -179.9962         0.027702   
    127. D(C  13,C  14,C   0,C   1)     -0.0007         0.027702   
    -----------------------------------------------------------------

Number of atoms                         .... 24
Number of degrees of freedom            .... 127

         *************************************************************
         *                GEOMETRY OPTIMIZATION CYCLE   1            *
         *************************************************************
---------------------------------
CARTESIAN COORDINATES (ANGSTROEM)
---------------------------------
  C     -4.570400   -0.461500    0.411500
  C     -4.020300    0.491800   -0.429400
  C     -2.649500    0.615200   -0.541500
  C     -1.797100   -0.216600    0.188700
  C     -0.356900   -0.107500    0.088800
  P      0.742100   -1.102600    0.962100
  C      2.188700   -0.320200    0.269400
  C      3.504800   -0.677400    0.580500
  C      4.558400   -0.015000   -0.005600
  C      4.326600    1.017300   -0.913900
  C      3.040000    1.388800   -1.237600
  C      1.973000    0.721600   -0.647400
  S      0.313000    1.103700   -0.979400
  C     -2.367100   -1.174400    1.033500
  C     -3.736200   -1.294100    1.142500
  H     -5.642500   -0.556100    0.497700
  H     -4.663700    1.143800   -1.001800
  H     -2.229500    1.362000   -1.200200
  H      3.676800   -1.478100    1.285100
  H      5.572800   -0.293800    0.237300
  H      5.161400    1.529900   -1.367500
  H      2.849500    2.186400   -1.939500
  H     -1.715100   -1.823000    1.602900
  H     -4.158300   -2.039700    1.800100

----------------------------
CARTESIAN COORDINATES (A.U.)
----------------------------
  NO LB      ZA    FRAG     MASS         X           Y           Z
   0 C     6.0000    0    12.011   -8.636804   -0.872109    0.777622
   1 C     6.0000    0    12.011   -7.597266    0.929367   -0.811448
   2 C     6.0000    0    12.011   -5.006829    1.162560   -1.023287
   3 C     6.0000    0    12.011   -3.396027   -0.409315    0.356591
   4 C     6.0000    0    12.011   -0.674443   -0.203146    0.167808
   5 P    15.0000    0    30.974    1.402366   -2.083612    1.818106
   6 C     6.0000    0    12.011    4.136044   -0.605090    0.509092
   7 C     6.0000    0    12.011    6.623112   -1.280100    1.096986
   8 C     6.0000    0    12.011    8.614128   -0.028346   -0.010582
   9 C     6.0000    0    12.011    8.176089    1.922418   -1.727021
  10 C     6.0000    0    12.011    5.744767    2.624452   -2.338725
  11 C     6.0000    0    12.011    3.728430    1.363626   -1.223409
  12 S    16.0000    0    32.060    0.591484    2.085691   -1.850798
  13 C     6.0000    0    12.011   -4.473171   -2.219294    1.953032
  14 C     6.0000    0    12.011   -7.060395   -2.445495    2.159012
  15 H     1.0000    0     1.008  -10.662780   -1.050877    0.940517
  16 H     1.0000    0     1.008   -8.813116    2.161469   -1.893128
  17 H     1.0000    0     1.008   -4.213144    2.573807   -2.268049
  18 H     1.0000    0     1.008    6.948145   -2.793204    2.428487
  19 H     1.0000    0     1.008   10.531066   -0.555202    0.448432
  20 H     1.0000    0     1.008    9.753632    2.891092   -2.584200
  21 H     1.0000    0     1.008    5.384775    4.131697   -3.665124
  22 H     1.0000    0     1.008   -3.241069   -3.444971    3.029042
  23 H     1.0000    0     1.008   -7.858048   -3.854474    3.401696

--------------------------------
INTERNAL COORDINATES (ANGSTROEM)
--------------------------------
 C      0   0   0     0.000000000000     0.00000000     0.00000000
 C      1   0   0     1.385100613674     0.00000000     0.00000000
 C      2   1   0     1.380900651749   120.33387166     0.00000000
 C      3   2   1     1.397021488740   120.66745383     0.00000000
 C      4   3   2     1.447777213524   121.73742609   179.99247754
 P      5   4   3     1.720662052816   123.83222498   180.00129550
 C      6   5   4     1.784554457000    93.85256138   180.00203796
 C      7   6   5     1.398747389631   124.36275245   179.99849513
 C      8   7   6     1.375630738970   120.19335617   179.99681574
 C      9   8   7     1.394411495937   120.44343937     0.00000000
 C     10   9   8     1.377727658139   120.52452008     0.00000000
 C     11  10   9     1.389957150419   119.18790131     0.00000000
 S     12  11  10     1.735460863863   123.18568278   179.99839372
 C      4   3   2     1.398559215765   118.34734701     0.00000000
 C     14   4   3     1.378638422502   120.79464432     0.00000000
 H      1   2   3     1.079712003268   120.20703654   179.99033929
 H      2   1   3     1.080143194211   120.03958220   180.00807260
 H      3   2   1     1.080738603919   119.80226112   180.00092985
 H      8   7   6     1.080354409442   118.95508436     0.00000000
 H      9   8   7     1.079693109175   119.95998590   179.99779393
 H     10   9   8     1.079538216091   119.78026958   179.99963503
 H     11  10   9     1.079407068719   121.12065728   180.00641727
 H     14   4   3     1.081666455059   118.87927471   179.99956939
 H     15  14   4     1.080058114177   119.74790299   180.00100506

---------------------------
INTERNAL COORDINATES (A.U.)
---------------------------
 C      0   0   0     0.000000000000     0.00000000     0.00000000
 C      1   0   0     2.617460827770     0.00000000     0.00000000
 C      2   1   0     2.609524049958   120.33387166     0.00000000
 C      3   2   1     2.639988016921   120.66745383     0.00000000
 C      4   3   2     2.735902436492   121.73742609   179.99247754
 P      5   4   3     3.251580048852   123.83222498   180.00129550
 C      6   5   4     3.372319194799    93.85256138   180.00203796
 C      7   6   5     2.643249496940   124.36275245   179.99849513
 C      8   7   6     2.599565358058   120.19335617   179.99681574
 C      9   8   7     2.635055845312   120.44343937     0.00000000
 C     10   9   8     2.603527961011   120.52452008     0.00000000
 C     11  10   9     2.626638352177   119.18790131     0.00000000
 S     12  11  10     3.279545748839   123.18568278   179.99839372
 C      4   3   2     2.642893899867   118.34734701     0.00000000
 C     14   4   3     2.605249056231   120.79464432     0.00000000
 H      1   2   3     2.040359989683   120.20703654   179.99033929
 H      2   1   3     2.041174822477   120.03958220   180.00807260
 H      3   2   1     2.042299983763   119.80226112   180.00092985
 H      8   7   6     2.041573961419   118.95508436     0.00000000
 H      9   8   7     2.040324285023   119.95998590   179.99779393
 H     10   9   8     2.040031579513   119.78026958   179.99963503
 H     11  10   9     2.039783746897   121.12065728   180.00641727
 H     14   4   3     2.044053368311   118.87927471   179.99956939
 H     15  14   4     2.041014044514   119.74790299   180.00100506

---------------------
BASIS SET INFORMATION
---------------------
There are 4 groups of distinct atoms

 Group   1 Type C   : 19s6p3d2f contracted to 5s4p3d2f pattern {88111/3111/111/11}
 Group   2 Type P   : 42s17p3d2f contracted to 6s5p3d2f pattern {131313111/77111/111/11}
 Group   3 Type S   : 42s17p3d2f contracted to 6s5p3d2f pattern {131313111/77111/111/11}
 Group   4 Type H   : 5s2p1d contracted to 3s2p1d pattern {311/11/1}

Atom   0C    basis set group =>   1
Atom   1C    basis set group =>   1
Atom   2C    basis set group =>   1
Atom   3C    basis set group =>   1
Atom   4C    basis set group =>   1
Atom   5P    basis set group =>   2
Atom   6C    basis set group =>   1
Atom   7C    basis set group =>   1
Atom   8C    basis set group =>   1
Atom   9C    basis set group =>   1
Atom  10C    basis set group =>   1
Atom  11C    basis set group =>   1
Atom  12S    basis set group =>   3
Atom  13C    basis set group =>   1
Atom  14C    basis set group =>   1
Atom  15H    basis set group =>   4
Atom  16H    basis set group =>   4
Atom  17H    basis set group =>   4
Atom  18H    basis set group =>   4
Atom  19H    basis set group =>   4
Atom  20H    basis set group =>   4
Atom  21H    basis set group =>   4
Atom  22H    basis set group =>   4
Atom  23H    basis set group =>   4
---------------------------------
AUXILIARY/J BASIS SET INFORMATION
---------------------------------
There are 4 groups of distinct atoms

 Group   1 Type C   : 10s7p5d2f1g contracted to 10s7p5d2f1g pattern {1111111111/1111111/11111/11/1}
 Group   2 Type P   : 13s11p9d3f1g contracted to 13s11p9d3f1g pattern {1111111111111/11111111111/111111111/111/1}
 Group   3 Type S   : 13s11p9d3f1g contracted to 13s11p9d3f1g pattern {1111111111111/11111111111/111111111/111/1}
 Group   4 Type H   : 4s3p2d1f contracted to 4s3p2d1f pattern {1111/111/11/1}

Atom   0C    basis set group =>   1
Atom   1C    basis set group =>   1
Atom   2C    basis set group =>   1
Atom   3C    basis set group =>   1
Atom   4C    basis set group =>   1
Atom   5P    basis set group =>   2
Atom   6C    basis set group =>   1
Atom   7C    basis set group =>   1
Atom   8C    basis set group =>   1
Atom   9C    basis set group =>   1
Atom  10C    basis set group =>   1
Atom  11C    basis set group =>   1
Atom  12S    basis set group =>   3
Atom  13C    basis set group =>   1
Atom  14C    basis set group =>   1
Atom  15H    basis set group =>   4
Atom  16H    basis set group =>   4
Atom  17H    basis set group =>   4
Atom  18H    basis set group =>   4
Atom  19H    basis set group =>   4
Atom  20H    basis set group =>   4
Atom  21H    basis set group =>   4
Atom  22H    basis set group =>   4
Atom  23H    basis set group =>   4
---------------------------------
AUXILIARY/C BASIS SET INFORMATION
---------------------------------
There are 4 groups of distinct atoms

 Group   1 Type C   : 9s7p6d4f2g contracted to 9s7p6d4f2g pattern {111111111/1111111/111111/1111/11}
 Group   2 Type P   : 11s9p8d6f3g contracted to 11s9p8d6f3g pattern {11111111111/111111111/11111111/111111/111}
 Group   3 Type S   : 11s9p8d6f3g contracted to 11s9p8d6f3g pattern {11111111111/111111111/11111111/111111/111}
 Group   4 Type H   : 4s3p2d1f contracted to 4s3p2d1f pattern {1111/111/11/1}

Atom   0C    basis set group =>   1
Atom   1C    basis set group =>   1
Atom   2C    basis set group =>   1
Atom   3C    basis set group =>   1
Atom   4C    basis set group =>   1
Atom   5P    basis set group =>   2
Atom   6C    basis set group =>   1
Atom   7C    basis set group =>   1
Atom   8C    basis set group =>   1
Atom   9C    basis set group =>   1
Atom  10C    basis set group =>   1
Atom  11C    basis set group =>   1
Atom  12S    basis set group =>   3
Atom  13C    basis set group =>   1
Atom  14C    basis set group =>   1
Atom  15H    basis set group =>   4
Atom  16H    basis set group =>   4
Atom  17H    basis set group =>   4
Atom  18H    basis set group =>   4
Atom  19H    basis set group =>   4
Atom  20H    basis set group =>   4
Atom  21H    basis set group =>   4
Atom  22H    basis set group =>   4
Atom  23H    basis set group =>   4


           ************************************************************
           *        Program running with 4 parallel MPI-processes     *
           *              working on a common directory               *
           ************************************************************
------------------------------------------------------------------------------
                           ORCA GTO INTEGRAL CALCULATION
                           -- RI-GTO INTEGRALS CHOSEN --
------------------------------------------------------------------------------
------------------------------------------------------------------------------
                   ___                                                        
                  /   \      - P O W E R E D   B Y -                         
                 /     \                                                     
                 |  |  |   _    _      __       _____    __    __             
                 |  |  |  | |  | |    /  \     |  _  \  |  |  /  |          
                  \  \/   | |  | |   /    \    | | | |  |  | /  /          
                 / \  \   | |__| |  /  /\  \   | |_| |  |  |/  /          
                |  |  |   |  __  | /  /__\  \  |    /   |      \           
                |  |  |   | |  | | |   __   |  |    \   |  |\   \          
                \     /   | |  | | |  |  |  |  | |\  \  |  | \   \       
                 \___/    |_|  |_| |__|  |__|  |_| \__\ |__|  \__/        
                                                                              
                      - O R C A' S   B I G   F R I E N D -                    
                                      &                                       
                       - I N T E G R A L  F E E D E R -                       
                                                                              
 v1 FN, 2020, v2 2021                                                         
------------------------------------------------------------------------------


Reading SHARK input file m062x-train-4.SHARKINP.tmp ... ok
----------------------
SHARK INTEGRAL PACKAGE
----------------------

Number of atoms                             ...     24
Number of basis functions                   ...    952
Number of shells                            ...    376
Maximum angular momentum                    ...      3
Integral batch strategy                     ... SHARK/LIBINT Hybrid
RI-J (if used) integral strategy            ... SPLIT-RIJ (Revised 2003 algorithm where possible)
Printlevel                                  ...      1
Contraction scheme used                     ... PARTIAL GENERAL contraction
Coulomb Range Separation                    ... NOT USED
Exchange Range Separation                   ... NOT USED
Finite Nucleus Model                        ... NOT USED
Auxiliary Coulomb fitting basis             ... AVAILABLE
   # of basis functions in Aux-J            ...   1539
   # of shells in Aux-J                     ...    489
   Maximum angular momentum in Aux-J        ...      4
Auxiliary J/K fitting basis                 ... NOT available
Auxiliary Correlation fitting basis         ... AVAILABLE
   # of basis functions in Aux-C            ...   1942
   # of shells in Aux-C                     ...    528
   Maximum angular momentum in Aux-C        ...      4
Auxiliary 'external' fitting basis          ... NOT available
Integral threshold                          ...     2.500000e-11
Primitive cut-off                           ...     2.500000e-12
Primitive pair pre-selection threshold      ...     2.500000e-12

Calculating pre-screening integrals         ... done (  0.2 sec) Dimension = 376
Calculating pre-screening integrals (ORCA)  ... done (  0.5 sec) Dimension = 268
Organizing shell pair data                  ... done (  0.7 sec)
Shell pair information
Total number of shell pairs                 ...     70876
Shell pairs after pre-screening             ...     47964
Total number of primitive shell pairs       ...     88476
Primitive shell pairs kept                  ...     55053
          la=0 lb=0:  10711 shell pairs
          la=1 lb=0:  12470 shell pairs
          la=1 lb=1:   3264 shell pairs
          la=2 lb=0:   7878 shell pairs
          la=2 lb=1:   3956 shell pairs
          la=2 lb=2:   1235 shell pairs
          la=3 lb=0:   4441 shell pairs
          la=3 lb=1:   2247 shell pairs
          la=3 lb=2:   1360 shell pairs
          la=3 lb=3:    402 shell pairs

Calculating one electron integrals          ... done (  0.1 sec)
Calculating RI/J V-Matrix + Cholesky decomp.... done (  0.4 sec)
Calculating RI/C V-Matrix + Cholesky decomp.... done (  0.4 sec)
Calculating Nuclear repulsion               ... done (  0.0 sec) ENN=   1078.649719388112 Eh

SHARK setup successfully completed in   4.3 seconds

Maximum memory used throughout the entire GTOINT-calculation: 85.2 MB


           ************************************************************
           *        Program running with 4 parallel MPI-processes     *
           *              working on a common directory               *
           ************************************************************
-------------------------------------------------------------------------------
                                 ORCA SCF
-------------------------------------------------------------------------------

------------
SCF SETTINGS
------------
Hamiltonian:
 Density Functional     Method          .... DFT(GTOs)
 Exchange Functional    Exchange        .... M062X
 Correlation Functional Correlation     .... M062X
 Gradients option       PostSCFGGA      .... off
 Hybrid DFT is turned on
   Fraction HF Exchange ScalHFX         ....  0.540000
   Scaling of DF-GGA-X  ScalDFX         ....  0.460000
   Scaling of DF-GGA-C  ScalDFC         ....  1.000000
   Scaling of DF-LDA-C  ScalLDAC        ....  1.000000
   Perturbative correction              ....  0.000000
   Density functional embedding theory  .... OFF
 RI-approximation to the Coulomb term is turned on
   Number of AuxJ basis functions       .... 1539
   RIJ-COSX (HFX calculated with COS-X)).... on


General Settings:
 Integral files         IntName         .... m062x-train-4
 Hartree-Fock type      HFTyp           .... RHF
 Total Charge           Charge          ....    0
 Multiplicity           Mult            ....    1
 Number of Electrons    NEL             ....  118
 Basis Dimension        Dim             ....  824
 Nuclear Repulsion      ENuc            ....   1078.6497193881 Eh

Convergence Acceleration:
 DIIS                   CNVDIIS         .... on
   Start iteration      DIISMaxIt       ....    12
   Startup error        DIISStart       ....  0.200000
   # of expansion vecs  DIISMaxEq       ....     5
   Bias factor          DIISBfac        ....   1.050
   Max. coefficient     DIISMaxC        ....  10.000
 Trust-Rad. Augm. Hess. CNVTRAH         .... auto
   Auto Start mean grad. ratio tolernc. ....  1.125000
   Auto Start start iteration           ....    20
   Auto Start num. interpolation iter.  ....    10
   Max. Number of Micro iterations      ....    16
   Max. Number of Macro iterations      .... Maxiter - #DIIS iter
   Number of Davidson start vectors     ....     2
   Converg. threshold I  (grad. norm)   ....   1.000e-05
   Converg. threshold II (energy diff.) ....   1.000e-08
   Grad. Scal. Fac. for Micro threshold ....   0.100
   Minimum threshold for Micro iter.    ....   0.010
   NR start threshold (gradient norm)   ....   0.001
   Initial trust radius                 ....   0.400
   Minimum AH scaling param. (alpha)    ....   1.000
   Maximum AH scaling param. (alpha)    .... 1000.000
   Orbital update algorithm             .... Taylor
   White noise on init. David. guess    .... on
   Maximum white noise                  ....   0.010
   Quad. conv. algorithm                .... NR
 SOSCF                  CNVSOSCF        .... on
   Start iteration      SOSCFMaxIt      ....   150
   Startup grad/error   SOSCFStart      ....  0.003300
 Level Shifting         CNVShift        .... on
   Level shift para.    LevelShift      ....    0.2500
   Turn off err/grad.   ShiftErr        ....    0.0010
 Zerner damping         CNVZerner       .... off
 Static damping         CNVDamp         .... on
   Fraction old density DampFac         ....    0.7000
   Max. Damping (<1)    DampMax         ....    0.9800
   Min. Damping (>=0)   DampMin         ....    0.0000
   Turn off err/grad.   DampErr         ....    0.1000
 Fernandez-Rico         CNVRico         .... off

SCF Procedure:
 Maximum # iterations   MaxIter         ....   125
 SCF integral mode      SCFMode         .... Direct
   Integral package                     .... SHARK and LIBINT hybrid scheme
 Reset frequency        DirectResetFreq ....    20
 Integral Threshold     Thresh          ....  2.500e-11 Eh
 Primitive CutOff       TCut            ....  2.500e-12 Eh

Convergence Tolerance:
 Convergence Check Mode ConvCheckMode   .... Total+1el-Energy
 Convergence forced     ConvForced      .... 0
 Energy Change          TolE            ....  1.000e-08 Eh
 1-El. energy change                    ....  1.000e-05 Eh
 Orbital Gradient       TolG            ....  1.000e-05
 Orbital Rotation angle TolX            ....  1.000e-05
 DIIS Error             TolErr          ....  5.000e-07


Diagonalization of the overlap matrix:
Smallest eigenvalue                        ... 9.689e-07
Time for diagonalization                   ...    0.240 sec
Threshold for overlap eigenvalues          ... 1.000e-08
Number of eigenvalues below threshold      ... 0
Time for construction of square roots      ...    0.141 sec
Total time needed                          ...    0.385 sec

Time for model grid setup =    0.482 sec

------------------------------
INITIAL GUESS: MODEL POTENTIAL
------------------------------
Loading Hartree-Fock densities                     ... done
Calculating cut-offs                               ... done
Initializing the effective Hamiltonian             ... done
Setting up the integral package (SHARK)            ... done
Starting the Coulomb interaction                   ... done (   1.6 sec)
Reading the grid                                   ... done
Mapping shells                                     ... done
Starting the XC term evaluation                    ... done (   1.4 sec)
  promolecular density results
     # of electrons  =    117.995472245
     EX              =   -116.624389956
     EC              =     -4.118119364
     EX+EC           =   -120.742509320
Transforming the Hamiltonian                       ... done (   0.1 sec)
Diagonalizing the Hamiltonian                      ... done (   0.3 sec)
Back transforming the eigenvectors                 ... done (   0.1 sec)
Now organizing SCF variables                       ... done
                      ------------------
                      INITIAL GUESS DONE (   3.9 sec)
                      ------------------
-------------------
DFT GRID GENERATION
-------------------

General Integration Accuracy     IntAcc      ... 4.959
Radial Grid Type                 RadialGrid  ... OptM3 with GC (2021)
Angular Grid (max. ang.)         AngularGrid ... 6 (Lebedev-590)
Angular grid pruning method      GridPruning ... 4 (adaptive)
Weight generation scheme         WeightScheme... Becke
Basis function cutoff            BFCut       ... 1.0000e-11
Integration weight cutoff        WCut        ... 1.0000e-14
Angular grids for H and He will be reduced by one unit
Partially contracted basis set               ... off
Rotationally invariant grid construction     ... off

Total number of grid points                  ...   302856
Total number of batches                      ...     4743
Average number of points per batch           ...       63
Average number of grid points per atom       ...    12619
Time for grid setup =    5.834 sec

--------------------
COSX GRID GENERATION
--------------------

GRIDX 1
-------
General Integration Accuracy     IntAcc      ... 4.020
Radial Grid Type                 RadialGrid  ... OptM3 with GC (2021)
Angular Grid (max. ang.)         AngularGrid ... 2 (Lebedev-110)
Angular grid pruning method      GridPruning ... 4 (adaptive)
Weight generation scheme         WeightScheme... Becke
Basis function cutoff            BFCut       ... 1.0000e-11
Integration weight cutoff        WCut        ... 1.0000e-14
Angular grids for H and He will be reduced by one unit
Partially contracted basis set               ... on
Rotationally invariant grid construction     ... off

Total number of grid points                  ...    37919
Total number of batches                      ...      605
Average number of points per batch           ...       62
Average number of grid points per atom       ...     1580
UseSFitting                                  ... on

GRIDX 2
-------
General Integration Accuracy     IntAcc      ... 4.338
Radial Grid Type                 RadialGrid  ... OptM3 with GC (2021)
Angular Grid (max. ang.)         AngularGrid ... 3 (Lebedev-194)
Angular grid pruning method      GridPruning ... 4 (adaptive)
Weight generation scheme         WeightScheme... Becke
Basis function cutoff            BFCut       ... 1.0000e-11
Integration weight cutoff        WCut        ... 1.0000e-14
Angular grids for H and He will be reduced by one unit
Partially contracted basis set               ... on
Rotationally invariant grid construction     ... off

Total number of grid points                  ...    83164
Total number of batches                      ...     1311
Average number of points per batch           ...       63
Average number of grid points per atom       ...     3465
UseSFitting                                  ... on

GRIDX 3
-------
General Integration Accuracy     IntAcc      ... 4.871
Radial Grid Type                 RadialGrid  ... OptM3 with GC (2021)
Angular Grid (max. ang.)         AngularGrid ... 4 (Lebedev-302)
Angular grid pruning method      GridPruning ... 4 (adaptive)
Weight generation scheme         WeightScheme... Becke
Basis function cutoff            BFCut       ... 1.0000e-11
Integration weight cutoff        WCut        ... 1.0000e-14
Angular grids for H and He will be reduced by one unit
Partially contracted basis set               ... on
Rotationally invariant grid construction     ... off

Total number of grid points                  ...   151789
Total number of batches                      ...     2386
Average number of points per batch           ...       63
Average number of grid points per atom       ...     6325
UseSFitting                                  ... on

Time for X-Grid setup             =    7.948 sec


--------------------
CPCM SOLVATION MODEL
--------------------
CPCM parameters:
  Epsilon                                         ...      35.6880
  Refrac                                          ...       1.3442
  Rsolv                                           ...       1.3000
  Surface type                                    ... GAUSSIAN VDW
  Epsilon function type                           ...         CPCM
Solvent:                                     ... ACETONITRILE
SMD-CDS solvent descriptors:
  Soln                                       ...    1.3442
  Soln25                                     ...    1.3416
  Sola                                       ...    0.0700
  Solb                                       ...    0.3200
  Solg                                       ...   41.2500
  Solc                                       ...    0.0000
  Solh                                       ...    0.0000
Radii:
 Radius for C  used is    3.4960 Bohr (=   1.8500 Ang.)
 Radius for P  used is    4.0062 Bohr (=   2.1200 Ang.)
 Radius for S  used is    4.7054 Bohr (=   2.4900 Ang.)
 Radius for H  used is    2.2677 Bohr (=   1.2000 Ang.)
Calculating surface                               ...        done! (  0.0s)
GEPOL surface points                              ...         1337
GEPOL Volume                                      ...    1598.9572
GEPOL Surface-area                                ...     850.5654
Calculating surface distance matrix               ...        done! (  0.0s)
Performing Cholesky decomposition & store         ...        done! (  0.1s)
Overall time for CPCM initialization              ...                 0.1s
 re-compute Schwartz prescreening matrix in partically contracted basis (1) ...done (   0.204 sec)
--------------
SCF ITERATIONS
--------------
ITER       Energy         Delta-E        Max-DP      RMS-DP      [F,P]     Damp
               ***  Starting incremental Fock matrix formation  ***
  0  -1239.9624499069   0.000000000000 0.16432238  0.00161598  0.1465584 0.7000
  1  -1240.1148010358  -0.152351128935 0.11612814  0.00129874  0.0839598 0.7000
                               ***Turning on DIIS***
  2  -1240.1906941857  -0.075893149876 0.27750291  0.00309582  0.0399184 0.0000
  3  -1240.3058436856  -0.115149499885 0.10940470  0.00078571  0.0412793 0.0000
  4  -1240.3296343182  -0.023790632635 0.02584001  0.00027600  0.0068568 0.0000
                      *** Initiating the SOSCF procedure ***
                           *** Shutting down DIIS ***
                      *** Re-Reading the Fockian *** 
                      *** Removing any level shift *** 
ITER      Energy       Delta-E        Grad      Rot      Max-DP    RMS-DP
  5  -1240.33036625  -0.0007319323  0.001163  0.001163  0.013626  0.000100
               *** Restarting incremental Fock matrix formation ***
  6  -1240.33049729  -0.0001310386  0.000773  0.003451  0.013118  0.000175
  7  -1240.33054805  -0.0000507636  0.000347  0.003546  0.006676  0.000096
  8  -1240.33055757  -0.0000095222  0.000276  0.000738  0.005817  0.000077
  9  -1240.33056275  -0.0000051787  0.000046  0.000129  0.002672  0.000017
 10  -1240.33056291  -0.0000001561  0.000043  0.000184  0.000838  0.000013
 11  -1240.33056301  -0.0000000966  0.000006  0.000040  0.001545  0.000022
 12  -1240.33056303  -0.0000000207  0.000005  0.000016  0.000996  0.000014
                  ***Gradient check signals convergence***
              ***Rediagonalizing the Fockian in SOSCF/NRSCF***

               *****************************************************
               *                     SUCCESS                       *
               *           SCF CONVERGED AFTER  13 CYCLES          *
               *****************************************************

Old exchange energy                            =    -63.915793451 Eh
New exchange energy                            =    -63.915785805 Eh
Exchange energy change after final integration =      0.000007646 Eh
Total energy after final integration           =  -1240.330555395 Eh
Final COS-X integration done in                =   139.419 sec

SMD CDS free energy correction energy :                -2.96894     Kcal/mol
Total Energy after SMD CDS correction =             -1240.335286708 Eh

----------------
TOTAL SCF ENERGY
----------------

Total Energy       :        -1240.33528671 Eh          -33751.23903 eV

Components:
Nuclear Repulsion  :         1078.64971939 Eh           29351.55107 eV
Electronic Energy  :        -2318.98500610 Eh          -63102.79010 eV
One Electron Energy:        -3841.33105425 Eh         -104527.93208 eV
Two Electron Energy:         1522.34604815 Eh           41425.14198 eV
Max COSX asymmetry :            0.00000585 Eh               0.00016 eV
CPCM Dielectric    :           -0.01238792 Eh              -0.33709 eV
SMD CDS (Gcds)     :           -0.00473131 Eh              -0.12875 eV

Virial components:
Potential Energy   :        -2476.27131984 Eh          -67382.76829 eV
Kinetic Energy     :         1235.93603313 Eh           33631.52926 eV
Virial Ratio       :            2.00355945


DFT components:
N(Alpha)           :       59.000005460985 electrons
N(Beta)            :       59.000005460985 electrons
N(Total)           :      118.000010921970 electrons
E(XC)              :      -58.847299228028 Eh       
DFET-embed. en.    :        0.000000000000 Eh       
CPCM Solvation Model Properties:
Surface-charge          :           -0.05379998
Charge-correction       :            0.00039055 Eh               0.01063 eV
Free-energy (cav+disp)  :           -0.00473131 Eh              -0.12875 eV

---------------
SCF CONVERGENCE
---------------

  Last Energy change         ...   -1.4253e-08  Tolerance :   1.0000e-08
  Last MAX-Density change    ...    3.1086e-15  Tolerance :   1.0000e-07
  Last RMS-Density change    ...    1.7947e-17  Tolerance :   5.0000e-09
  Last Orbital Gradient      ...    1.8405e-06  Tolerance :   1.0000e-05
  Last Orbital Rotation      ...    1.0358e-05  Tolerance :   1.0000e-05

             **** THE GBW FILE WAS UPDATED (m062x-train-4.gbw) ****
             **** DENSITY m062x-train-4.scfp WAS UPDATED ****
             **** ENERGY FILE WAS UPDATED (m062x-train-4.en.tmp) ****
             **** THE GBW FILE WAS UPDATED (m062x-train-4.gbw) ****
             **** DENSITY m062x-train-4.scfp WAS UPDATED ****
----------------
ORBITAL ENERGIES
----------------

  NO   OCC          E(Eh)            E(eV) 
   0   2.0000     -89.969236     -2448.1874 
   1   2.0000     -78.052229     -2123.9091 
   2   2.0000     -10.596109      -288.3348 
   3   2.0000     -10.586286      -288.0675 
   4   2.0000     -10.565893      -287.5126 
   5   2.0000     -10.558813      -287.3199 
   6   2.0000     -10.551826      -287.1298 
   7   2.0000     -10.549626      -287.0699 
   8   2.0000     -10.548360      -287.0355 
   9   2.0000     -10.547331      -287.0075 
  10   2.0000     -10.547122      -287.0018 
  11   2.0000     -10.544716      -286.9363 
  12   2.0000     -10.544169      -286.9214 
  13   2.0000     -10.543502      -286.9033 
  14   2.0000     -10.543272      -286.8970 
  15   2.0000      -8.304294      -225.9713 
  16   2.0000      -6.851266      -186.4324 
  17   2.0000      -6.223713      -169.3559 
  18   2.0000      -6.221536      -169.2966 
  19   2.0000      -6.219729      -169.2474 
  20   2.0000      -4.965893      -135.1288 
  21   2.0000      -4.965518      -135.1186 
  22   2.0000      -4.963772      -135.0711 
  23   2.0000      -0.996426       -27.1141 
  24   2.0000      -0.978004       -26.6128 
  25   2.0000      -0.930174       -25.3113 
  26   2.0000      -0.876284       -23.8449 
  27   2.0000      -0.862384       -23.4666 
  28   2.0000      -0.853617       -23.2281 
  29   2.0000      -0.815124       -22.1807 
  30   2.0000      -0.773705       -21.0536 
  31   2.0000      -0.716854       -19.5066 
  32   2.0000      -0.700773       -19.0690 
  33   2.0000      -0.681744       -18.5512 
  34   2.0000      -0.655708       -17.8427 
  35   2.0000      -0.633550       -17.2398 
  36   2.0000      -0.589347       -16.0369 
  37   2.0000      -0.557549       -15.1717 
  38   2.0000      -0.546054       -14.8589 
  39   2.0000      -0.540045       -14.6954 
  40   2.0000      -0.514485       -13.9998 
  41   2.0000      -0.513480       -13.9725 
  42   2.0000      -0.494952       -13.4683 
  43   2.0000      -0.485196       -13.2028 
  44   2.0000      -0.484684       -13.1889 
  45   2.0000      -0.471500       -12.8302 
  46   2.0000      -0.460472       -12.5301 
  47   2.0000      -0.445654       -12.1269 
  48   2.0000      -0.418209       -11.3800 
  49   2.0000      -0.410522       -11.1709 
  50   2.0000      -0.406215       -11.0537 
  51   2.0000      -0.401599       -10.9281 
  52   2.0000      -0.388465       -10.5707 
  53   2.0000      -0.351189        -9.5563 
  54   2.0000      -0.335388        -9.1264 
  55   2.0000      -0.332941        -9.0598 
  56   2.0000      -0.319225        -8.6866 
  57   2.0000      -0.286655        -7.8003 
  58   2.0000      -0.257703        -7.0124 
  59   0.0000      -0.055950        -1.5225 
  60   0.0000       0.003799         0.1034 
  61   0.0000       0.005842         0.1590 
  62   0.0000       0.007548         0.2054 
  63   0.0000       0.008723         0.2374 
  64   0.0000       0.015834         0.4309 
  65   0.0000       0.022887         0.6228 
  66   0.0000       0.023657         0.6437 
  67   0.0000       0.025702         0.6994 
  68   0.0000       0.028152         0.7661 
  69   0.0000       0.036725         0.9993 
  70   0.0000       0.036768         1.0005 
  71   0.0000       0.043204         1.1756 
  72   0.0000       0.043511         1.1840 
  73   0.0000       0.047338         1.2881 
  74   0.0000       0.050314         1.3691 
  75   0.0000       0.053685         1.4608 
  76   0.0000       0.055181         1.5015 
  77   0.0000       0.059964         1.6317 
  78   0.0000       0.062415         1.6984 
  79   0.0000       0.066435         1.8078 
  80   0.0000       0.070058         1.9064 
  81   0.0000       0.074882         2.0376 
  82   0.0000       0.078462         2.1351 
  83   0.0000       0.091293         2.4842 
  84   0.0000       0.092384         2.5139 
  85   0.0000       0.095738         2.6052 
  86   0.0000       0.095940         2.6107 
  87   0.0000       0.097816         2.6617 
  88   0.0000       0.098798         2.6884 
  89   0.0000       0.102160         2.7799 
  90   0.0000       0.110394         3.0040 
  91   0.0000       0.121378         3.3029 
  92   0.0000       0.123795         3.3686 
  93   0.0000       0.123936         3.3725 
  94   0.0000       0.125769         3.4223 
  95   0.0000       0.129388         3.5208 
  96   0.0000       0.129624         3.5273 
  97   0.0000       0.131570         3.5802 
  98   0.0000       0.140933         3.8350 
  99   0.0000       0.141948         3.8626 
 100   0.0000       0.146278         3.9804 
 101   0.0000       0.146855         3.9961 
 102   0.0000       0.148737         4.0473 
 103   0.0000       0.151025         4.1096 
 104   0.0000       0.153113         4.1664 
 105   0.0000       0.157241         4.2787 
 106   0.0000       0.160112         4.3569 
 107   0.0000       0.163872         4.4592 
 108   0.0000       0.164489         4.4760 
 109   0.0000       0.166359         4.5269 
 110   0.0000       0.167205         4.5499 
 111   0.0000       0.169816         4.6209 
 112   0.0000       0.172351         4.6899 
 113   0.0000       0.179570         4.8864 
 114   0.0000       0.182671         4.9707 
 115   0.0000       0.184980         5.0336 
 116   0.0000       0.185010         5.0344 
 117   0.0000       0.189535         5.1575 
 118   0.0000       0.196698         5.3524 
 119   0.0000       0.202076         5.4988 
 120   0.0000       0.203919         5.5489 
 121   0.0000       0.206050         5.6069 
 122   0.0000       0.206166         5.6101 
 123   0.0000       0.212357         5.7785 
 124   0.0000       0.216463         5.8903 
 125   0.0000       0.217198         5.9103 
 126   0.0000       0.229569         6.2469 
 127   0.0000       0.231601         6.3022 
 128   0.0000       0.236751         6.4423 
 129   0.0000       0.238588         6.4923 
 130   0.0000       0.240597         6.5470 
 131   0.0000       0.252945         6.8830 
 132   0.0000       0.256017         6.9666 
 133   0.0000       0.261064         7.1039 
 134   0.0000       0.261853         7.1254 
 135   0.0000       0.263652         7.1743 
 136   0.0000       0.266394         7.2490 
 137   0.0000       0.267951         7.2913 
 138   0.0000       0.269119         7.3231 
 139   0.0000       0.274971         7.4823 
 140   0.0000       0.278827         7.5873 
 141   0.0000       0.288758         7.8575 
 142   0.0000       0.291910         7.9433 
 143   0.0000       0.296483         8.0677 
 144   0.0000       0.296546         8.0694 
 145   0.0000       0.301023         8.1912 
 146   0.0000       0.303776         8.2662 
 147   0.0000       0.307645         8.3714 
 148   0.0000       0.310175         8.4403 
 149   0.0000       0.318442         8.6653 
 150   0.0000       0.318778         8.6744 
 151   0.0000       0.322218         8.7680 
 152   0.0000       0.328780         8.9466 
 153   0.0000       0.331125         9.0104 
 154   0.0000       0.333188         9.0665 
 155   0.0000       0.342603         9.3227 
 156   0.0000       0.344819         9.3830 
 157   0.0000       0.346278         9.4227 
 158   0.0000       0.348704         9.4887 
 159   0.0000       0.352223         9.5845 
 160   0.0000       0.358475         9.7546 
 161   0.0000       0.358691         9.7605 
 162   0.0000       0.361732         9.8432 
 163   0.0000       0.371798        10.1171 
 164   0.0000       0.374123        10.1804 
 165   0.0000       0.381517        10.3816 
 166   0.0000       0.381692        10.3864 
 167   0.0000       0.383369        10.4320 
 168   0.0000       0.385282        10.4841 
 169   0.0000       0.388071        10.5599 
 170   0.0000       0.391045        10.6409 
 171   0.0000       0.394346        10.7307 
 172   0.0000       0.401884        10.9358 
 173   0.0000       0.406476        11.0608 
 174   0.0000       0.410777        11.1778 
 175   0.0000       0.411352        11.1935 
 176   0.0000       0.412985        11.2379 
 177   0.0000       0.413775        11.2594 
 178   0.0000       0.414552        11.2805 
 179   0.0000       0.420969        11.4551 
 180   0.0000       0.424287        11.5454 
 181   0.0000       0.424533        11.5521 
 182   0.0000       0.428130        11.6500 
 183   0.0000       0.431768        11.7490 
 184   0.0000       0.436160        11.8685 
 185   0.0000       0.437769        11.9123 
 186   0.0000       0.441643        12.0177 
 187   0.0000       0.446604        12.1527 
 188   0.0000       0.448345        12.2001 
 189   0.0000       0.450909        12.2698 
 190   0.0000       0.455427        12.3928 
 191   0.0000       0.457598        12.4519 
 192   0.0000       0.464496        12.6396 
 193   0.0000       0.466520        12.6946 
 194   0.0000       0.472428        12.8554 
 195   0.0000       0.475189        12.9306 
 196   0.0000       0.479099        13.0369 
 197   0.0000       0.480145        13.0654 
 198   0.0000       0.487588        13.2679 
 199   0.0000       0.491735        13.3808 
 200   0.0000       0.500628        13.6228 
 201   0.0000       0.503107        13.6902 
 202   0.0000       0.506468        13.7817 
 203   0.0000       0.506578        13.7847 
 204   0.0000       0.512053        13.9337 
 205   0.0000       0.512717        13.9517 
 206   0.0000       0.514392        13.9973 
 207   0.0000       0.522379        14.2146 
 208   0.0000       0.528353        14.3772 
 209   0.0000       0.529417        14.4062 
 210   0.0000       0.535186        14.5631 
 211   0.0000       0.544182        14.8079 
 212   0.0000       0.551637        15.0108 
 213   0.0000       0.559191        15.2164 
 214   0.0000       0.560633        15.2556 
 215   0.0000       0.572693        15.5838 
 216   0.0000       0.575116        15.6497 
 217   0.0000       0.592821        16.1315 
 218   0.0000       0.598699        16.2914 
 219   0.0000       0.602745        16.4015 
 220   0.0000       0.608564        16.5599 
 221   0.0000       0.608713        16.5639 
 222   0.0000       0.623877        16.9765 
 223   0.0000       0.633647        17.2424 
 224   0.0000       0.634763        17.2728 
 225   0.0000       0.641725        17.4622 
 226   0.0000       0.649913        17.6850 
 227   0.0000       0.652619        17.7587 
 228   0.0000       0.656894        17.8750 
 229   0.0000       0.657565        17.8932 
 230   0.0000       0.663604        18.0576 
 231   0.0000       0.665501        18.1092 
 232   0.0000       0.665572        18.1111 
 233   0.0000       0.672220        18.2920 
 234   0.0000       0.672706        18.3053 
 235   0.0000       0.681088        18.5333 
 236   0.0000       0.681692        18.5498 
 237   0.0000       0.684275        18.6201 
 238   0.0000       0.690584        18.7917 
 239   0.0000       0.693785        18.8788 
 240   0.0000       0.699647        19.0384 
 241   0.0000       0.701134        19.0788 
 242   0.0000       0.708505        19.2794 
 243   0.0000       0.715354        19.4658 
 244   0.0000       0.716081        19.4856 
 245   0.0000       0.721144        19.6233 
 246   0.0000       0.722894        19.6709 
 247   0.0000       0.730097        19.8670 
 248   0.0000       0.731994        19.9186 
 249   0.0000       0.733534        19.9605 
 250   0.0000       0.740627        20.1535 
 251   0.0000       0.746552        20.3147 
 252   0.0000       0.751901        20.4603 
 253   0.0000       0.752582        20.4788 
 254   0.0000       0.759293        20.6614 
 255   0.0000       0.764551        20.8045 
 256   0.0000       0.766914        20.8688 
 257   0.0000       0.773445        21.0465 
 258   0.0000       0.774415        21.0729 
 259   0.0000       0.779345        21.2071 
 260   0.0000       0.781920        21.2771 
 261   0.0000       0.783076        21.3086 
 262   0.0000       0.788427        21.4542 
 263   0.0000       0.790171        21.5017 
 264   0.0000       0.796968        21.6866 
 265   0.0000       0.797250        21.6943 
 266   0.0000       0.801841        21.8192 
 267   0.0000       0.808642        22.0043 
 268   0.0000       0.809994        22.0411 
 269   0.0000       0.817725        22.2514 
 270   0.0000       0.821325        22.3494 
 271   0.0000       0.830296        22.5935 
 272   0.0000       0.831507        22.6264 
 273   0.0000       0.839648        22.8480 
 274   0.0000       0.841822        22.9071 
 275   0.0000       0.844112        22.9695 
 276   0.0000       0.851109        23.1599 
 277   0.0000       0.852387        23.1946 
 278   0.0000       0.853089        23.2137 
 279   0.0000       0.863398        23.4943 
 280   0.0000       0.864692        23.5295 
 281   0.0000       0.870985        23.7007 
 282   0.0000       0.880572        23.9616 
 283   0.0000       0.890640        24.2355 
 284   0.0000       0.893829        24.3223 
 285   0.0000       0.897526        24.4229 
 286   0.0000       0.900373        24.5004 
 287   0.0000       0.904700        24.6181 
 288   0.0000       0.909833        24.7578 
 289   0.0000       0.909981        24.7618 
 290   0.0000       0.911967        24.8159 
 291   0.0000       0.919587        25.0232 
 292   0.0000       0.923758        25.1367 
 293   0.0000       0.924280        25.1509 
 294   0.0000       0.936149        25.4739 
[...]
Angular grid pruning method      GridPruning ... 4 (adaptive)
Weight generation scheme         WeightScheme... Becke
Basis function cutoff            BFCut       ... 1.0000e-11
Integration weight cutoff        WCut        ... 1.0000e-14
Angular grids for H and He will be reduced by one unit
Partially contracted basis set               ... on
Rotationally invariant grid construction     ... off

Total number of grid points                  ...    21738
Total number of batches                      ...      352
Average number of points per batch           ...       61
Average number of grid points per atom       ...      906

---------------
TD-DFT XC SETUP
---------------

DFT calculation                         ... on
Name of the grid file                   ... m062x-train-4_job2.grid_cis.tmp
Exchange functional (TD-DFT)            ... M062X
Correlation functional (TD-DFT)         ... M062X
Hybrid DFT                              ... on
   Exchange mixing (TD-DFT)             ...  0.540
   GGA exch. scaling (TD-DFT)           ...  0.460
   GGA corr. scaling (TD-DFT)           ...  1.000

Building densities             ... done
Calculating rho(r) on the grid ... done
Building xc-kernel on the grid ... done
                    *** TD-DFT CALCULATION INITIALIZED ***

---------------------------------
    LR-CPCM (non-equilibrium)
---------------------------------

Setting up LR-CPCM             ... done

------------------------
DAVIDSON-DIAGONALIZATION
------------------------

Dimension of the eigenvalue problem            ...  27540
Number of roots to be determined               ...     10
Maximum size of the expansion space            ...     70
Maximum number of iterations                   ...    100
Convergence tolerance for the residual         ...    1.000e-06
Convergence tolerance for the energies         ...    1.000e-06
Orthogonality tolerance                        ...    1.000e-14
Level Shift                                    ...    0.000e+00
Constructing the preconditioner                ... o.k.
Building the initial guess                     ... o.k.
Number of trial vectors determined             ...     70


                       ****Iteration    0****

   Memory handling for direct AO based CIS:
   Memory per vector needed      ...    31 MB
   Memory needed                 ...   932 MB
   Memory available              ...  4000 MB
   Number of vectors per batch   ...   128
   Number of batches             ...     1
   Time for densities:            0.396
   Time for RI-J (Direct):       11.541
   Time for K (COSX):           161.043
   Time for XC-Integration:     161.578
   Time for LR-CPCM terms:       12.743
   Time for Sigma-Completion:     0.325
   Size of expansion space: 30
   Lowest Energy          :     0.157217000839
   Maximum Energy change  :     0.221276879703 (vector 9)
   Maximum residual norm  :     0.014457339430

                       ****Iteration    1****
   Time for densities:            0.133
   Time for RI-J (Direct):        6.718
   Time for K (COSX):            60.703
   Time for XC-Integration:      58.560
   Time for LR-CPCM terms:        5.962
   Time for Sigma-Completion:     0.104
   Size of expansion space: 40
   Lowest Energy          :     0.139341181340
   Maximum Energy change  :     0.017875819498 (vector 0)
   Maximum residual norm  :     0.000610322429

                       ****Iteration    2****
   Time for densities:            0.132
   Time for RI-J (Direct):        6.710
   Time for K (COSX):            61.565
   Time for XC-Integration:      59.213
   Time for LR-CPCM terms:        6.003
   Time for Sigma-Completion:     0.115
   Size of expansion space: 50
   Lowest Energy          :     0.138461439473
   Maximum Energy change  :     0.001231855486 (vector 4)
   Maximum residual norm  :     0.000107568822

                       ****Iteration    3****
   Time for densities:            0.134
   Time for RI-J (Direct):        6.778
   Time for K (COSX):            60.923
   Time for XC-Integration:      60.423
   Time for LR-CPCM terms:        6.006
   Time for Sigma-Completion:     0.104
   Size of expansion space: 60
   Lowest Energy          :     0.138373761759
   Maximum Energy change  :     0.002058934776 (vector 9)
   Maximum residual norm  :     0.002238526098

                       ****Iteration    4****
   Time for densities:            0.133
   Time for RI-J (Direct):        6.805
   Time for K (COSX):            60.364
   Time for XC-Integration:      59.784
   Time for LR-CPCM terms:        6.042
   Time for Sigma-Completion:     0.102
   Size of expansion space: 70
   Lowest Energy          :     0.138368072440
   Maximum Energy change  :     0.004739272468 (vector 9)
   Maximum residual norm  :     0.000277020193
   Rebuilding the expansion space

                       ****Iteration    5****
   Time for densities:            0.267
   Time for RI-J (Direct):        9.129
   Time for K (COSX):           113.443
   Time for XC-Integration:     116.543
   Time for LR-CPCM terms:        9.651
   Time for Sigma-Completion:     0.209
   Size of expansion space: 20
   Lowest Energy          :     0.138367846331
   Maximum Energy change  :     0.000358925080 (vector 9)
   Maximum residual norm  :     0.000043692373

                       ****Iteration    6****
   Time for densities:            0.135
   Time for RI-J (Direct):        6.786
   Time for K (COSX):            61.038
   Time for XC-Integration:      59.333
   Time for LR-CPCM terms:        5.954
   Time for Sigma-Completion:     0.099
   Size of expansion space: 30
   Lowest Energy          :     0.138367819641
   Maximum Energy change  :     0.000104726413 (vector 9)
   Maximum residual norm  :     0.000016463698

                       ****Iteration    7****
   Time for densities:            0.127
   Time for RI-J (Direct):        6.744
   Time for K (COSX):            59.817
   Time for XC-Integration:      59.752
   Time for LR-CPCM terms:        5.967
   Time for Sigma-Completion:     0.100
   Size of expansion space: 40
   Lowest Energy          :     0.138367817275
   Maximum Energy change  :     0.000026399607 (vector 9)
   Maximum residual norm  :     0.000004099669

                       ****Iteration    8****
   Time for densities:            0.129
   Time for RI-J (Direct):        6.737
   Time for K (COSX):            59.967
   Time for XC-Integration:      60.093
   Time for LR-CPCM terms:        5.986
   Time for Sigma-Completion:     0.099
   Size of expansion space: 50
   Lowest Energy          :     0.138367817000
   Maximum Energy change  :     0.000009544266 (vector 9)
   Maximum residual norm  :     0.000001728342

                       ****Iteration    9****
   Time for densities:            0.133
   Time for RI-J (Direct):        6.781
   Time for K (COSX):            60.497
   Time for XC-Integration:      61.726
   Time for LR-CPCM terms:        6.041
   Time for Sigma-Completion:     0.109
   Size of expansion space: 60
   Lowest Energy          :     0.138367816984
   Maximum Energy change  :     0.000006508731 (vector 9)
   Maximum residual norm  :     0.000001223248

                       ****Iteration   10****
   Time for densities:            0.137
   Time for RI-J (Direct):        6.838
   Time for K (COSX):            62.685
   Time for XC-Integration:      62.524
   Time for LR-CPCM terms:        6.053
   Time for Sigma-Completion:     0.115
   Size of expansion space: 70
   Lowest Energy          :     0.138367816983
   Maximum Energy change  :     0.000003211097 (vector 9)
   Maximum residual norm  :     0.000000357195

      *** CONVERGENCE OF RESIDUAL NORM REACHED ***

Storing the converged CI vectors               ... m062x-train-4_job2.cis1

                 *** DAVIDSON DONE ***

Total time for solving the CIS problem:  1806.180sec

------------------------------------
TD-DFT/TDA EXCITED STATES (SINGLETS)
------------------------------------

the weight of the individual excitations are printed if larger than 1.0e-02

STATE  1:  E=   0.138368 au      3.765 eV    30368.2 cm**-1 <S**2> =   0.000000
    58a ->  59a  :     0.943551 (c=  0.97136554)

STATE  2:  E=   0.156049 au      4.246 eV    34248.8 cm**-1 <S**2> =   0.000000
    57a ->  59a  :     0.874743 (c=  0.93527692)
    58a ->  60a  :     0.062474 (c= -0.24994729)

STATE  3:  E=   0.170899 au      4.650 eV    37507.9 cm**-1 <S**2> =   0.000000
    55a ->  59a  :     0.949316 (c=  0.97432858)
    55a ->  71a  :     0.010238 (c=  0.10118117)

STATE  4:  E=   0.177726 au      4.836 eV    39006.4 cm**-1 <S**2> =   0.000000
    54a ->  60a  :     0.014742 (c= -0.12141817)
    54a ->  65a  :     0.010908 (c=  0.10444300)
    56a ->  59a  :     0.530130 (c=  0.72809997)
    56a ->  69a  :     0.020515 (c=  0.14322885)
    57a ->  59a  :     0.016462 (c=  0.12830264)
    57a ->  60a  :     0.028624 (c=  0.16918742)
    57a ->  65a  :     0.028149 (c= -0.16777519)
    58a ->  60a  :     0.221083 (c=  0.47019434)
    58a ->  62a  :     0.028488 (c= -0.16878278)
    58a ->  65a  :     0.056993 (c= -0.23873252)

STATE  5:  E=   0.186074 au      5.063 eV    40838.6 cm**-1 <S**2> =   0.000000
    53a ->  59a  :     0.016009 (c= -0.12652507)
    54a ->  59a  :     0.018050 (c=  0.13434898)
    54a ->  60a  :     0.011009 (c= -0.10492381)
    56a ->  59a  :     0.070176 (c=  0.26490699)
    57a ->  59a  :     0.046618 (c= -0.21591241)
    57a ->  60a  :     0.041635 (c=  0.20404710)
    57a ->  62a  :     0.043464 (c= -0.20847919)
    57a ->  65a  :     0.017255 (c=  0.13135851)
    58a ->  60a  :     0.471980 (c= -0.68700771)
    58a ->  62a  :     0.112370 (c= -0.33521612)
    58a ->  65a  :     0.094235 (c= -0.30697711)

STATE  6:  E=   0.187034 au      5.089 eV    41049.2 cm**-1 <S**2> =   0.000000
    57a ->  61a  :     0.025991 (c=  0.16121827)
    57a ->  76a  :     0.011208 (c=  0.10586706)
    58a ->  61a  :     0.397743 (c= -0.63066835)
    58a ->  63a  :     0.055634 (c=  0.23586790)
    58a ->  66a  :     0.028833 (c=  0.16980405)
    58a ->  68a  :     0.109990 (c= -0.33164797)
    58a ->  70a  :     0.083440 (c=  0.28886000)
    58a ->  73a  :     0.053976 (c=  0.23232666)
    58a ->  76a  :     0.132387 (c= -0.36385012)

STATE  7:  E=   0.191217 au      5.203 eV    41967.3 cm**-1 <S**2> =   0.000000
    56a ->  59a  :     0.069990 (c=  0.26455638)
    57a ->  60a  :     0.016454 (c= -0.12827209)
    57a ->  62a  :     0.053822 (c= -0.23199595)
    58a ->  60a  :     0.028070 (c= -0.16754194)
    58a ->  62a  :     0.748192 (c=  0.86498081)
    58a ->  65a  :     0.029983 (c= -0.17315672)

STATE  8:  E=   0.199771 au      5.436 eV    43844.8 cm**-1 <S**2> =   0.000000
    58a ->  61a  :     0.284950 (c=  0.53380719)
    58a ->  63a  :     0.182557 (c=  0.42726632)
    58a ->  66a  :     0.069947 (c= -0.26447576)
    58a ->  68a  :     0.381753 (c= -0.61786168)
    58a ->  76a  :     0.011847 (c= -0.10884338)

STATE  9:  E=   0.205210 au      5.584 eV    45038.3 cm**-1 <S**2> =   0.000000
    54a ->  59a  :     0.395529 (c=  0.62891104)
    56a ->  59a  :     0.154965 (c= -0.39365564)
    57a ->  60a  :     0.038703 (c=  0.19673067)
    57a ->  62a  :     0.070672 (c= -0.26584228)
    57a ->  65a  :     0.010175 (c=  0.10087320)
    58a ->  60a  :     0.106699 (c=  0.32664854)
    58a ->  65a  :     0.137855 (c= -0.37128779)

STATE 10:  E=   0.208740 au      5.680 eV    45813.2 cm**-1 <S**2> =   0.000000
    53a ->  59a  :     0.062699 (c= -0.25039716)
    53a ->  60a  :     0.016161 (c= -0.12712554)
    54a ->  59a  :     0.326921 (c= -0.57177042)
    54a ->  60a  :     0.033536 (c= -0.18312744)
    54a ->  62a  :     0.020652 (c= -0.14370726)
    56a ->  59a  :     0.028285 (c= -0.16818220)
    57a ->  60a  :     0.020892 (c= -0.14454059)
    57a ->  62a  :     0.336208 (c= -0.57983449)
    58a ->  60a  :     0.042397 (c=  0.20590445)
    58a ->  65a  :     0.021475 (c= -0.14654252)


-----------------------------
TD-DFT/TDA-EXCITATION SPECTRA
-----------------------------

Center of mass = (  0.2829, -0.0017, -0.0094)
Calculating the Dipole integrals                  ... done
Transforming integrals                            ... done
Calculating the Linear Momentum integrals         ... done
Transforming integrals                            ... done
Calculating angular momentum integrals            ... done
Transforming integrals                            ... done

-----------------------------------------------------------------------------
         ABSORPTION SPECTRUM VIA TRANSITION ELECTRIC DIPOLE MOMENTS
-----------------------------------------------------------------------------
State   Energy    Wavelength  fosc         T2        TX        TY        TZ  
        (cm-1)      (nm)                 (au**2)    (au)      (au)      (au) 
-----------------------------------------------------------------------------
   1   30368.2    329.3   0.611441101   6.62843  -2.51469   0.41990  -0.35843
   2   34248.8    292.0   0.194360044   1.86826  -1.13147  -0.57633   0.50584
   3   37507.9    266.6   0.010939024   0.09601  -0.00588  -0.20235  -0.23459
   4   39006.4    256.4   0.065802465   0.55537  -0.51710  -0.40163   0.35590
   5   40838.6    244.9   0.215026813   1.73340   1.27834   0.23493  -0.20991
   6   41049.2    243.6   0.000468585   0.00376   0.01749   0.04894   0.03251
   7   41967.3    238.3   0.153618923   1.20506   1.09764   0.01082  -0.01168
   8   43844.8    228.1   0.006598918   0.04955  -0.00516  -0.14838  -0.16585
   9   45038.3    222.0   0.015283177   0.11171  -0.14428   0.22444  -0.20131
  10   45813.2    218.3   0.109146020   0.78432  -0.78995   0.30144  -0.26351

-----------------------------------------------------------------------------
         ABSORPTION SPECTRUM VIA TRANSITION VELOCITY DIPOLE MOMENTS
-----------------------------------------------------------------------------
State   Energy    Wavelength   fosc        P2         PX        PY        PZ  
        (cm-1)      (nm)                 (au**2)     (au)      (au)      (au) 
-----------------------------------------------------------------------------
   1   30368.2    329.3   0.154212891   0.03201   0.16473   0.05230  -0.04622
   2   34248.8    292.0   0.073738603   0.01726   0.12971  -0.01587   0.01356
   3   37507.9    266.6   0.000060966   0.00002   0.00039  -0.00242  -0.00310
   4   39006.4    256.4   0.017308976   0.00461   0.06732   0.00665  -0.00614
   5   40838.6    244.9   0.081316285   0.02270  -0.15047  -0.00535   0.00527
   6   41049.2    243.6   0.000253719   0.00007  -0.00215   0.00524   0.00626
   7   41967.3    238.3   0.067154753   0.01926  -0.13043  -0.03543   0.03154
   8   43844.8    228.1   0.003473979   0.00104   0.00076   0.02123   0.02428
   9   45038.3    222.0   0.000268264   0.00008   0.00861  -0.00215   0.00194
  10   45813.2    218.3   0.037954247   0.01188   0.10842  -0.00893   0.00707

-------------------------------------------------------------------
                             CD SPECTRUM
-------------------------------------------------------------------
State  Energy     Wavelength     R         MX        MY        MZ   
       (cm-1)       (nm)     (1e40*cgs)   (au)      (au)      (au)  
-------------------------------------------------------------------
   1   30368.2    329.3      0.41573  -0.00066  -0.07322  -0.08360
   2   34248.8    292.0     -0.56114   0.00146  -0.02839  -0.03143
   3   37507.9    266.6     -0.74718   0.47964   0.02331  -0.02537
   4   39006.4    256.4     -0.29580   0.00028  -0.06863  -0.07880
   5   40838.6    244.9      0.24170   0.00099   0.20962   0.23818
   6   41049.2    243.6      0.26612  -0.01115   0.03553  -0.03012
   7   41967.3    238.3      0.01927   0.00010   0.04269   0.04580
   8   43844.8    228.1     -0.89696   0.28068   0.03376  -0.02747
   9   45038.3    222.0      1.35296  -0.00227  -0.55008  -0.62592
  10   45813.2    218.3     -0.11014  -0.00049  -0.16279  -0.18386

-------------------------------------------------------------------
         CD SPECTRUM VIA TRANSITION VELOCITY DIPOLE MOMENTS        
-------------------------------------------------------------------
State  Energy     Wavelength     R         MX        MY        MZ   
       (cm-1)       (nm)     (1e40*cgs)   (au)      (au)      (au)  
-------------------------------------------------------------------
   1   30368.2    329.3     -0.25188  -0.00066  -0.07322  -0.08360
   2   34248.8    292.0      0.64608   0.00146  -0.02839  -0.03143
   3   37507.9    266.6      0.57377   0.47964   0.02331  -0.02537
   4   39006.4    256.4      0.12267   0.00028  -0.06863  -0.07880
   5   40838.6    244.9     -0.03947   0.00099   0.20962   0.23818
   6   41049.2    243.6      0.05417  -0.01115   0.03553  -0.03012
   7   41967.3    238.3     -0.20183   0.00010   0.04269   0.04580
   8   43844.8    228.1      0.61964   0.28068   0.03376  -0.02747
   9   45038.3    222.0     -0.11565  -0.00227  -0.55008  -0.62592
  10   45813.2    218.3      0.22621  -0.00049  -0.16279  -0.18386

Total run time:     1813.512 sec

           *** ORCA-CIS/TD-DFT FINISHED WITHOUT ERROR ***

Maximum memory used throughout the entire CIS-calculation: 909.5 MB

-----------------------
CIS/TD-DFT TOTAL ENERGY
-----------------------

    E(SCF)  =  -1240.336562787 Eh
    DE(CIS) =      0.138367817 Eh (Root  1)
    ----------------------------- ---------
    E(tot)  =  -1240.198194970 Eh


-------------------------   --------------------
FINAL SINGLE POINT ENERGY     -1240.198194969820
-------------------------   --------------------


                            ***************************************
                            *     ORCA property calculations      *
                            ***************************************

                                    ---------------------
                                    Active property flags
                                    ---------------------
   (+) Dipole Moment


------------------------------------------------------------------------------
                       ORCA ELECTRIC PROPERTIES CALCULATION
------------------------------------------------------------------------------

Dipole Moment Calculation                       ... on
Quadrupole Moment Calculation                   ... off
Polarizability Calculation                      ... off
GBWName                                         ... m062x-train-4_job2.gbw
Electron density                                ... m062x-train-4_job2.scfp
The origin for moment calculation is the CENTER OF MASS  = ( 0.282921, -0.001653 -0.009370)

-------------
DIPOLE MOMENT
-------------
                                X             Y             Z
Electronic contribution:      3.05542      -0.71553       0.64426
Nuclear contribution   :     -2.93987       1.03521      -0.92743
                        -----------------------------------------
Total Dipole Moment    :      0.11554       0.31967      -0.28317
                        -----------------------------------------
Magnitude (a.u.)       :      0.44241
Magnitude (Debye)      :      1.12451



--------------------
Rotational spectrum 
--------------------
 
Rotational constants in cm-1:     0.054318     0.009008     0.007727 
Rotational constants in MHz :  1628.420014   270.047282   231.635435 

 Dipole components along the rotational axes: 
x,y,z [a.u.] :     0.174981     0.406329     0.001551 
x,y,z [Debye]:     0.444765     1.032807     0.003942 

 

Timings for individual modules:

Sum of individual times         ...     2190.911 sec (=  36.515 min)
GTO integral calculation        ...        3.337 sec (=   0.056 min)   0.2 %
SCF iterations                  ...      373.293 sec (=   6.222 min)  17.0 %
CIS module                      ...     1814.281 sec (=  30.238 min)  82.8 %



                             ****ORCA TERMINATED NORMALLY****
TOTAL RUN TIME: 0 days 3 hours 32 minutes 43 seconds 589 msec
