
                                 *****************
                                 * O   R   C   A *
                                 *****************

                                            #,                                       
                                            ###                                      
                                            ####                                     
                                            #####                                    
                                            ######                                   
                                           ########,                                 
                                     ,,################,,,,,                         
                               ,,#################################,,                 
                          ,,##########################################,,             
                       ,#########################################, ''#####,          
                    ,#############################################,,   '####,        
                  ,##################################################,,,,####,       
                ,###########''''           ''''###############################       
              ,#####''   ,,,,##########,,,,          '''####'''          '####       
            ,##' ,,,,###########################,,,                        '##       
           ' ,,###''''                  '''############,,,                           
         ,,##''                                '''############,,,,        ,,,,,,###''
      ,#''                                            '''#######################'''  
     '                                                          ''''####''''         
             ,#######,   #######,   ,#######,      ##                                
            ,#'     '#,  ##    ##  ,#'     '#,    #''#        ######   ,####,        
            ##       ##  ##   ,#'  ##            #'  '#       #        #'  '#        
            ##       ##  #######   ##           ,######,      #####,   #    #        
            '#,     ,#'  ##    ##  '#,     ,#' ,#      #,         ##   #,  ,#        
             '#######'   ##     ##  '#######'  #'      '#     #####' # '####'        



                  #######################################################
                  #                        -***-                        #
                  #          Department of theory and spectroscopy      #
                  #    Directorship and core code : Frank Neese         #
                  #        Max Planck Institute fuer Kohlenforschung    #
                  #                Kaiser Wilhelm Platz 1               #
                  #                 D-45470 Muelheim/Ruhr               #
                  #                      Germany                        #
                  #                                                     #
                  #                  All rights reserved                #
                  #                        -***-                        #
                  #######################################################


                         Program Version 5.0.2 -  RELEASE  -


 With contributions from (in alphabetic order):
   Daniel Aravena         : Magnetic Suceptibility
   Michael Atanasov       : Ab Initio Ligand Field Theory (pilot matlab implementation)
   Alexander A. Auer      : GIAO ZORA, VPT2 properties, NMR spectrum
   Ute Becker             : Parallelization
   Giovanni Bistoni       : ED, misc. LED, open-shell LED, HFLD
   Martin Brehm           : Molecular dynamics
   Dmytro Bykov           : SCF Hessian
   Vijay G. Chilkuri      : MRCI spin determinant printing, contributions to CSF-ICE
   Dipayan Datta          : RHF DLPNO-CCSD density
   Achintya Kumar Dutta   : EOM-CC, STEOM-CC
   Dmitry Ganyushin       : Spin-Orbit,Spin-Spin,Magnetic field MRCI
   Miquel Garcia          : C-PCM and meta-GGA Hessian, CC/C-PCM, Gaussian charge scheme
   Yang Guo               : DLPNO-NEVPT2, F12-NEVPT2, CIM, IAO-localization
   Andreas Hansen         : Spin unrestricted coupled pair/coupled cluster methods
   Benjamin Helmich-Paris : MC-RPA, TRAH-SCF, COSX integrals
   Lee Huntington         : MR-EOM, pCC
   Robert Izsak           : Overlap fitted RIJCOSX, COSX-SCS-MP3, EOM
   Marcus Kettner         : VPT2
   Christian Kollmar      : KDIIS, OOCD, Brueckner-CCSD(T), CCSD density, CASPT2, CASPT2-K
   Simone Kossmann        : Meta GGA functionals, TD-DFT gradient, OOMP2, MP2 Hessian
   Martin Krupicka        : Initial AUTO-CI
   Lucas Lang             : DCDCAS
   Marvin Lechner         : AUTO-CI (C++ implementation), FIC-MRCC
   Dagmar Lenk            : GEPOL surface, SMD
   Dimitrios Liakos       : Extrapolation schemes; Compound Job, initial MDCI parallelization
   Dimitrios Manganas     : Further ROCIS development; embedding schemes
   Dimitrios Pantazis     : SARC Basis sets
   Anastasios Papadopoulos: AUTO-CI, single reference methods and gradients
   Taras Petrenko         : DFT Hessian,TD-DFT gradient, ASA, ECA, R-Raman, ABS, FL, XAS/XES, NRVS
   Peter Pinski           : DLPNO-MP2, DLPNO-MP2 Gradient
   Christoph Reimann      : Effective Core Potentials
   Marius Retegan         : Local ZFS, SOC
   Christoph Riplinger    : Optimizer, TS searches, QM/MM, DLPNO-CCSD(T), (RO)-DLPNO pert. Triples
   Tobias Risthaus        : Range-separated hybrids, TD-DFT gradient, RPA, STAB
   Michael Roemelt        : Original ROCIS implementation
   Masaaki Saitow         : Open-shell DLPNO-CCSD energy and density
   Barbara Sandhoefer     : DKH picture change effects
   Avijit Sen             : IP-ROCIS
   Kantharuban Sivalingam : CASSCF convergence, NEVPT2, FIC-MRCI
   Bernardo de Souza      : ESD, SOC TD-DFT
   Georgi Stoychev        : AutoAux, RI-MP2 NMR, DLPNO-MP2 response
   Willem Van den Heuvel  : Paramagnetic NMR
   Boris Wezisla          : Elementary symmetry handling
   Frank Wennmohs         : Technical directorship


 We gratefully acknowledge several colleagues who have allowed us to
 interface, adapt or use parts of their codes:
   Stefan Grimme, W. Hujo, H. Kruse, P. Pracht,  : VdW corrections, initial TS optimization,
                  C. Bannwarth, S. Ehlert          DFT functionals, gCP, sTDA/sTD-DF
   Ed Valeev, F. Pavosevic, A. Kumar             : LibInt (2-el integral package), F12 methods
   Garnet Chan, S. Sharma, J. Yang, R. Olivares  : DMRG
   Ulf Ekstrom                                   : XCFun DFT Library
   Mihaly Kallay                                 : mrcc  (arbitrary order and MRCC methods)
   Jiri Pittner, Ondrej Demel                    : Mk-CCSD
   Frank Weinhold                                : gennbo (NPA and NBO analysis)
   Christopher J. Cramer and Donald G. Truhlar   : smd solvation model
   Lars Goerigk                                  : TD-DFT with DH, B97 family of functionals
   V. Asgeirsson, H. Jonsson                     : NEB implementation
   FAccTs GmbH                                   : IRC, NEB, NEB-TS, DLPNO-Multilevel, CI-OPT
                                                   MM, QMMM, 2- and 3-layer-ONIOM, Crystal-QMMM,
                                                   LR-CPCM, SF, NACMEs, symmetry and pop. for TD-DFT,
                                                   nearIR, NL-DFT gradient (VV10), updates on ESD,
                                                   ML-optimized integration grids
   S Lehtola, MJT Oliveira, MAL Marques          : LibXC Library
   Liviu Ungur et al                             : ANISO software


 Your calculation uses the libint2 library for the computation of 2-el integrals
 For citations please refer to: http://libint.valeyev.net

 Your ORCA version has been built with support for libXC version: 5.1.0
 For citations please refer to: https://tddft.org/programs/libxc/

 This ORCA versions uses:
   CBLAS   interface :  Fast vector & matrix operations
   LAPACKE interface :  Fast linear algebra routines
   SCALAPACK package :  Parallel linear algebra routines
   Shared memory     :  Shared parallel matrices
   BLAS/LAPACK       :  OpenBLAS 0.3.15  USE64BITINT DYNAMIC_ARCH NO_AFFINITY Haswell SINGLE_THREADED
        Core in use  :  Haswell
   Copyright (c) 2011-2014, The OpenBLAS Project


Your calculation utilizes the atom-pairwise dispersion correction
with the Becke-Johnson damping scheme (D3BJ)
Cite in your paper:
S.Grimme, S.Ehrlich, L.Goerigk, J Comput Chem, (2011), 32, 1456–1465 
S.Grimme, J.Antony, S.Ehrlich and H.Krieg, J.Chem.Phys., 132, (2010), 154104 
   

Your calculation utilizes the SMD solvation module
Please cite in your paper:
A.V. Marenich, C.J. Cramer, D.G. Truhlar J. Phys. Chem. B, 113, (2009), 6378 

================================================================================

----- Orbital basis set information -----
Your calculation utilizes the basis: aug-cc-pVTZ 
    H, B-Ne : Obtained from the ccRepo (grant-hill.group.shef.ac.uk/ccrepo) Feb. 2017
              R. A. Kendall, T. H. Dunning, Jr., R. J. Harrison, J. Chem. Phys. 96, 6796 (1992)
         He : Obtained from the ccRepo (grant-hill.group.shef.ac.uk/ccrepo) Feb. 2017
              D. E. Woon, T. H. Dunning, Jr., J. Chem. Phys. 100, 2975 (1994)
  Li-Be, Na : Obtained from the ccRepo (grant-hill.group.shef.ac.uk/ccrepo) Feb. 2017
              B. P. Prascher, D. E. Woon, K. A. Peterson, T. H. Dunning, Jr., A. K. Wilson, Theor. Chem. Acc. 128, 69 (2011)
         Mg : Obtained from the Peterson Research Group Website (tyr0.chem.wsu.edu/~kipeters) Feb. 2017
              B. P. Prascher, D. E. Woon, K. A. Peterson, T. H. Dunning, Jr., A. K. Wilson, Theor. Chem. Acc. 128, 69 (2011)
      Al-Ar : Obtained from the ccRepo (grant-hill.group.shef.ac.uk/ccrepo) Feb. 2017
              D. E. Woon, T. H. Dunning, Jr., J. Chem. Phys. 98, 1358 (1993)
      Sc-Zn : Obtained from the ccRepo (grant-hill.group.shef.ac.uk/ccrepo) Feb. 2017
              N. B. Balabanov, K. A. Peterson, J. Chem. Phys. 123, 064107 (2005)
              N. B. Balabanov, K. A. Peterson, J. Chem. Phys. 125, 074110 (2006)
      Ga-Kr : Obtained from the ccRepo (grant-hill.group.shef.ac.uk/ccrepo) Feb. 2017
              A. K. Wilson, D. E. Woon, K. A. Peterson, T. H. Dunning, Jr., J. Chem. Phys. 110, 7667 (1999)
     Ag, Au : Obtained from the Peterson Research Group Website (tyr0.chem.wsu.edu/~kipeters) Feb. 2017
              K. A. Peterson, C. Puzzarini, Theor. Chem. Acc. 114, 283 (2005)

The basis set includes element-specific modifications.

Your calculation utilizes the basis: cc-pVTZ 
       H, B-Ne : Obtained from the ccRepo (grant-hill.group.shef.ac.uk/ccrepo) Feb. 2017
                 T. H. Dunning, Jr., J. Chem. Phys. 90, 1007 (1989)
            He : Obtained from the ccRepo (grant-hill.group.shef.ac.uk/ccrepo) Feb. 2017
                 D. E. Woon, T. H. Dunning, Jr., J. Chem. Phys. 100, 2975 (1994)
  Li-Be, Na-Mg : Obtained from the ccRepo (grant-hill.group.shef.ac.uk/ccrepo) Feb. 2017
                 B. P. Prascher, D. E. Woon, K. A. Peterson, T. H. Dunning, Jr., A. K. Wilson, Theor. Chem. Acc. 128, 69 (2011)
         Al-Ar : Obtained from the ccRepo (grant-hill.group.shef.ac.uk/ccrepo) Feb. 2017
                 D. E. Woon, T. H. Dunning, Jr., J. Chem. Phys. 98, 1358 (1993)
            Ca : Obtained from the Peterson Research Group Website (tyr0.chem.wsu.edu/~kipeters) Feb. 2017
                 J. Koput, K. A. Peterson, J. Phys. Chem. 106, 9595 (2002)
         Sc-Zn : Obtained from the ccRepo (grant-hill.group.shef.ac.uk/ccrepo) Feb. 2017
                 N. B. Balabanov, K. A. Peterson, J. Chem. Phys. 123, 064107 (2005)
                 N. B. Balabanov, K. A. Peterson, J. Chem. Phys. 125, 074110 (2006)
         Ga-Kr : Obtained from the ccRepo (grant-hill.group.shef.ac.uk/ccrepo) Feb. 2017
                 A. K. Wilson, D. E. Woon, K. A. Peterson, T. H. Dunning, Jr., J. Chem. Phys. 110, 7667 (1999)
             Y : Obtained from the ccRepo (grant-hill.group.shef.ac.uk/ccrepo) Feb. 2017
                 K. A. Peterson, D. Figgen, M. Dolg, H. Stoll, J. Chem. Phys. 126, 124101 (2007)
        Ag, Au : Obtained from the Peterson Research Group Website (tyr0.chem.wsu.edu/~kipeters) Feb. 2017
                 K. A. Peterson, C. Puzzarini, Theor. Chem. Acc. 114, 283 (2005)

----- AuxJ basis set information -----
Your calculation utilizes the auxiliary basis: aug-cc-pVTZ/JK 
  H, B-F, Al-Cl, Ga-Br : Obtained from the TURBOMOLE 7.0 basis set library

The basis set includes element-specific modifications.

Your calculation utilizes the auxiliary basis: cc-pVTZ/JK 
  H, B-F, Al-Cl, Ga-Br : Obtained from the TURBOMOLE 7.0 basis set library

----- AuxC basis set information -----
Your calculation utilizes the auxiliary basis: aug-cc-pVTZ/C 
  H-He, B-F, Al-Ar, Ga-Kr : Obtained from the EMSL Basis Set Exchange (bse.pnl.gov) Feb. 2017
                            F. Weigend, A. Kohn, C. Hattig, J. Chem. Phys. 116, 3175 (2002)
                   Be, Mg : Obtained from the TURBOMOLE 7.0 basis set library
                            C. Haettig, Phys. Chem. Chem. Phys. 7, 59 (2005)
                       Ne : Obtained from the EMSL Basis Set Exchange (bse.pnl.gov) Feb. 2017
                            C. Haettig, Phys. Chem. Chem. Phys. 7, 59 (2005)
                            F. Weigend, A. Kohn, C. Hattig, J. Chem. Phys. 116, 3175 (2002)
                    Sc-Zn : Obtained from the EMSL Basis Set Exchange (bse.pnl.gov) Feb. 2017
                            J. G. Hill, J. A. Platts, J. Chem. Phys. 128, 044104 (2008)

The basis set includes element-specific modifications.

Your calculation utilizes the auxiliary basis: cc-pVTZ/C 
  Obtained from the EMSL Basis Set Exchange (bse.pnl.gov) Feb. 2017
  H-He, B-F, Al-Ar, Ga-Kr : F. Weigend, A. Kohn, C. Hattig, J. Chem. Phys. 116, 3175 (2002)
             Li-Be, Na-Mg : C. Haettig, Phys. Chem. Chem. Phys. 7, 59 (2005)
                       Ne : C. Haettig, Phys. Chem. Chem. Phys. 7, 59 (2005)
                            F. Weigend, A. Kohn, C. Hattig, J. Chem. Phys. 116, 3175 (2002)
                    Sc-Zn : J. G. Hill, J. A. Platts, J. Chem. Phys. 128, 044104 (2008)

================================================================================
                                        WARNINGS
                       Please study these warnings very carefully!
================================================================================


WARNING: Geometry Optimization
  ===> : Switching off AutoStart
         For restart on a previous wavefunction, please use MOREAD

INFO   : the flag for use of the SHARK integral package has been found!



***************************************
The coordinates will be read from file: 
***************************************


Your calculation utilizes the atom-pairwise dispersion correction
with the Becke-Johnson damping scheme (D3BJ)
Cite in your paper:
S.Grimme, S.Ehrlich, L.Goerigk, J Comput Chem, (2011), 32, 1456–1465 
S.Grimme, J.Antony, S.Ehrlich and H.Krieg, J.Chem.Phys., 132, (2010), 154104 
   

Your calculation utilizes the SMD solvation module
Please cite in your paper:
A.V. Marenich, C.J. Cramer, D.G. Truhlar J. Phys. Chem. B, 113, (2009), 6378 

================================================================================

----- Orbital basis set information -----
Your calculation utilizes the basis: aug-cc-pVTZ 
    H, B-Ne : Obtained from the ccRepo (grant-hill.group.shef.ac.uk/ccrepo) Feb. 2017
              R. A. Kendall, T. H. Dunning, Jr., R. J. Harrison, J. Chem. Phys. 96, 6796 (1992)
         He : Obtained from the ccRepo (grant-hill.group.shef.ac.uk/ccrepo) Feb. 2017
              D. E. Woon, T. H. Dunning, Jr., J. Chem. Phys. 100, 2975 (1994)
  Li-Be, Na : Obtained from the ccRepo (grant-hill.group.shef.ac.uk/ccrepo) Feb. 2017
              B. P. Prascher, D. E. Woon, K. A. Peterson, T. H. Dunning, Jr., A. K. Wilson, Theor. Chem. Acc. 128, 69 (2011)
         Mg : Obtained from the Peterson Research Group Website (tyr0.chem.wsu.edu/~kipeters) Feb. 2017
              B. P. Prascher, D. E. Woon, K. A. Peterson, T. H. Dunning, Jr., A. K. Wilson, Theor. Chem. Acc. 128, 69 (2011)
      Al-Ar : Obtained from the ccRepo (grant-hill.group.shef.ac.uk/ccrepo) Feb. 2017
              D. E. Woon, T. H. Dunning, Jr., J. Chem. Phys. 98, 1358 (1993)
      Sc-Zn : Obtained from the ccRepo (grant-hill.group.shef.ac.uk/ccrepo) Feb. 2017
              N. B. Balabanov, K. A. Peterson, J. Chem. Phys. 123, 064107 (2005)
              N. B. Balabanov, K. A. Peterson, J. Chem. Phys. 125, 074110 (2006)
      Ga-Kr : Obtained from the ccRepo (grant-hill.group.shef.ac.uk/ccrepo) Feb. 2017
              A. K. Wilson, D. E. Woon, K. A. Peterson, T. H. Dunning, Jr., J. Chem. Phys. 110, 7667 (1999)
     Ag, Au : Obtained from the Peterson Research Group Website (tyr0.chem.wsu.edu/~kipeters) Feb. 2017
              K. A. Peterson, C. Puzzarini, Theor. Chem. Acc. 114, 283 (2005)

The basis set includes element-specific modifications.

Your calculation utilizes the basis: cc-pVTZ 
       H, B-Ne : Obtained from the ccRepo (grant-hill.group.shef.ac.uk/ccrepo) Feb. 2017
                 T. H. Dunning, Jr., J. Chem. Phys. 90, 1007 (1989)
            He : Obtained from the ccRepo (grant-hill.group.shef.ac.uk/ccrepo) Feb. 2017
                 D. E. Woon, T. H. Dunning, Jr., J. Chem. Phys. 100, 2975 (1994)
  Li-Be, Na-Mg : Obtained from the ccRepo (grant-hill.group.shef.ac.uk/ccrepo) Feb. 2017
                 B. P. Prascher, D. E. Woon, K. A. Peterson, T. H. Dunning, Jr., A. K. Wilson, Theor. Chem. Acc. 128, 69 (2011)
         Al-Ar : Obtained from the ccRepo (grant-hill.group.shef.ac.uk/ccrepo) Feb. 2017
                 D. E. Woon, T. H. Dunning, Jr., J. Chem. Phys. 98, 1358 (1993)
            Ca : Obtained from the Peterson Research Group Website (tyr0.chem.wsu.edu/~kipeters) Feb. 2017
                 J. Koput, K. A. Peterson, J. Phys. Chem. 106, 9595 (2002)
         Sc-Zn : Obtained from the ccRepo (grant-hill.group.shef.ac.uk/ccrepo) Feb. 2017
                 N. B. Balabanov, K. A. Peterson, J. Chem. Phys. 123, 064107 (2005)
                 N. B. Balabanov, K. A. Peterson, J. Chem. Phys. 125, 074110 (2006)
         Ga-Kr : Obtained from the ccRepo (grant-hill.group.shef.ac.uk/ccrepo) Feb. 2017
                 A. K. Wilson, D. E. Woon, K. A. Peterson, T. H. Dunning, Jr., J. Chem. Phys. 110, 7667 (1999)
             Y : Obtained from the ccRepo (grant-hill.group.shef.ac.uk/ccrepo) Feb. 2017
                 K. A. Peterson, D. Figgen, M. Dolg, H. Stoll, J. Chem. Phys. 126, 124101 (2007)
        Ag, Au : Obtained from the Peterson Research Group Website (tyr0.chem.wsu.edu/~kipeters) Feb. 2017
                 K. A. Peterson, C. Puzzarini, Theor. Chem. Acc. 114, 283 (2005)

----- AuxJ basis set information -----
Your calculation utilizes the auxiliary basis: aug-cc-pVTZ/JK 
  H, B-F, Al-Cl, Ga-Br : Obtained from the TURBOMOLE 7.0 basis set library

The basis set includes element-specific modifications.

Your calculation utilizes the auxiliary basis: cc-pVTZ/JK 
  H, B-F, Al-Cl, Ga-Br : Obtained from the TURBOMOLE 7.0 basis set library

----- AuxC basis set information -----
Your calculation utilizes the auxiliary basis: aug-cc-pVTZ/C 
  H-He, B-F, Al-Ar, Ga-Kr : Obtained from the EMSL Basis Set Exchange (bse.pnl.gov) Feb. 2017
                            F. Weigend, A. Kohn, C. Hattig, J. Chem. Phys. 116, 3175 (2002)
                   Be, Mg : Obtained from the TURBOMOLE 7.0 basis set library
                            C. Haettig, Phys. Chem. Chem. Phys. 7, 59 (2005)
                       Ne : Obtained from the EMSL Basis Set Exchange (bse.pnl.gov) Feb. 2017
                            C. Haettig, Phys. Chem. Chem. Phys. 7, 59 (2005)
                            F. Weigend, A. Kohn, C. Hattig, J. Chem. Phys. 116, 3175 (2002)
                    Sc-Zn : Obtained from the EMSL Basis Set Exchange (bse.pnl.gov) Feb. 2017
                            J. G. Hill, J. A. Platts, J. Chem. Phys. 128, 044104 (2008)

The basis set includes element-specific modifications.

Your calculation utilizes the auxiliary basis: cc-pVTZ/C 
  Obtained from the EMSL Basis Set Exchange (bse.pnl.gov) Feb. 2017
  H-He, B-F, Al-Ar, Ga-Kr : F. Weigend, A. Kohn, C. Hattig, J. Chem. Phys. 116, 3175 (2002)
             Li-Be, Na-Mg : C. Haettig, Phys. Chem. Chem. Phys. 7, 59 (2005)
                       Ne : C. Haettig, Phys. Chem. Chem. Phys. 7, 59 (2005)
                            F. Weigend, A. Kohn, C. Hattig, J. Chem. Phys. 116, 3175 (2002)
                    Sc-Zn : J. G. Hill, J. A. Platts, J. Chem. Phys. 128, 044104 (2008)

================================================================================
                                        WARNINGS
                       Please study these warnings very carefully!
================================================================================

INFO   : Checking CIS options ...
  ===> : (D) CORRECTION FOUND - SETTING MODE=3
  ===> : JK MODE FOUND - ACTIVATING RI-MP2 CODE
  ===> : MP2 AND CIS FOUND - CHECKING
WARNING: CIS(D) and MP2 runs must have the same orbital window
  ===> : adjusting orbital windows

WARNING: No MP2 level density has been requested!
         To caclulate MP2 level properties use
         %mp2 Density relaxed end
         or
         %mp2 Density unrelaxed end
         Otherwise for double-hybrid DFT only the energy is correct!

WARNING: The frozen-core approximation is turned on by default for 
         the MP2 part of double-hybrid DFT.

INFO   : the flag for use of the SHARK integral package has been found!

================================================================================
                                       INPUT FILE
================================================================================
NAME = optpbed3-b2gp-plyp-train-4.inp
|  1> ! pbe0 d3bj aug-cc-PVTZ RIJCOSX Opt
|  2> %maxcore 4000
|  3> %basis
|  4>  AuxJ "aug-cc-PVTZ/JK"
|  5>  AuxC "aug-cc-PVTZ/C"
|  6>  newGTO H "cc-PVTZ" end
|  7>  newAuxJGTO H "cc-PVTZ/JK" end
|  8>  newAuxCGTO H "cc-PVTZ/C" end
|  9> end
| 10> %cpcm
| 11>  SMD true
| 12>  SMDsolvent "acetonitrile"
| 13> end
| 14> %pal nprocs 4 end
| 15> * xyz 0 1
| 16> C         -4.57040       -0.46150        0.41150
| 17> C         -4.02030        0.49180       -0.42940
| 18> C         -2.64950        0.61520       -0.54150
| 19> C         -1.79710       -0.21660        0.18870
| 20> C         -0.35690       -0.10750        0.08880
| 21> P          0.74210       -1.10260        0.96210
| 22> C          2.18870       -0.32020        0.26940
| 23> C          3.50480       -0.67740        0.58050
| 24> C          4.55840       -0.01500       -0.00560
| 25> C          4.32660        1.01730       -0.91390
| 26> C          3.04000        1.38880       -1.23760
| 27> C          1.97300        0.72160       -0.64740
| 28> S          0.31300        1.10370       -0.97940
| 29> C         -2.36710       -1.17440        1.03350
| 30> C         -3.73620       -1.29410        1.14250
| 31> H         -5.64250       -0.55610        0.49770
| 32> H         -4.66370        1.14380       -1.00180
| 33> H         -2.22950        1.36200       -1.20020
| 34> H          3.67680       -1.47810        1.28510
| 35> H          5.57280       -0.29380        0.23730
| 36> H          5.16140        1.52990       -1.36750
| 37> H          2.84950        2.18640       -1.93950
| 38> H         -1.71510       -1.82300        1.60290
| 39> H         -4.15830       -2.03970        1.80010
| 40> *
| 41> 
| 42> 
| 43> $new_job
| 44> ! b2gp-plyp aug-cc-PVTZ RIJCOSX SP
| 45> %maxcore 4000
| 46> %basis
| 47>  AuxJ "aug-cc-PVTZ/JK"
| 48>  AuxC "aug-cc-PVTZ/C"
| 49>  newGTO H "cc-PVTZ" end
| 50>  newAuxJGTO H "cc-PVTZ/JK" end
| 51>  newAuxCGTO H "cc-PVTZ/C" end
| 52> end
| 53> %cpcm
| 54>  SMD true
| 55>  SMDsolvent "acetonitrile"
| 56> end
| 57> %pal nprocs 4 end
| 58> %tddft
| 59>  nroots 10
| 60>  maxdim 7
| 61> end
| 62> * xyzfile 0 1
| 63> 
| 64>                          ****END OF INPUT****
================================================================================


                 $$$$$$$$$$$$$$$$$$$$$$$$$$$$$$$$$$$$$$$$$$$$$$ 
                 $ THERE ARE  2 JOBS TO BE PROCESSED THIS RUN $
                 $$$$$$$$$$$$$$$$$$$$$$$$$$$$$$$$$$$$$$$$$$$$$$ 




                 $$$$$$$$$$$$$$$$  JOB NUMBER  1 $$$$$$$$$$$$$$


                       *****************************
                       * Geometry Optimization Run *
                       *****************************

Geometry optimization settings:
Update method            Update   .... BFGS
Choice of coordinates    CoordSys .... Z-matrix Internals
Initial Hessian          InHess   .... Almoef's Model

Convergence Tolerances:
Energy Change            TolE     ....  5.0000e-06 Eh
Max. Gradient            TolMAXG  ....  3.0000e-04 Eh/bohr
RMS Gradient             TolRMSG  ....  1.0000e-04 Eh/bohr
Max. Displacement        TolMAXD  ....  4.0000e-03 bohr
RMS Displacement         TolRMSD  ....  2.0000e-03 bohr
Strict Convergence                ....  False
------------------------------------------------------------------------------
                        ORCA OPTIMIZATION COORDINATE SETUP
------------------------------------------------------------------------------

The optimization will be done in new redundant internal coordinates
Making redundant internal coordinates   ...  (new redundants) done
Evaluating the initial hessian          ...  (Almloef) done
Evaluating the coordinates              ...  done
Calculating the B-matrix                .... done
Calculating the G-matrix                .... done
Diagonalizing the G-matrix              .... done
Small eigenvalue found = 9.073e-03
The first mode is                       ....   61
The number of degrees of freedom        ....   66

    -----------------------------------------------------------------
                    Redundant Internal Coordinates


    -----------------------------------------------------------------
         Definition                    Initial Value    Approx d2E/dq
    -----------------------------------------------------------------
      1. B(C   1,C   0)                  1.3851         0.636144   
      2. B(C   2,C   1)                  1.3809         0.646035   
      3. B(C   3,C   2)                  1.3970         0.608886   
      4. B(C   4,C   3)                  1.4478         0.505311   
      5. B(P   5,C   4)                  1.7207         0.623279   
      6. B(C   6,P   5)                  1.7846         0.492885   
      7. B(C   7,C   6)                  1.3987         0.605038   
      8. B(C   8,C   7)                  1.3756         0.658664   
      9. B(C   9,C   8)                  1.3944         0.614752   
     10. B(C  10,C   9)                  1.3777         0.653609   
     11. B(C  11,C  10)                  1.3900         0.624895   
     12. B(C  11,C   6)                  1.4044         0.592560   
     13. B(S  12,C  11)                  1.7355         0.473528   
     14. B(S  12,C   4)                  1.7484         0.451584   
     15. B(C  13,C   3)                  1.3986         0.605456   
     16. B(C  14,C  13)                  1.3786         0.651426   
     17. B(C  14,C   0)                  1.3869         0.631968   
     18. B(H  15,C   0)                  1.0797         0.373970   
     19. B(H  16,C   1)                  1.0801         0.373378   
     20. B(H  17,C   2)                  1.0807         0.372562   
     21. B(H  18,C   7)                  1.0804         0.373089   
     22. B(H  19,C   8)                  1.0797         0.373996   
     23. B(H  20,C   9)                  1.0795         0.374209   
     24. B(H  21,C  10)                  1.0794         0.374389   
     25. B(H  22,C  13)                  1.0817         0.371295   
     26. B(H  23,C  14)                  1.0801         0.373495   
     27. A(C   1,C   0,H  15)          120.2070         0.356729   
     28. A(C   1,C   0,C  14)          119.6229         0.437585   
     29. A(C  14,C   0,H  15)          120.1701         0.356330   
     30. A(C   0,C   1,C   2)          120.3339         0.439326   
     31. A(C   2,C   1,H  16)          119.6265         0.357570   
     32. A(C   0,C   1,H  16)          120.0396         0.356633   
     33. A(C   1,C   2,C   3)          120.6675         0.435871   
     34. A(C   3,C   2,H  17)          119.5303         0.353862   
     35. A(C   1,C   2,H  17)          119.8023         0.357437   
     36. A(C   2,C   3,C   4)          121.7374         0.417109   
     37. A(C   2,C   3,C  13)          118.3473         0.430815   
     38. A(C   4,C   3,C  13)          119.9152         0.416690   
     39. A(C   3,C   4,S  12)          118.3927         0.417176   
     40. A(P   5,C   4,S  12)          117.7751         0.462375   
     41. A(C   3,C   4,P   5)          123.8322         0.446873   
     42. A(C   4,P   5,C   6)           93.8526         0.475097   
     43. A(P   5,C   6,C   7)          124.3628         0.442478   
     44. A(C   7,C   6,C  11)          118.6290         0.428665   
     45. A(P   5,C   6,C  11)          117.0082         0.440814   
     46. A(C   6,C   7,H  18)          118.9551         0.353567   
     47. A(C   6,C   7,C   8)          120.1934         0.436894   
     48. A(C   8,C   7,H  18)          120.8516         0.358702   
     49. A(C   9,C   8,H  19)          119.5966         0.354669   
     50. A(C   7,C   8,H  19)          119.9600         0.358850   
     51. A(C   7,C   8,C   9)          120.4434         0.438151   
     52. A(C   8,C   9,C  10)          120.5245         0.437543   
     53. A(C  10,C   9,H  20)          119.6952         0.358415   
     54. A(C   8,C   9,H  20)          119.7803         0.354703   
     55. A(C   9,C  10,C  11)          119.1879         0.438836   
     56. A(C  11,C  10,H  21)          119.6914         0.355718   
     57. A(C   9,C  10,H  21)          121.1207         0.358444   
     58. A(C   6,C  11,C  10)          121.0217         0.431157   
     59. A(C  10,C  11,S  12)          123.1857         0.437056   
     60. A(C   6,C  11,S  12)          115.7926         0.432896   
     61. A(C   4,S  12,C  11)           95.5716         0.435088   
     62. A(C   3,C  13,C  14)          120.7946         0.436080   
     63. A(C  14,C  13,H  22)          120.3261         0.357735   
     64. A(C   3,C  13,H  22)          118.8793         0.353320   
     65. A(C   0,C  14,C  13)          120.2338         0.439463   
     66. A(C  13,C  14,H  23)          119.7479         0.358094   
     67. A(C   0,C  14,H  23)          120.0183         0.356254   
     68. D(H  16,C   1,C   0,C  14)   -179.9971         0.028094   
     69. D(C   2,C   1,C   0,H  15)    179.9903         0.028094   
     70. D(C   2,C   1,C   0,C  14)     -0.0051         0.028094   
     71. D(H  16,C   1,C   0,H  15)     -0.0016         0.028094   
     72. D(H  17,C   2,C   1,C   0)   -179.9991         0.029035   
     73. D(H  17,C   2,C   1,H  16)     -0.0071         0.029035   
     74. D(C   3,C   2,C   1,H  16)    179.9989         0.029035   
     75. D(C   3,C   2,C   1,C   0)      0.0069         0.029035   
     76. D(C  13,C   3,C   2,H  17)   -179.9968         0.025600   
     77. D(C   4,C   3,C   2,H  17)     -0.0015         0.025600   
     78. D(C   4,C   3,C   2,C   1)    179.9925         0.025600   
     79. D(C  13,C   3,C   2,C   1)     -0.0028         0.025600   
     80. D(P   5,C   4,C   3,C  13)     -0.0035         0.017396   
     81. D(P   5,C   4,C   3,C   2)   -179.9987         0.017396   
     82. D(S  12,C   4,C   3,C   2)      0.0039         0.017396   
     83. D(S  12,C   4,C   3,C  13)    179.9991         0.017396   
     84. D(C   6,P   5,C   4,S  12)     -0.0005         0.005993   
     85. D(C   6,P   5,C   4,C   3)   -179.9980         0.005993   
     86. D(C  11,C   6,P   5,C   4)     -0.0021         0.004252   
     87. D(C   7,C   6,P   5,C   4)    179.9985         0.004252   
     88. D(H  18,C   7,C   6,C  11)   -179.9995         0.025259   
     89. D(H  18,C   7,C   6,P   5)     -0.0001         0.025259   
     90. D(C   8,C   7,C   6,C  11)     -0.0025         0.025259   
     91. D(C   8,C   7,C   6,P   5)    179.9968         0.025259   
     92. D(H  19,C   8,C   7,H  18)     -0.0054         0.030264   
     93. D(H  19,C   8,C   7,C   6)    179.9978         0.030264   
     94. D(C   9,C   8,C   7,H  18)   -179.9973         0.030264   
     95. D(C   9,C   8,C   7,C   6)      0.0059         0.030264   
     96. D(H  20,C   9,C   8,C   7)    179.9996         0.026124   
     97. D(C  10,C   9,C   8,H  19)   -179.9954         0.026124   
     98. D(C  10,C   9,C   8,C   7)     -0.0034         0.026124   
     99. D(H  20,C   9,C   8,H  19)      0.0077         0.026124   
    100. D(H  21,C  10,C   9,H  20)      0.0034         0.029768   
    101. D(H  21,C  10,C   9,C   8)   -179.9936         0.029768   
    102. D(C  11,C  10,C   9,H  20)    179.9946         0.029768   
    103. D(C  11,C  10,C   9,C   8)     -0.0024         0.029768   
    104. D(S  12,C  11,C  10,H  21)     -0.0103         0.027047   
    105. D(C   6,C  11,C  10,H  21)    179.9971         0.027047   
    106. D(C   6,C  11,C  10,C   9)      0.0057         0.027047   
    107. D(S  12,C  11,C   6,C   7)   -179.9965         0.024174   
    108. D(S  12,C  11,C   6,P   5)      0.0041         0.024174   
    109. D(S  12,C  11,C  10,C   9)    179.9984         0.027047   
    110. D(C  10,C  11,C   6,C   7)     -0.0033         0.024174   
    111. D(C  10,C  11,C   6,P   5)    179.9973         0.024174   
    112. D(C   4,S  12,C  11,C  10)   -179.9968         0.004806   
    113. D(C   4,S  12,C  11,C   6)     -0.0038         0.004806   
    114. D(C  11,S  12,C   4,P   5)      0.0023         0.004494   
    115. D(C  11,S  12,C   4,C   3)    179.9999         0.004494   
    116. D(H  22,C  13,C   3,C   4)      0.0042         0.025296   
    117. D(H  22,C  13,C   3,C   2)    179.9996         0.025296   
    118. D(C  14,C  13,C   3,C   4)   -179.9984         0.025296   
    119. D(C  14,C  13,C   3,C   2)     -0.0031         0.025296   
    120. D(H  23,C  14,C  13,H  22)     -0.0017         0.029556   
    121. D(C   0,C  14,C  13,H  22)   -179.9978         0.029556   
    122. D(C   0,C  14,C  13,C   3)      0.0048         0.029556   
    123. D(H  23,C  14,C   0,H  15)      0.0076         0.027702   
    124. D(H  23,C  14,C   0,C   1)   -179.9969         0.027702   
    125. D(H  23,C  14,C  13,C   3)   -179.9990         0.029556   
    126. D(C  13,C  14,C   0,H  15)   -179.9962         0.027702   
    127. D(C  13,C  14,C   0,C   1)     -0.0007         0.027702   
    -----------------------------------------------------------------

Number of atoms                         .... 24
Number of degrees of freedom            .... 127

         *************************************************************
         *                GEOMETRY OPTIMIZATION CYCLE   1            *
         *************************************************************
---------------------------------
CARTESIAN COORDINATES (ANGSTROEM)
---------------------------------
  C     -4.570400   -0.461500    0.411500
  C     -4.020300    0.491800   -0.429400
  C     -2.649500    0.615200   -0.541500
  C     -1.797100   -0.216600    0.188700
  C     -0.356900   -0.107500    0.088800
  P      0.742100   -1.102600    0.962100
  C      2.188700   -0.320200    0.269400
  C      3.504800   -0.677400    0.580500
  C      4.558400   -0.015000   -0.005600
  C      4.326600    1.017300   -0.913900
  C      3.040000    1.388800   -1.237600
  C      1.973000    0.721600   -0.647400
  S      0.313000    1.103700   -0.979400
  C     -2.367100   -1.174400    1.033500
  C     -3.736200   -1.294100    1.142500
  H     -5.642500   -0.556100    0.497700
  H     -4.663700    1.143800   -1.001800
  H     -2.229500    1.362000   -1.200200
  H      3.676800   -1.478100    1.285100
  H      5.572800   -0.293800    0.237300
  H      5.161400    1.529900   -1.367500
  H      2.849500    2.186400   -1.939500
  H     -1.715100   -1.823000    1.602900
  H     -4.158300   -2.039700    1.800100

----------------------------
CARTESIAN COORDINATES (A.U.)
----------------------------
  NO LB      ZA    FRAG     MASS         X           Y           Z
   0 C     6.0000    0    12.011   -8.636804   -0.872109    0.777622
   1 C     6.0000    0    12.011   -7.597266    0.929367   -0.811448
   2 C     6.0000    0    12.011   -5.006829    1.162560   -1.023287
   3 C     6.0000    0    12.011   -3.396027   -0.409315    0.356591
   4 C     6.0000    0    12.011   -0.674443   -0.203146    0.167808
   5 P    15.0000    0    30.974    1.402366   -2.083612    1.818106
   6 C     6.0000    0    12.011    4.136044   -0.605090    0.509092
   7 C     6.0000    0    12.011    6.623112   -1.280100    1.096986
   8 C     6.0000    0    12.011    8.614128   -0.028346   -0.010582
   9 C     6.0000    0    12.011    8.176089    1.922418   -1.727021
  10 C     6.0000    0    12.011    5.744767    2.624452   -2.338725
  11 C     6.0000    0    12.011    3.728430    1.363626   -1.223409
  12 S    16.0000    0    32.060    0.591484    2.085691   -1.850798
  13 C     6.0000    0    12.011   -4.473171   -2.219294    1.953032
  14 C     6.0000    0    12.011   -7.060395   -2.445495    2.159012
  15 H     1.0000    0     1.008  -10.662780   -1.050877    0.940517
  16 H     1.0000    0     1.008   -8.813116    2.161469   -1.893128
  17 H     1.0000    0     1.008   -4.213144    2.573807   -2.268049
  18 H     1.0000    0     1.008    6.948145   -2.793204    2.428487
  19 H     1.0000    0     1.008   10.531066   -0.555202    0.448432
  20 H     1.0000    0     1.008    9.753632    2.891092   -2.584200
  21 H     1.0000    0     1.008    5.384775    4.131697   -3.665124
  22 H     1.0000    0     1.008   -3.241069   -3.444971    3.029042
  23 H     1.0000    0     1.008   -7.858048   -3.854474    3.401696

--------------------------------
INTERNAL COORDINATES (ANGSTROEM)
--------------------------------
 C      0   0   0     0.000000000000     0.00000000     0.00000000
 C      1   0   0     1.385100613674     0.00000000     0.00000000
 C      2   1   0     1.380900651749   120.33387166     0.00000000
 C      3   2   1     1.397021488740   120.66745383     0.00000000
 C      4   3   2     1.447777213524   121.73742609   179.99247754
 P      5   4   3     1.720662052816   123.83222498   180.00129550
 C      6   5   4     1.784554457000    93.85256138   180.00203796
 C      7   6   5     1.398747389631   124.36275245   179.99849513
 C      8   7   6     1.375630738970   120.19335617   179.99681574
 C      9   8   7     1.394411495937   120.44343937     0.00000000
 C     10   9   8     1.377727658139   120.52452008     0.00000000
 C     11  10   9     1.389957150419   119.18790131     0.00000000
 S     12  11  10     1.735460863863   123.18568278   179.99839372
 C      4   3   2     1.398559215765   118.34734701     0.00000000
 C     14   4   3     1.378638422502   120.79464432     0.00000000
 H      1   2   3     1.079712003268   120.20703654   179.99033929
 H      2   1   3     1.080143194211   120.03958220   180.00807260
 H      3   2   1     1.080738603919   119.80226112   180.00092985
 H      8   7   6     1.080354409442   118.95508436     0.00000000
 H      9   8   7     1.079693109175   119.95998590   179.99779393
 H     10   9   8     1.079538216091   119.78026958   179.99963503
 H     11  10   9     1.079407068719   121.12065728   180.00641727
 H     14   4   3     1.081666455059   118.87927471   179.99956939
 H     15  14   4     1.080058114177   119.74790299   180.00100506

---------------------------
INTERNAL COORDINATES (A.U.)
---------------------------
 C      0   0   0     0.000000000000     0.00000000     0.00000000
 C      1   0   0     2.617460827770     0.00000000     0.00000000
 C      2   1   0     2.609524049958   120.33387166     0.00000000
 C      3   2   1     2.639988016921   120.66745383     0.00000000
 C      4   3   2     2.735902436492   121.73742609   179.99247754
 P      5   4   3     3.251580048852   123.83222498   180.00129550
 C      6   5   4     3.372319194799    93.85256138   180.00203796
 C      7   6   5     2.643249496940   124.36275245   179.99849513
 C      8   7   6     2.599565358058   120.19335617   179.99681574
 C      9   8   7     2.635055845312   120.44343937     0.00000000
 C     10   9   8     2.603527961011   120.52452008     0.00000000
 C     11  10   9     2.626638352177   119.18790131     0.00000000
 S     12  11  10     3.279545748839   123.18568278   179.99839372
 C      4   3   2     2.642893899867   118.34734701     0.00000000
 C     14   4   3     2.605249056231   120.79464432     0.00000000
 H      1   2   3     2.040359989683   120.20703654   179.99033929
 H      2   1   3     2.041174822477   120.03958220   180.00807260
 H      3   2   1     2.042299983763   119.80226112   180.00092985
 H      8   7   6     2.041573961419   118.95508436     0.00000000
 H      9   8   7     2.040324285023   119.95998590   179.99779393
 H     10   9   8     2.040031579513   119.78026958   179.99963503
 H     11  10   9     2.039783746897   121.12065728   180.00641727
 H     14   4   3     2.044053368311   118.87927471   179.99956939
 H     15  14   4     2.041014044514   119.74790299   180.00100506

---------------------
BASIS SET INFORMATION
---------------------
There are 4 groups of distinct atoms

 Group   1 Type C   : 19s6p3d2f contracted to 5s4p3d2f pattern {88111/3111/111/11}
 Group   2 Type P   : 42s17p3d2f contracted to 6s5p3d2f pattern {131313111/77111/111/11}
 Group   3 Type S   : 42s17p3d2f contracted to 6s5p3d2f pattern {131313111/77111/111/11}
 Group   4 Type H   : 5s2p1d contracted to 3s2p1d pattern {311/11/1}

Atom   0C    basis set group =>   1
Atom   1C    basis set group =>   1
Atom   2C    basis set group =>   1
Atom   3C    basis set group =>   1
Atom   4C    basis set group =>   1
Atom   5P    basis set group =>   2
Atom   6C    basis set group =>   1
Atom   7C    basis set group =>   1
Atom   8C    basis set group =>   1
Atom   9C    basis set group =>   1
Atom  10C    basis set group =>   1
Atom  11C    basis set group =>   1
Atom  12S    basis set group =>   3
Atom  13C    basis set group =>   1
Atom  14C    basis set group =>   1
Atom  15H    basis set group =>   4
Atom  16H    basis set group =>   4
Atom  17H    basis set group =>   4
Atom  18H    basis set group =>   4
Atom  19H    basis set group =>   4
Atom  20H    basis set group =>   4
Atom  21H    basis set group =>   4
Atom  22H    basis set group =>   4
Atom  23H    basis set group =>   4
---------------------------------
AUXILIARY/J BASIS SET INFORMATION
---------------------------------
There are 4 groups of distinct atoms

 Group   1 Type C   : 10s7p5d2f1g contracted to 10s7p5d2f1g pattern {1111111111/1111111/11111/11/1}
 Group   2 Type P   : 13s11p9d3f1g contracted to 13s11p9d3f1g pattern {1111111111111/11111111111/111111111/111/1}
 Group   3 Type S   : 13s11p9d3f1g contracted to 13s11p9d3f1g pattern {1111111111111/11111111111/111111111/111/1}
 Group   4 Type H   : 4s3p2d1f contracted to 4s3p2d1f pattern {1111/111/11/1}

Atom   0C    basis set group =>   1
Atom   1C    basis set group =>   1
Atom   2C    basis set group =>   1
Atom   3C    basis set group =>   1
Atom   4C    basis set group =>   1
Atom   5P    basis set group =>   2
Atom   6C    basis set group =>   1
Atom   7C    basis set group =>   1
Atom   8C    basis set group =>   1
Atom   9C    basis set group =>   1
Atom  10C    basis set group =>   1
Atom  11C    basis set group =>   1
Atom  12S    basis set group =>   3
Atom  13C    basis set group =>   1
Atom  14C    basis set group =>   1
Atom  15H    basis set group =>   4
Atom  16H    basis set group =>   4
Atom  17H    basis set group =>   4
Atom  18H    basis set group =>   4
Atom  19H    basis set group =>   4
Atom  20H    basis set group =>   4
Atom  21H    basis set group =>   4
Atom  22H    basis set group =>   4
Atom  23H    basis set group =>   4
---------------------------------
AUXILIARY/C BASIS SET INFORMATION
---------------------------------
There are 4 groups of distinct atoms

 Group   1 Type C   : 9s7p6d4f2g contracted to 9s7p6d4f2g pattern {111111111/1111111/111111/1111/11}
 Group   2 Type P   : 11s9p8d6f3g contracted to 11s9p8d6f3g pattern {11111111111/111111111/11111111/111111/111}
 Group   3 Type S   : 11s9p8d6f3g contracted to 11s9p8d6f3g pattern {11111111111/111111111/11111111/111111/111}
 Group   4 Type H   : 4s3p2d1f contracted to 4s3p2d1f pattern {1111/111/11/1}

Atom   0C    basis set group =>   1
Atom   1C    basis set group =>   1
Atom   2C    basis set group =>   1
Atom   3C    basis set group =>   1
Atom   4C    basis set group =>   1
Atom   5P    basis set group =>   2
Atom   6C    basis set group =>   1
Atom   7C    basis set group =>   1
Atom   8C    basis set group =>   1
Atom   9C    basis set group =>   1
Atom  10C    basis set group =>   1
Atom  11C    basis set group =>   1
Atom  12S    basis set group =>   3
Atom  13C    basis set group =>   1
Atom  14C    basis set group =>   1
Atom  15H    basis set group =>   4
Atom  16H    basis set group =>   4
Atom  17H    basis set group =>   4
Atom  18H    basis set group =>   4
Atom  19H    basis set group =>   4
Atom  20H    basis set group =>   4
Atom  21H    basis set group =>   4
Atom  22H    basis set group =>   4
Atom  23H    basis set group =>   4


           ************************************************************
           *        Program running with 4 parallel MPI-processes     *
           *              working on a common directory               *
           ************************************************************
------------------------------------------------------------------------------
                           ORCA GTO INTEGRAL CALCULATION
                           -- RI-GTO INTEGRALS CHOSEN --
------------------------------------------------------------------------------
------------------------------------------------------------------------------
                   ___                                                        
                  /   \      - P O W E R E D   B Y -                         
                 /     \                                                     
                 |  |  |   _    _      __       _____    __    __             
                 |  |  |  | |  | |    /  \     |  _  \  |  |  /  |          
                  \  \/   | |  | |   /    \    | | | |  |  | /  /          
                 / \  \   | |__| |  /  /\  \   | |_| |  |  |/  /          
                |  |  |   |  __  | /  /__\  \  |    /   |      \           
                |  |  |   | |  | | |   __   |  |    \   |  |\   \          
                \     /   | |  | | |  |  |  |  | |\  \  |  | \   \       
                 \___/    |_|  |_| |__|  |__|  |_| \__\ |__|  \__/        
                                                                              
                      - O R C A' S   B I G   F R I E N D -                    
                                      &                                       
                       - I N T E G R A L  F E E D E R -                       
                                                                              
 v1 FN, 2020, v2 2021                                                         
------------------------------------------------------------------------------


Reading SHARK input file optpbed3-b2gp-plyp-train-4.SHARKINP.tmp ... ok
----------------------
SHARK INTEGRAL PACKAGE
----------------------

Number of atoms                             ...     24
Number of basis functions                   ...    952
Number of shells                            ...    376
Maximum angular momentum                    ...      3
Integral batch strategy                     ... SHARK/LIBINT Hybrid
RI-J (if used) integral strategy            ... SPLIT-RIJ (Revised 2003 algorithm where possible)
Printlevel                                  ...      1
Contraction scheme used                     ... PARTIAL GENERAL contraction
Coulomb Range Separation                    ... NOT USED
Exchange Range Separation                   ... NOT USED
Finite Nucleus Model                        ... NOT USED
Auxiliary Coulomb fitting basis             ... AVAILABLE
   # of basis functions in Aux-J            ...   1539
   # of shells in Aux-J                     ...    489
   Maximum angular momentum in Aux-J        ...      4
Auxiliary J/K fitting basis                 ... NOT available
Auxiliary Correlation fitting basis         ... AVAILABLE
   # of basis functions in Aux-C            ...   1942
   # of shells in Aux-C                     ...    528
   Maximum angular momentum in Aux-C        ...      4
Auxiliary 'external' fitting basis          ... NOT available
Integral threshold                          ...     2.500000e-11
Primitive cut-off                           ...     2.500000e-12
Primitive pair pre-selection threshold      ...     2.500000e-12

Calculating pre-screening integrals         ... done (  0.1 sec) Dimension = 376
Calculating pre-screening integrals (ORCA)  ... done (  0.4 sec) Dimension = 268
Organizing shell pair data                  ... done (  0.6 sec)
Shell pair information
Total number of shell pairs                 ...     70876
Shell pairs after pre-screening             ...     47964
Total number of primitive shell pairs       ...     88476
Primitive shell pairs kept                  ...     55053
          la=0 lb=0:  10711 shell pairs
          la=1 lb=0:  12470 shell pairs
          la=1 lb=1:   3264 shell pairs
          la=2 lb=0:   7878 shell pairs
          la=2 lb=1:   3956 shell pairs
          la=2 lb=2:   1235 shell pairs
          la=3 lb=0:   4441 shell pairs
          la=3 lb=1:   2247 shell pairs
          la=3 lb=2:   1360 shell pairs
          la=3 lb=3:    402 shell pairs

Calculating one electron integrals          ... done (  0.1 sec)
Calculating RI/J V-Matrix + Cholesky decomp.... done (  0.2 sec)
Calculating RI/C V-Matrix + Cholesky decomp.... done (  0.3 sec)
Calculating Nuclear repulsion               ... done (  0.0 sec) ENN=   1078.649719388112 Eh

SHARK setup successfully completed in   2.6 seconds

Maximum memory used throughout the entire GTOINT-calculation: 85.2 MB


           ************************************************************
           *        Program running with 4 parallel MPI-processes     *
           *              working on a common directory               *
           ************************************************************
-------------------------------------------------------------------------------
                                 ORCA SCF
-------------------------------------------------------------------------------

------------
SCF SETTINGS
------------
Hamiltonian:
 Density Functional     Method          .... DFT(GTOs)
 Exchange Functional    Exchange        .... PBE
   PBE kappa parameter   XKappa         ....  0.804000
   PBE mue parameter    XMuePBE         ....  0.219520
 Correlation Functional Correlation     .... PBE
   PBE beta parameter  CBetaPBE         ....  0.066725
 LDA part of GGA corr.  LDAOpt          .... PW91-LDA
 Gradients option       PostSCFGGA      .... off
 Hybrid DFT is turned on
   Fraction HF Exchange ScalHFX         ....  0.250000
   Scaling of DF-GGA-X  ScalDFX         ....  0.750000
   Scaling of DF-GGA-C  ScalDFC         ....  1.000000
   Scaling of DF-LDA-C  ScalLDAC        ....  1.000000
   Perturbative correction              ....  0.000000
   Density functional embedding theory  .... OFF
   NL short-range parameter             ....  6.900000
 RI-approximation to the Coulomb term is turned on
   Number of AuxJ basis functions       .... 1539
   RIJ-COSX (HFX calculated with COS-X)).... on


General Settings:
 Integral files         IntName         .... optpbed3-b2gp-plyp-train-4
 Hartree-Fock type      HFTyp           .... RHF
 Total Charge           Charge          ....    0
 Multiplicity           Mult            ....    1
 Number of Electrons    NEL             ....  118
 Basis Dimension        Dim             ....  824
 Nuclear Repulsion      ENuc            ....   1078.6497193881 Eh

Convergence Acceleration:
 DIIS                   CNVDIIS         .... on
   Start iteration      DIISMaxIt       ....    12
   Startup error        DIISStart       ....  0.200000
   # of expansion vecs  DIISMaxEq       ....     5
   Bias factor          DIISBfac        ....   1.050
   Max. coefficient     DIISMaxC        ....  10.000
 Trust-Rad. Augm. Hess. CNVTRAH         .... auto
   Auto Start mean grad. ratio tolernc. ....  1.125000
   Auto Start start iteration           ....    20
   Auto Start num. interpolation iter.  ....    10
   Max. Number of Micro iterations      ....    16
   Max. Number of Macro iterations      .... Maxiter - #DIIS iter
   Number of Davidson start vectors     ....     2
   Converg. threshold I  (grad. norm)   ....   1.000e-05
   Converg. threshold II (energy diff.) ....   1.000e-08
   Grad. Scal. Fac. for Micro threshold ....   0.100
   Minimum threshold for Micro iter.    ....   0.010
   NR start threshold (gradient norm)   ....   0.001
   Initial trust radius                 ....   0.400
   Minimum AH scaling param. (alpha)    ....   1.000
   Maximum AH scaling param. (alpha)    .... 1000.000
   Orbital update algorithm             .... Taylor
   White noise on init. David. guess    .... on
   Maximum white noise                  ....   0.010
   Quad. conv. algorithm                .... NR
 SOSCF                  CNVSOSCF        .... on
   Start iteration      SOSCFMaxIt      ....   150
   Startup grad/error   SOSCFStart      ....  0.003300
 Level Shifting         CNVShift        .... on
   Level shift para.    LevelShift      ....    0.2500
   Turn off err/grad.   ShiftErr        ....    0.0010
 Zerner damping         CNVZerner       .... off
 Static damping         CNVDamp         .... on
   Fraction old density DampFac         ....    0.7000
   Max. Damping (<1)    DampMax         ....    0.9800
   Min. Damping (>=0)   DampMin         ....    0.0000
   Turn off err/grad.   DampErr         ....    0.1000
 Fernandez-Rico         CNVRico         .... off

SCF Procedure:
 Maximum # iterations   MaxIter         ....   125
 SCF integral mode      SCFMode         .... Direct
   Integral package                     .... SHARK and LIBINT hybrid scheme
 Reset frequency        DirectResetFreq ....    20
 Integral Threshold     Thresh          ....  2.500e-11 Eh
 Primitive CutOff       TCut            ....  2.500e-12 Eh

Convergence Tolerance:
 Convergence Check Mode ConvCheckMode   .... Total+1el-Energy
 Convergence forced     ConvForced      .... 0
 Energy Change          TolE            ....  1.000e-08 Eh
 1-El. energy change                    ....  1.000e-05 Eh
 Orbital Gradient       TolG            ....  1.000e-05
 Orbital Rotation angle TolX            ....  1.000e-05
 DIIS Error             TolErr          ....  5.000e-07


Diagonalization of the overlap matrix:
Smallest eigenvalue                        ... 9.689e-07
Time for diagonalization                   ...    0.209 sec
Threshold for overlap eigenvalues          ... 1.000e-08
Number of eigenvalues below threshold      ... 0
Time for construction of square roots      ...    0.109 sec
Total time needed                          ...    0.322 sec

Time for model grid setup =    0.403 sec

------------------------------
INITIAL GUESS: MODEL POTENTIAL
------------------------------
Loading Hartree-Fock densities                     ... done
Calculating cut-offs                               ... done
Initializing the effective Hamiltonian             ... done
Setting up the integral package (SHARK)            ... done
Starting the Coulomb interaction                   ... done (   1.3 sec)
Reading the grid                                   ... done
Mapping shells                                     ... done
Starting the XC term evaluation                    ... done (   1.3 sec)
  promolecular density results
     # of electrons  =    117.995472245
     EX              =   -116.624389956
     EC              =     -4.118119364
     EX+EC           =   -120.742509320
Transforming the Hamiltonian                       ... done (   0.1 sec)
Diagonalizing the Hamiltonian                      ... done (   0.2 sec)
Back transforming the eigenvectors                 ... done (   0.0 sec)
Now organizing SCF variables                       ... done
                      ------------------
                      INITIAL GUESS DONE (   3.3 sec)
                      ------------------
-------------------
DFT GRID GENERATION
-------------------

General Integration Accuracy     IntAcc      ... 4.388
Radial Grid Type                 RadialGrid  ... OptM3 with GC (2021)
Angular Grid (max. ang.)         AngularGrid ... 4 (Lebedev-302)
Angular grid pruning method      GridPruning ... 4 (adaptive)
Weight generation scheme         WeightScheme... Becke
Basis function cutoff            BFCut       ... 1.0000e-11
Integration weight cutoff        WCut        ... 1.0000e-14
Angular grids for H and He will be reduced by one unit
Partially contracted basis set               ... off
Rotationally invariant grid construction     ... off

Total number of grid points                  ...   125109
Total number of batches                      ...     1965
Average number of points per batch           ...       63
Average number of grid points per atom       ...     5213
Time for grid setup =    1.527 sec

--------------------
COSX GRID GENERATION
--------------------

GRIDX 1
-------
General Integration Accuracy     IntAcc      ... 3.816
Radial Grid Type                 RadialGrid  ... OptM3 with GC (2021)
Angular Grid (max. ang.)         AngularGrid ... 1 (Lebedev-50)
Angular grid pruning method      GridPruning ... 4 (adaptive)
Weight generation scheme         WeightScheme... Becke
Basis function cutoff            BFCut       ... 1.0000e-11
Integration weight cutoff        WCut        ... 1.0000e-14
Angular grids for H and He will be reduced by one unit
Partially contracted basis set               ... on
Rotationally invariant grid construction     ... off

Total number of grid points                  ...    15745
Total number of batches                      ...      257
Average number of points per batch           ...       61
Average number of grid points per atom       ...      656
UseSFitting                                  ... on

GRIDX 2
-------
General Integration Accuracy     IntAcc      ... 4.020
Radial Grid Type                 RadialGrid  ... OptM3 with GC (2021)
Angular Grid (max. ang.)         AngularGrid ... 2 (Lebedev-110)
Angular grid pruning method      GridPruning ... 4 (adaptive)
Weight generation scheme         WeightScheme... Becke
Basis function cutoff            BFCut       ... 1.0000e-11
Integration weight cutoff        WCut        ... 1.0000e-14
Angular grids for H and He will be reduced by one unit
Partially contracted basis set               ... on
Rotationally invariant grid construction     ... off

Total number of grid points                  ...    37919
Total number of batches                      ...      605
Average number of points per batch           ...       62
Average number of grid points per atom       ...     1580
UseSFitting                                  ... on

GRIDX 3
-------
General Integration Accuracy     IntAcc      ... 4.338
Radial Grid Type                 RadialGrid  ... OptM3 with GC (2021)
Angular Grid (max. ang.)         AngularGrid ... 3 (Lebedev-194)
Angular grid pruning method      GridPruning ... 4 (adaptive)
Weight generation scheme         WeightScheme... Becke
Basis function cutoff            BFCut       ... 1.0000e-11
Integration weight cutoff        WCut        ... 1.0000e-14
Angular grids for H and He will be reduced by one unit
Partially contracted basis set               ... on
Rotationally invariant grid construction     ... off

Total number of grid points                  ...    83164
Total number of batches                      ...     1311
Average number of points per batch           ...       63
Average number of grid points per atom       ...     3465
UseSFitting                                  ... on

Time for X-Grid setup             =    3.371 sec


--------------------
CPCM SOLVATION MODEL
--------------------
CPCM parameters:
  Epsilon                                         ...      35.6880
  Refrac                                          ...       1.3442
  Rsolv                                           ...       1.3000
  Surface type                                    ... GAUSSIAN VDW
  Epsilon function type                           ...         CPCM
Solvent:                                     ... ACETONITRILE
SMD-CDS solvent descriptors:
  Soln                                       ...    1.3442
  Soln25                                     ...    1.3416
  Sola                                       ...    0.0700
  Solb                                       ...    0.3200
  Solg                                       ...   41.2500
  Solc                                       ...    0.0000
  Solh                                       ...    0.0000
Radii:
 Radius for C  used is    3.4960 Bohr (=   1.8500 Ang.)
 Radius for P  used is    4.0062 Bohr (=   2.1200 Ang.)
 Radius for S  used is    4.7054 Bohr (=   2.4900 Ang.)
 Radius for H  used is    2.2677 Bohr (=   1.2000 Ang.)
Calculating surface                               ...        done! (  0.0s)
GEPOL surface points                              ...         1337
GEPOL Volume                                      ...    1598.9572
GEPOL Surface-area                                ...     850.5654
Calculating surface distance matrix               ...        done! (  0.0s)
Performing Cholesky decomposition & store         ...        done! (  0.1s)
Overall time for CPCM initialization              ...                 0.2s
 re-compute Schwartz prescreening matrix in partically contracted basis (1) ...done (   0.205 sec)
--------------
SCF ITERATIONS
--------------
ITER       Energy         Delta-E        Max-DP      RMS-DP      [F,P]     Damp
               ***  Starting incremental Fock matrix formation  ***
  0  -1239.3682479016   0.000000000000 0.18263037  0.00121667  0.1420642 0.7000
  1  -1239.5166716847  -0.148423783172 0.13130392  0.00089367  0.0762813 0.7000
                               ***Turning on DIIS***
  2  -1239.5822000503  -0.065528365606 0.26996472  0.00190306  0.0327466 0.0000
  3  -1239.6732078631  -0.091007812799 0.04416172  0.00038439  0.0429537 0.0000
  4  -1239.6998969612  -0.026689098041 0.01675383  0.00016234  0.0087707 0.0000
                      *** Initiating the SOSCF procedure ***
                           *** Shutting down DIIS ***
                      *** Re-Reading the Fockian *** 
                      *** Removing any level shift *** 
ITER      Energy       Delta-E        Grad      Rot      Max-DP    RMS-DP
  5  -1239.70098237  -0.0010854125  0.000700  0.000700  0.006411  0.000059
               *** Restarting incremental Fock matrix formation ***
  6  -1239.70105289  -0.0000705193  0.000579  0.002711  0.018019  0.000366
  7  -1239.70106251  -0.0000096150  0.000450  0.001489  0.004947  0.000101
  8  -1239.70107694  -0.0000144282  0.000131  0.000293  0.005081  0.000100
  9  -1239.70107738  -0.0000004449  0.000055  0.000156  0.000956  0.000013
 10  -1239.70107805  -0.0000006678  0.000019  0.000130  0.001966  0.000022
 11  -1239.70107807  -0.0000000198  0.000011  0.000023  0.000685  0.000008
 12  -1239.70107811  -0.0000000441  0.000005  0.000033  0.001625  0.000018
 13  -1239.70107815  -0.0000000378  0.000006  0.000020  0.001034  0.000011
                  ***Gradient check signals convergence***
              ***Rediagonalizing the Fockian in SOSCF/NRSCF***

               *****************************************************
               *                     SUCCESS                       *
               *           SCF CONVERGED AFTER  14 CYCLES          *
               *****************************************************

Old exchange energy                            =    -29.581417931 Eh
New exchange energy                            =    -29.581305892 Eh
Exchange energy change after final integration =      0.000112040 Eh
Total energy after final integration           =  -1239.700966135 Eh
Final COS-X integration done in                =    72.381 sec

SMD CDS free energy correction energy :                -2.96894     Kcal/mol
Total Energy after SMD CDS correction =             -1239.705697448 Eh

----------------
TOTAL SCF ENERGY
----------------

Total Energy       :        -1239.70569745 Eh          -33734.10704 eV

Components:
Nuclear Repulsion  :         1078.64971939 Eh           29351.55107 eV
Electronic Energy  :        -2318.35541684 Eh          -63085.65810 eV
One Electron Energy:        -3841.67389643 Eh         -104537.26129 eV
Two Electron Energy:         1523.31847959 Eh           41451.60319 eV
Max COSX asymmetry :            0.00002608 Eh               0.00071 eV
CPCM Dielectric    :           -0.01216125 Eh              -0.33092 eV
SMD CDS (Gcds)     :           -0.00473131 Eh              -0.12875 eV

Virial components:
Potential Energy   :        -2474.70966461 Eh          -67340.27349 eV
Kinetic Energy     :         1235.00396717 Eh           33606.16645 eV
Virial Ratio       :            2.00380706


DFT components:
N(Alpha)           :       58.999967053743 electrons
N(Beta)            :       58.999967053743 electrons
N(Total)           :      117.999934107486 electrons
E(X)               :      -88.402661362550 Eh       
E(C)               :       -4.119468867883 Eh       
E(XC)              :      -92.522130230433 Eh       
DFET-embed. en.    :        0.000000000000 Eh       
CPCM Solvation Model Properties:
Surface-charge          :           -0.05369805
Charge-correction       :            0.00039744 Eh               0.01081 eV
Free-energy (cav+disp)  :           -0.00473131 Eh              -0.12875 eV

---------------
SCF CONVERGENCE
---------------

  Last Energy change         ...   -2.4496e-08  Tolerance :   1.0000e-08
  Last MAX-Density change    ...    4.6629e-15  Tolerance :   1.0000e-07
  Last RMS-Density change    ...    1.7277e-17  Tolerance :   5.0000e-09
  Last Orbital Gradient      ...    1.6194e-06  Tolerance :   1.0000e-05
  Last Orbital Rotation      ...    6.9259e-06  Tolerance :   1.0000e-05

             **** THE GBW FILE WAS UPDATED (optpbed3-b2gp-plyp-train-4.gbw) ****
             **** DENSITY optpbed3-b2gp-plyp-train-4.scfp WAS UPDATED ****
             **** ENERGY FILE WAS UPDATED (optpbed3-b2gp-plyp-train-4.en.tmp) ****
             **** THE GBW FILE WAS UPDATED (optpbed3-b2gp-plyp-train-4.gbw) ****
             **** DENSITY optpbed3-b2gp-plyp-train-4.scfp WAS UPDATED ****
----------------
ORBITAL ENERGIES
----------------

  NO   OCC          E(Eh)            E(eV) 
   0   2.0000     -89.090517     -2424.2762 
   1   2.0000     -77.227155     -2101.4577 
   2   2.0000     -10.286977      -279.9229 
   3   2.0000     -10.275023      -279.5976 
   4   2.0000     -10.253884      -279.0224 
   5   2.0000     -10.249507      -278.9033 
   6   2.0000     -10.238475      -278.6031 
   7   2.0000     -10.235969      -278.5349 
   8   2.0000     -10.235096      -278.5111 
   9   2.0000     -10.233879      -278.4780 
  10   2.0000     -10.233853      -278.4773 
  11   2.0000     -10.231535      -278.4142 
  12   2.0000     -10.231089      -278.4021 
  13   2.0000     -10.230567      -278.3879 
  14   2.0000     -10.230236      -278.3789 
  15   2.0000      -8.047469      -218.9828 
  16   2.0000      -6.607575      -179.8013 
  17   2.0000      -5.984380      -162.8433 
  18   2.0000      -5.980806      -162.7460 
  19   2.0000      -5.978001      -162.6697 
  20   2.0000      -4.743640      -129.0810 
  21   2.0000      -4.743005      -129.0637 
  22   2.0000      -4.740127      -128.9854 
  23   2.0000      -0.919934       -25.0327 
  24   2.0000      -0.899633       -24.4803 
  25   2.0000      -0.856899       -23.3174 
  26   2.0000      -0.803513       -21.8647 
  27   2.0000      -0.789672       -21.4881 
  28   2.0000      -0.780019       -21.2254 
  29   2.0000      -0.746441       -20.3117 
  30   2.0000      -0.708297       -19.2737 
  31   2.0000      -0.653190       -17.7742 
  32   2.0000      -0.637294       -17.3417 
  33   2.0000      -0.619378       -16.8541 
  34   2.0000      -0.595508       -16.2046 
  35   2.0000      -0.575163       -15.6510 
  36   2.0000      -0.532162       -14.4809 
  37   2.0000      -0.501372       -13.6430 
  38   2.0000      -0.492701       -13.4071 
  39   2.0000      -0.487944       -13.2776 
  40   2.0000      -0.460593       -12.5334 
  41   2.0000      -0.458786       -12.4842 
  42   2.0000      -0.442161       -12.0318 
  43   2.0000      -0.434035       -11.8107 
  44   2.0000      -0.429560       -11.6889 
  45   2.0000      -0.422737       -11.5032 
  46   2.0000      -0.404793       -11.0150 
  47   2.0000      -0.397390       -10.8135 
  48   2.0000      -0.371989       -10.1223 
  49   2.0000      -0.364183        -9.9099 
  50   2.0000      -0.357003        -9.7145 
  51   2.0000      -0.356617        -9.7041 
  52   2.0000      -0.345093        -9.3905 
  53   2.0000      -0.307360        -8.3637 
  54   2.0000      -0.293285        -7.9807 
  55   2.0000      -0.291875        -7.9423 
  56   2.0000      -0.277347        -7.5470 
  57   2.0000      -0.249216        -6.7815 
  58   2.0000      -0.224346        -6.1048 
  59   0.0000      -0.079875        -2.1735 
  60   0.0000      -0.022172        -0.6033 
  61   0.0000      -0.017371        -0.4727 
  62   0.0000      -0.003775        -0.1027 
  63   0.0000      -0.003308        -0.0900 
  64   0.0000       0.009170         0.2495 
  65   0.0000       0.016412         0.4466 
  66   0.0000       0.018788         0.5112 
  67   0.0000       0.021753         0.5919 
  68   0.0000       0.026146         0.7115 
  69   0.0000       0.030248         0.8231 
  70   0.0000       0.037453         1.0191 
  71   0.0000       0.041495         1.1291 
  72   0.0000       0.047812         1.3010 
  73   0.0000       0.049477         1.3463 
  74   0.0000       0.052124         1.4184 
  75   0.0000       0.055903         1.5212 
  76   0.0000       0.058239         1.5848 
  77   0.0000       0.060001         1.6327 
  78   0.0000       0.068231         1.8566 
  79   0.0000       0.072598         1.9755 
  80   0.0000       0.079204         2.1552 
  81   0.0000       0.080775         2.1980 
  82   0.0000       0.081654         2.2219 
  83   0.0000       0.085763         2.3337 
  84   0.0000       0.100312         2.7296 
  85   0.0000       0.100656         2.7390 
  86   0.0000       0.103767         2.8236 
  87   0.0000       0.103775         2.8239 
  88   0.0000       0.107199         2.9170 
  89   0.0000       0.108065         2.9406 
  90   0.0000       0.112724         3.0674 
  91   0.0000       0.118305         3.2193 
  92   0.0000       0.124762         3.3949 
  93   0.0000       0.128852         3.5063 
  94   0.0000       0.129845         3.5333 
  95   0.0000       0.132436         3.6038 
  96   0.0000       0.133018         3.6196 
  97   0.0000       0.137109         3.7309 
  98   0.0000       0.140592         3.8257 
  99   0.0000       0.144434         3.9302 
 100   0.0000       0.144464         3.9311 
 101   0.0000       0.146739         3.9930 
 102   0.0000       0.147419         4.0115 
 103   0.0000       0.151318         4.1176 
 104   0.0000       0.152011         4.1364 
 105   0.0000       0.153343         4.1727 
 106   0.0000       0.157772         4.2932 
 107   0.0000       0.163889         4.4597 
 108   0.0000       0.165988         4.5168 
 109   0.0000       0.169219         4.6047 
 110   0.0000       0.172219         4.6863 
 111   0.0000       0.173851         4.7307 
 112   0.0000       0.173936         4.7330 
 113   0.0000       0.176576         4.8049 
 114   0.0000       0.177900         4.8409 
 115   0.0000       0.184211         5.0126 
 116   0.0000       0.186317         5.0699 
 117   0.0000       0.187103         5.0913 
 118   0.0000       0.187827         5.1110 
 119   0.0000       0.193755         5.2723 
 120   0.0000       0.196777         5.3546 
 121   0.0000       0.205401         5.5892 
 122   0.0000       0.206715         5.6250 
 123   0.0000       0.207730         5.6526 
 124   0.0000       0.211615         5.7583 
 125   0.0000       0.218309         5.9405 
 126   0.0000       0.222380         6.0513 
 127   0.0000       0.223715         6.0876 
 128   0.0000       0.230444         6.2707 
 129   0.0000       0.236108         6.4248 
 130   0.0000       0.239515         6.5175 
 131   0.0000       0.244916         6.6645 
 132   0.0000       0.247645         6.7388 
 133   0.0000       0.253912         6.9093 
 134   0.0000       0.254932         6.9370 
 135   0.0000       0.255855         6.9622 
 136   0.0000       0.257682         7.0119 
 137   0.0000       0.261917         7.1271 
 138   0.0000       0.265956         7.2370 
 139   0.0000       0.266414         7.2495 
 140   0.0000       0.270925         7.3722 
 141   0.0000       0.277563         7.5529 
 142   0.0000       0.284674         7.7464 
 143   0.0000       0.286512         7.7964 
 144   0.0000       0.289194         7.8694 
 145   0.0000       0.290166         7.8958 
 146   0.0000       0.294131         8.0037 
 147   0.0000       0.295145         8.0313 
 148   0.0000       0.296634         8.0718 
 149   0.0000       0.303483         8.2582 
 150   0.0000       0.303745         8.2653 
 151   0.0000       0.311375         8.4730 
 152   0.0000       0.316918         8.6238 
 153   0.0000       0.318467         8.6659 
 154   0.0000       0.325270         8.8510 
 155   0.0000       0.328794         8.9469 
 156   0.0000       0.333857         9.0847 
 157   0.0000       0.334980         9.1153 
 158   0.0000       0.339303         9.2329 
 159   0.0000       0.343586         9.3495 
 160   0.0000       0.349203         9.5023 
 161   0.0000       0.350027         9.5247 
 162   0.0000       0.352293         9.5864 
 163   0.0000       0.361085         9.8256 
 164   0.0000       0.370332        10.0772 
 165   0.0000       0.370975        10.0947 
 166   0.0000       0.374498        10.1906 
 167   0.0000       0.374697        10.1960 
 168   0.0000       0.378124        10.2893 
 169   0.0000       0.384375        10.4594 
 170   0.0000       0.391948        10.6654 
 171   0.0000       0.393886        10.7182 
 172   0.0000       0.394967        10.7476 
 173   0.0000       0.399080        10.8595 
 174   0.0000       0.401660        10.9297 
 175   0.0000       0.405477        11.0336 
 176   0.0000       0.407304        11.0833 
 177   0.0000       0.408209        11.1079 
 178   0.0000       0.411905        11.2085 
 179   0.0000       0.412567        11.2265 
 180   0.0000       0.416260        11.3270 
 181   0.0000       0.418987        11.4012 
 182   0.0000       0.421862        11.4795 
 183   0.0000       0.425782        11.5861 
 184   0.0000       0.428671        11.6647 
 185   0.0000       0.429234        11.6801 
 186   0.0000       0.431855        11.7514 
 187   0.0000       0.439383        11.9562 
 188   0.0000       0.441591        12.0163 
 189   0.0000       0.445704        12.1282 
 190   0.0000       0.448002        12.1907 
 191   0.0000       0.450004        12.2452 
 192   0.0000       0.450438        12.2570 
 193   0.0000       0.461968        12.5708 
 194   0.0000       0.466085        12.6828 
 195   0.0000       0.466233        12.6869 
 196   0.0000       0.473237        12.8774 
 197   0.0000       0.476598        12.9689 
 198   0.0000       0.479280        13.0419 
 199   0.0000       0.483223        13.1492 
 200   0.0000       0.491748        13.3811 
 201   0.0000       0.494038        13.4435 
 202   0.0000       0.496838        13.5197 
 203   0.0000       0.501607        13.6494 
 204   0.0000       0.503449        13.6995 
 205   0.0000       0.505530        13.7562 
 206   0.0000       0.511221        13.9110 
 207   0.0000       0.514943        14.0123 
 208   0.0000       0.518300        14.1037 
 209   0.0000       0.522631        14.2215 
 210   0.0000       0.528836        14.3904 
 211   0.0000       0.535881        14.5821 
 212   0.0000       0.538082        14.6420 
 213   0.0000       0.549265        14.9463 
 214   0.0000       0.551298        15.0016 
 215   0.0000       0.562700        15.3118 
 216   0.0000       0.565961        15.4006 
 217   0.0000       0.583916        15.8892 
 218   0.0000       0.590017        16.0552 
 219   0.0000       0.591352        16.0915 
 220   0.0000       0.595930        16.2161 
 221   0.0000       0.596782        16.2393 
 222   0.0000       0.610973        16.6254 
 223   0.0000       0.617565        16.8048 
 224   0.0000       0.622862        16.9489 
 225   0.0000       0.630951        17.1690 
 226   0.0000       0.633215        17.2307 
 227   0.0000       0.639084        17.3904 
 228   0.0000       0.642477        17.4827 
 229   0.0000       0.649832        17.6828 
 230   0.0000       0.651030        17.7154 
 231   0.0000       0.654450        17.8085 
 232   0.0000       0.655969        17.8498 
 233   0.0000       0.659815        17.9545 
 234   0.0000       0.662259        18.0210 
 235   0.0000       0.671595        18.2750 
 236   0.0000       0.673010        18.3135 
 237   0.0000       0.677166        18.4266 
 238   0.0000       0.679275        18.4840 
 239   0.0000       0.689320        18.7574 
 240   0.0000       0.691879        18.8270 
 241   0.0000       0.695784        18.9333 
 242   0.0000       0.697236        18.9727 
 243   0.0000       0.704465        19.1695 
 244   0.0000       0.706995        19.2383 
 245   0.0000       0.709701        19.3119 
 246   0.0000       0.712575        19.3901 
 247   0.0000       0.717648        19.5282 
 248   0.0000       0.720601        19.6086 
 249   0.0000       0.722190        19.6518 
 250   0.0000       0.734669        19.9914 
 251   0.0000       0.736789        20.0490 
 252   0.0000       0.740403        20.1474 
 253   0.0000       0.743362        20.2279 
 254   0.0000       0.750242        20.4151 
 255   0.0000       0.759155        20.6577 
 256   0.0000       0.759517        20.6675 
 257   0.0000       0.763631        20.7794 
 258   0.0000       0.764267        20.7968 
 259   0.0000       0.768720        20.9179 
 260   0.0000       0.771477        20.9930 
 261   0.0000       0.772600        21.0235 
 262   0.0000       0.776286        21.1238 
 263   0.0000       0.779948        21.2235 
 264   0.0000       0.784759        21.3544 
 265   0.0000       0.785361        21.3707 
 266   0.0000       0.791154        21.5284 
 267   0.0000       0.798417        21.7260 
 268   0.0000       0.800442        21.7811 
 269   0.0000       0.802562        21.8388 
 270   0.0000       0.812076        22.0977 
 271   0.0000       0.812989        22.1225 
 272   0.0000       0.814100        22.1528 
 273   0.0000       0.825125        22.4528 
 274   0.0000       0.834513        22.7082 
 275   0.0000       0.836675        22.7671 
 276   0.0000       0.842364        22.9219 
 277   0.0000       0.843272        22.9466 
 278   0.0000       0.845349        23.0031 
[...]
   Lowest Energy          :     0.143248359341
   Maximum Energy change  :     0.000016241701 (vector 9)
   Maximum residual norm  :     0.000004032631

                       ****Iteration   12****
              <<< Entering MO-section for Build Sigma(Double) >>>
   Forming the XC and CPCM contribution:
   Time for densities:            0.143
   Time for XC-Integration:      11.511
   Time for LR-CPCM terms:        5.620
   Time for Sigma-Completion:     0.091
   Time for building 10 sigma-vectors
   Data Preparation Phase         ...     0.00 sec
   Transformed RI Coulomb         ...     0.39 sec
   Transformed RI-exchange        ...    58.67 sec
   (ab|v) reading and digestion   ...    54.38 sec
   Final sigma-completion         ...     0.00 sec
   Done building sigma-vectors             Size of expansion space: 30
   Lowest Energy          :     0.143248359341
   Maximum Energy change  :     0.000010555574 (vector 9)
   Maximum residual norm  :     0.000001362980

                       ****Iteration   13****
              <<< Entering MO-section for Build Sigma(Double) >>>
   Forming the XC and CPCM contribution:
   Time for densities:            0.127
   Time for XC-Integration:      10.665
   Time for LR-CPCM terms:        5.312
   Time for Sigma-Completion:     0.086
   Time for building 9 sigma-vectors
   Data Preparation Phase         ...     0.00 sec
   Transformed RI Coulomb         ...     0.31 sec
   Transformed RI-exchange        ...    49.92 sec
   (ab|v) reading and digestion   ...    45.60 sec
   Final sigma-completion         ...     0.00 sec
   Done building sigma-vectors             Size of expansion space: 39
   Lowest Energy          :     0.143248359341
   Maximum Energy change  :     0.000004341907 (vector 9)
   Maximum residual norm  :     0.000000782021

      *** CONVERGENCE OF RESIDUAL NORM REACHED ***

Storing the converged CI vectors               ... optpbed3-b2gp-plyp-train-4_job2.cis1

                 *** DAVIDSON DONE ***

Total time for solving the CIS problem:  1716.181sec

------------------
DOUBLES CORRECTION (Double precision version)
------------------

The (D) correction will be scaled by  0.3600
Doing v(i,a)*T(i,a) terms (RI)                    ... ok
Doing u(i,j,a,b) terms for state   0              ... ok
Doing u(i,j,a,b) terms for state   1              ... ok
Doing u(i,j,a,b) terms for state   2              ... ok
Doing u(i,j,a,b) terms for state   3              ... ok
Doing u(i,j,a,b) terms for state   4              ... ok
Doing u(i,j,a,b) terms for state   5              ... ok
Doing u(i,j,a,b) terms for state   6              ... ok
Doing u(i,j,a,b) terms for state   7              ... ok
Doing u(i,j,a,b) terms for state   8              ... ok
Doing u(i,j,a,b) terms for state   9              ... ok

Contributions to the (D) correction(s) (in eV)

STATE  Final   Init.   Total   v(ext)   v(int)  v(3)    u
       omega   omega     (D)                             
-----------------------------------------------------------------------------
   0   3.823   3.898  -0.075   0.671   1.140  -0.093  -1.793
   1   4.075   4.620  -0.545   0.691   1.103  -0.049  -2.290
   2   4.666   5.076  -0.410   0.519   1.121  -0.026  -2.024
   3   4.884   5.246  -0.362   0.665   0.849  -0.038  -1.838
   4   4.976   5.334  -0.358   0.443   1.062  -0.025  -1.838
   5   4.954   5.405  -0.451   0.549   1.113  -0.042  -2.072
   6   5.167   5.473  -0.306   0.414   1.103  -0.040  -1.783
   7   5.415   5.608  -0.194   0.191   1.104  -0.015  -1.475
   8   5.441   5.859  -0.418   0.580   1.131  -0.059  -2.071
   9   5.516   5.968  -0.451   0.442   1.121  -0.047  -1.967

(D)-timings
 V(i,a)*T(i,a) terms           ...   138.592 sec
 U(i,j,a,b) 3-internal         ...     3.801 sec
 U(i,j,a,b) 3-external         ...   109.956 sec
 U(i,j,a,b) pair terms         ...    68.000 sec
 Total measured time           ...   661.257 sec

 Time for (ab|v) I/O           ...    36.998 sec


------------------------------------
TD-DFT/TDA EXCITED STATES (SINGLETS)
------------------------------------

the weight of the individual excitations are printed if larger than 1.0e-02

STATE  1:  E=   0.140494 au      3.823 eV    30834.9 cm**-1 <S**2> =   0.000000
    57a ->  59a  :     0.012231 (c=  0.11059285)
    58a ->  59a  :     0.922303 (c= -0.96036611)

STATE  2:  E=   0.149742 au      4.075 eV    32864.6 cm**-1 <S**2> =   0.000000
    57a ->  59a  :     0.825551 (c= -0.90859835)
    58a ->  64a  :     0.035504 (c= -0.18842429)
    58a ->  65a  :     0.023473 (c= -0.15320930)
    58a ->  67a  :     0.011724 (c= -0.10827942)

STATE  3:  E=   0.171456 au      4.666 eV    37630.2 cm**-1 <S**2> =   0.000000
    55a ->  64a  :     0.015561 (c=  0.12474355)
    56a ->  59a  :     0.293600 (c=  0.54184884)
    56a ->  71a  :     0.013442 (c=  0.11593756)
    57a ->  64a  :     0.014917 (c=  0.12213345)
    57a ->  67a  :     0.012235 (c= -0.11061241)
    58a ->  60a  :     0.207844 (c= -0.45589868)
    58a ->  61a  :     0.016759 (c=  0.12945742)
    58a ->  64a  :     0.181354 (c= -0.42585712)
    58a ->  67a  :     0.053581 (c=  0.23147571)
    58a ->  68a  :     0.031519 (c=  0.17753548)
    58a ->  78a  :     0.022085 (c= -0.14860960)

STATE  4:  E=   0.179473 au      4.884 eV    39389.8 cm**-1 <S**2> =   0.000000
    53a ->  59a  :     0.215312 (c= -0.46401731)
    54a ->  59a  :     0.521229 (c= -0.72196219)
    54a ->  74a  :     0.010994 (c=  0.10485417)
    55a ->  59a  :     0.064417 (c=  0.25380510)
    56a ->  59a  :     0.027814 (c= -0.16677391)
    58a ->  60a  :     0.026999 (c= -0.16431425)
    58a ->  64a  :     0.027146 (c= -0.16475949)

STATE  5:  E=   0.182856 au      4.976 eV    40132.3 cm**-1 <S**2> =   0.000000
    53a ->  59a  :     0.019227 (c=  0.13866229)
    54a ->  59a  :     0.035301 (c=  0.18788507)
    56a ->  59a  :     0.291441 (c= -0.53985281)
    56a ->  71a  :     0.010645 (c= -0.10317673)
    57a ->  60a  :     0.039102 (c= -0.19774185)
    57a ->  64a  :     0.019297 (c= -0.13891283)
    58a ->  60a  :     0.200367 (c= -0.44762427)
    58a ->  61a  :     0.035514 (c=  0.18845070)
    58a ->  67a  :     0.017254 (c= -0.13135383)
    58a ->  68a  :     0.022507 (c=  0.15002333)
    58a ->  69a  :     0.017247 (c= -0.13132636)
    58a ->  78a  :     0.084768 (c= -0.29114989)
    58a ->  80a  :     0.027848 (c=  0.16687745)
    58a ->  87a  :     0.010008 (c=  0.10004047)

STATE  6:  E=   0.182051 au      4.954 eV    39955.6 cm**-1 <S**2> =   0.000000
    53a ->  59a  :     0.037176 (c=  0.19280950)
    54a ->  59a  :     0.010856 (c=  0.10419371)
    55a ->  59a  :     0.034669 (c=  0.18619565)
    55a ->  63a  :     0.024396 (c=  0.15619192)
    57a ->  59a  :     0.038616 (c=  0.19650873)
    57a ->  64a  :     0.045127 (c= -0.21243196)
    57a ->  65a  :     0.038863 (c= -0.19713788)
    57a ->  67a  :     0.026210 (c= -0.16189363)
    58a ->  60a  :     0.010036 (c=  0.10018006)
    58a ->  62a  :     0.045593 (c= -0.21352619)
    58a ->  63a  :     0.365281 (c=  0.60438443)
    58a ->  64a  :     0.033124 (c= -0.18199880)
    58a ->  65a  :     0.085577 (c= -0.29253495)
    58a ->  66a  :     0.014297 (c=  0.11957042)
    58a ->  67a  :     0.049873 (c= -0.22332221)
    58a ->  68a  :     0.010978 (c= -0.10477429)
    58a ->  72a  :     0.011661 (c=  0.10798795)

STATE  7:  E=   0.189882 au      5.167 eV    41674.3 cm**-1 <S**2> =   0.000000
    53a ->  59a  :     0.013652 (c=  0.11684297)
    57a ->  59a  :     0.035016 (c=  0.18712661)
    57a ->  62a  :     0.014114 (c=  0.11880033)
    57a ->  63a  :     0.096037 (c= -0.30989799)
    57a ->  69a  :     0.010383 (c=  0.10189915)
    58a ->  60a  :     0.064119 (c=  0.25321783)
    58a ->  61a  :     0.018673 (c=  0.13664738)
    58a ->  62a  :     0.039018 (c=  0.19752878)
    58a ->  63a  :     0.200726 (c= -0.44802444)
    58a ->  64a  :     0.130737 (c= -0.36157568)
    58a ->  65a  :     0.150701 (c= -0.38820218)
    58a ->  66a  :     0.013507 (c= -0.11622020)
    58a ->  67a  :     0.064513 (c= -0.25399441)
    58a ->  69a  :     0.013119 (c=  0.11453785)

STATE  8:  E=   0.198991 au      5.415 eV    43673.4 cm**-1 <S**2> =   0.000000
    53a ->  59a  :     0.018470 (c=  0.13590535)
    56a ->  59a  :     0.011004 (c= -0.10489967)
    57a ->  63a  :     0.025721 (c= -0.16037744)
    58a ->  60a  :     0.157713 (c= -0.39713064)
    58a ->  61a  :     0.147267 (c= -0.38375419)
    58a ->  64a  :     0.026011 (c= -0.16127874)
    58a ->  65a  :     0.013405 (c=  0.11577932)
    58a ->  68a  :     0.284080 (c= -0.53299157)
    58a ->  69a  :     0.056653 (c=  0.23801803)
    58a ->  70a  :     0.055622 (c=  0.23584402)
    58a ->  78a  :     0.039776 (c=  0.19943843)
    58a ->  87a  :     0.014195 (c= -0.11914357)

STATE  9:  E=   0.199945 au      5.441 eV    43882.8 cm**-1 <S**2> =   0.000000
    53a ->  59a  :     0.016599 (c=  0.12883595)
    55a ->  59a  :     0.471518 (c=  0.68667152)
    56a ->  59a  :     0.048695 (c=  0.22066947)
    56a ->  64a  :     0.032367 (c= -0.17990822)
    56a ->  67a  :     0.017258 (c=  0.13136842)
    57a ->  60a  :     0.020731 (c= -0.14398175)
    57a ->  64a  :     0.036184 (c= -0.19021977)
    57a ->  65a  :     0.012265 (c= -0.11074803)
    58a ->  62a  :     0.010091 (c=  0.10045605)
    58a ->  63a  :     0.084970 (c= -0.29149550)
    58a ->  64a  :     0.047816 (c=  0.21866761)
    58a ->  65a  :     0.011647 (c=  0.10792142)
    58a ->  67a  :     0.011781 (c= -0.10853914)
    58a ->  71a  :     0.017045 (c= -0.13055780)
    58a ->  74a  :     0.012859 (c= -0.11339757)

STATE 10:  E=   0.202720 au      5.516 eV    44491.9 cm**-1 <S**2> =   0.000000
    54a ->  59a  :     0.030299 (c=  0.17406674)
    55a ->  59a  :     0.097722 (c=  0.31260580)
    56a ->  59a  :     0.146013 (c= -0.38211673)
    57a ->  60a  :     0.180282 (c=  0.42459606)
    57a ->  61a  :     0.012927 (c= -0.11369598)
    57a ->  62a  :     0.014711 (c= -0.12128715)
    57a ->  63a  :     0.104815 (c=  0.32375192)
    57a ->  64a  :     0.022859 (c=  0.15119274)
    57a ->  68a  :     0.014470 (c= -0.12029203)
    57a ->  78a  :     0.016883 (c=  0.12993645)
    58a ->  62a  :     0.016406 (c=  0.12808737)
    58a ->  64a  :     0.102979 (c= -0.32090348)
    58a ->  67a  :     0.048321 (c=  0.21982075)
    58a ->  70a  :     0.012930 (c= -0.11370862)


-----------------------------
TD-DFT/TDA-EXCITATION SPECTRA
-----------------------------

Center of mass = (  0.2777, -0.0029, -0.0073)
Calculating the Dipole integrals                  ... done
Transforming integrals                            ... done
Calculating the Linear Momentum integrals         ... done
Transforming integrals                            ... done
Calculating angular momentum integrals            ... done
Transforming integrals                            ... done

-----------------------------------------------------------------------------
         ABSORPTION SPECTRUM VIA TRANSITION ELECTRIC DIPOLE MOMENTS
-----------------------------------------------------------------------------
State   Energy    Wavelength  fosc         T2        TX        TY        TZ  
        (cm-1)      (nm)                 (au**2)    (au)      (au)      (au) 
-----------------------------------------------------------------------------
   1   30834.9    324.3   0.601716127   6.42428  -2.44897   0.28702  -0.58689
   2   32864.6    304.3   0.148122659   1.48378   0.88609   0.46713  -0.69312
   3   37630.2    265.7   0.021069251   0.18433  -0.30743  -0.27228   0.12522
   4   39389.8    253.9   0.026313854   0.21993  -0.32054   0.27405   0.20513
   5   40132.3    249.2   0.019710312   0.16169  -0.33155   0.17100  -0.15007
   6   39955.6    250.3   0.080804270   0.66578  -0.66583  -0.32411   0.34264
   7   41674.3    240.0   0.222106061   1.75456  -1.22092  -0.19305   0.47606
   8   43673.4    229.0   0.021176599   0.15963  -0.33036  -0.20777  -0.08556
   9   43882.8    227.9   0.012867241   0.09653  -0.21522  -0.16790  -0.14840
  10   44491.9    224.8   0.099153392   0.73367  -0.54712   0.53188  -0.38915

-----------------------------------------------------------------------------
         ABSORPTION SPECTRUM VIA TRANSITION VELOCITY DIPOLE MOMENTS
-----------------------------------------------------------------------------
State   Energy    Wavelength   fosc        P2         PX        PY        PZ  
        (cm-1)      (nm)                 (au**2)     (au)      (au)      (au) 
-----------------------------------------------------------------------------
   1   30834.9    324.3   0.176458760   0.03719   0.18666   0.03302  -0.03540
   2   32864.6    304.3   0.065312496   0.01467  -0.12087   0.00206  -0.00744
   3   37630.2    265.7   0.007179738   0.00185   0.04095   0.01197  -0.00512
   4   39389.8    253.9   0.005844621   0.00157   0.03876   0.00528  -0.00659
   5   40132.3    249.2   0.005207154   0.00143   0.03758  -0.00336  -0.00220
   6   39955.6    250.3   0.030210067   0.00825   0.09077   0.00322  -0.00074
   7   41674.3    240.0   0.100722242   0.02869   0.16248   0.01749  -0.04451
   8   43673.4    229.0   0.011138725   0.00332   0.04523   0.03324   0.01322
   9   43882.8    227.9   0.008961725   0.00269   0.04928   0.01516  -0.00545
  10   44491.9    224.8   0.022355633   0.00680   0.08037  -0.00946   0.01579

-------------------------------------------------------------------
                             CD SPECTRUM
-------------------------------------------------------------------
State  Energy     Wavelength     R         MX        MY        MZ   
       (cm-1)       (nm)     (1e40*cgs)   (au)      (au)      (au)  
-------------------------------------------------------------------
   1   30834.9    324.3     47.49786  -0.04207  -0.17565  -0.08204
   2   32864.6    304.3     19.73507   0.05239  -0.00309   0.00450
   3   37630.2    265.7     -2.67012   0.08592  -0.10491  -0.06239
   4   39389.8    253.9     57.39943  -0.47960  -0.08753  -0.03898
   5   40132.3    249.2    -15.81539   0.10428  -0.10316  -0.12440
   6   39955.6    250.3     -7.89479   0.05067  -0.13484  -0.07795
   7   41674.3    240.0     43.88560  -0.08471   0.03548  -0.00732
   8   43673.4    229.0    -46.78897   0.33682  -0.01130  -0.11315
   9   43882.8    227.9    -68.31700  -0.02025   0.49000   0.45147
  10   44491.9    224.8    -61.58808   0.11469  -0.37138  -0.33316

-------------------------------------------------------------------
         CD SPECTRUM VIA TRANSITION VELOCITY DIPOLE MOMENTS        
-------------------------------------------------------------------
State  Energy     Wavelength     R         MX        MY        MZ   
       (cm-1)       (nm)     (1e40*cgs)   (au)      (au)      (au)  
-------------------------------------------------------------------
   1   30834.9    324.3    -36.06782  -0.04207  -0.17565  -0.08204
   2   32864.6    304.3    -20.06376   0.05239  -0.00309   0.00450
   3   37630.2    265.7      7.10004   0.08592  -0.10491  -0.06239
   4   39389.8    253.9    -49.36701  -0.47960  -0.08753  -0.03898
   5   40132.3    249.2     11.70170   0.10428  -0.10316  -0.12440
   6   39955.6    250.3     10.93598   0.05067  -0.13484  -0.07795
   7   41674.3    240.0    -31.82324  -0.08471   0.03548  -0.00732
   8   43673.4    229.0     31.65745   0.33682  -0.01130  -0.11315
   9   43882.8    227.9      9.35864  -0.02025   0.49000   0.45147
  10   44491.9    224.8     17.37274   0.11469  -0.37138  -0.33316

Total run time:     2383.235 sec

           *** ORCA-CIS/TD-DFT FINISHED WITHOUT ERROR ***

Maximum memory used throughout the entire CIS-calculation: 631.1 MB

-----------------------
CIS/TD-DFT TOTAL ENERGY
-----------------------

    E(SCF)  =  -1238.715597546 Eh
    DE(CIS) =      0.140494202 Eh (Root  1)
    ----------------------------- ---------
    E(tot)  =  -1238.575103345 Eh



-------------------------------------------------------------------------------
                          DFT DISPERSION CORRECTION                            
                                                                               
                              DFTD3 V3.1  Rev 1                                
                          USING Becke-Johnson damping                          
-------------------------------------------------------------------------------
The B2GP-PLYP functional is recognized
Active option DFTDOPT                   ...         4   

molecular C6(AA) [au] = 10836.591501 


            DFT-D V3
 parameters
 s6 scaling factor         :     0.5600 
 a1 scaling factor         :     0.0000 
 s8 scaling factor         :     0.2597 
 a2 scaling factor         :     6.3332 
 ad hoc parameters k1-k3   :    16.0000     1.3333    -4.0000 

 Edisp/kcal,au: -15.574342507351  -0.024819291963 
 E6   /kcal   : -11.458141462 
 E8   /kcal   :  -4.116201045 
 % E8         :  26.429372817 

-------------------------   ----------------
Dispersion correction           -0.024819292
-------------------------   ----------------


-------------------------   --------------------
FINAL SINGLE POINT ENERGY     -1238.599922636468
-------------------------   --------------------


                            ***************************************
                            *     ORCA property calculations      *
                            ***************************************


  WARNING: The energy has been calculated at the MP2 level but the densities
           used in the property calculations are still SCF densities
           MP2 response densities have not been calculated 
           use %mp2 Density relaxed end
           or  %mp2 Density unrelaxed end

                                    ---------------------
                                    Active property flags
                                    ---------------------
   (+) Dipole Moment


------------------------------------------------------------------------------
                       ORCA ELECTRIC PROPERTIES CALCULATION
------------------------------------------------------------------------------

Dipole Moment Calculation                       ... on
Quadrupole Moment Calculation                   ... off
Polarizability Calculation                      ... off
GBWName                                         ... optpbed3-b2gp-plyp-train-4_job2.gbw
Electron density                                ... optpbed3-b2gp-plyp-train-4_job2.scfp
The origin for moment calculation is the CENTER OF MASS  = ( 0.277650, -0.002860 -0.007308)

-------------
DIPOLE MOMENT
-------------
                                X             Y             Z
Electronic contribution:      2.96216      -0.52281       0.76492
Nuclear contribution   :     -2.87896       0.80686      -1.16266
                        -----------------------------------------
Total Dipole Moment    :      0.08321       0.28404      -0.39775
                        -----------------------------------------
Magnitude (a.u.)       :      0.49579
Magnitude (Debye)      :      1.26019



--------------------
Rotational spectrum 
--------------------
 
Rotational constants in cm-1:     0.054310     0.008992     0.007818 
Rotational constants in MHz :  1628.178500   269.560594   234.362861 

 Dipole components along the rotational axes: 
x,y,z [a.u.] :    -0.149980    -0.468691    -0.060339 
x,y,z [Debye]:    -0.381220    -1.191318    -0.153370 

 

Timings for individual modules:

Sum of individual times         ...     3278.881 sec (=  54.648 min)
GTO integral calculation        ...        3.344 sec (=   0.056 min)   0.1 %
SCF iterations                  ...      505.375 sec (=   8.423 min)  15.4 %
MP2 module                      ...      386.352 sec (=   6.439 min)  11.8 %
CIS module                      ...     2383.810 sec (=  39.730 min)  72.7 %



                             ****ORCA TERMINATED NORMALLY****
TOTAL RUN TIME: 0 days 3 hours 30 minutes 22 seconds 555 msec
