
                                 *****************
                                 * O   R   C   A *
                                 *****************

                                            #,                                       
                                            ###                                      
                                            ####                                     
                                            #####                                    
                                            ######                                   
                                           ########,                                 
                                     ,,################,,,,,                         
                               ,,#################################,,                 
                          ,,##########################################,,             
                       ,#########################################, ''#####,          
                    ,#############################################,,   '####,        
                  ,##################################################,,,,####,       
                ,###########''''           ''''###############################       
              ,#####''   ,,,,##########,,,,          '''####'''          '####       
            ,##' ,,,,###########################,,,                        '##       
           ' ,,###''''                  '''############,,,                           
         ,,##''                                '''############,,,,        ,,,,,,###''
      ,#''                                            '''#######################'''  
     '                                                          ''''####''''         
             ,#######,   #######,   ,#######,      ##                                
            ,#'     '#,  ##    ##  ,#'     '#,    #''#        ######   ,####,        
            ##       ##  ##   ,#'  ##            #'  '#       #        #'  '#        
            ##       ##  #######   ##           ,######,      #####,   #    #        
            '#,     ,#'  ##    ##  '#,     ,#' ,#      #,         ##   #,  ,#        
             '#######'   ##     ##  '#######'  #'      '#     #####' # '####'        



                  #######################################################
                  #                        -***-                        #
                  #          Department of theory and spectroscopy      #
                  #    Directorship and core code : Frank Neese         #
                  #        Max Planck Institute fuer Kohlenforschung    #
                  #                Kaiser Wilhelm Platz 1               #
                  #                 D-45470 Muelheim/Ruhr               #
                  #                      Germany                        #
                  #                                                     #
                  #                  All rights reserved                #
                  #                        -***-                        #
                  #######################################################


                         Program Version 5.0.2 -  RELEASE  -


 With contributions from (in alphabetic order):
   Daniel Aravena         : Magnetic Suceptibility
   Michael Atanasov       : Ab Initio Ligand Field Theory (pilot matlab implementation)
   Alexander A. Auer      : GIAO ZORA, VPT2 properties, NMR spectrum
   Ute Becker             : Parallelization
   Giovanni Bistoni       : ED, misc. LED, open-shell LED, HFLD
   Martin Brehm           : Molecular dynamics
   Dmytro Bykov           : SCF Hessian
   Vijay G. Chilkuri      : MRCI spin determinant printing, contributions to CSF-ICE
   Dipayan Datta          : RHF DLPNO-CCSD density
   Achintya Kumar Dutta   : EOM-CC, STEOM-CC
   Dmitry Ganyushin       : Spin-Orbit,Spin-Spin,Magnetic field MRCI
   Miquel Garcia          : C-PCM and meta-GGA Hessian, CC/C-PCM, Gaussian charge scheme
   Yang Guo               : DLPNO-NEVPT2, F12-NEVPT2, CIM, IAO-localization
   Andreas Hansen         : Spin unrestricted coupled pair/coupled cluster methods
   Benjamin Helmich-Paris : MC-RPA, TRAH-SCF, COSX integrals
   Lee Huntington         : MR-EOM, pCC
   Robert Izsak           : Overlap fitted RIJCOSX, COSX-SCS-MP3, EOM
   Marcus Kettner         : VPT2
   Christian Kollmar      : KDIIS, OOCD, Brueckner-CCSD(T), CCSD density, CASPT2, CASPT2-K
   Simone Kossmann        : Meta GGA functionals, TD-DFT gradient, OOMP2, MP2 Hessian
   Martin Krupicka        : Initial AUTO-CI
   Lucas Lang             : DCDCAS
   Marvin Lechner         : AUTO-CI (C++ implementation), FIC-MRCC
   Dagmar Lenk            : GEPOL surface, SMD
   Dimitrios Liakos       : Extrapolation schemes; Compound Job, initial MDCI parallelization
   Dimitrios Manganas     : Further ROCIS development; embedding schemes
   Dimitrios Pantazis     : SARC Basis sets
   Anastasios Papadopoulos: AUTO-CI, single reference methods and gradients
   Taras Petrenko         : DFT Hessian,TD-DFT gradient, ASA, ECA, R-Raman, ABS, FL, XAS/XES, NRVS
   Peter Pinski           : DLPNO-MP2, DLPNO-MP2 Gradient
   Christoph Reimann      : Effective Core Potentials
   Marius Retegan         : Local ZFS, SOC
   Christoph Riplinger    : Optimizer, TS searches, QM/MM, DLPNO-CCSD(T), (RO)-DLPNO pert. Triples
   Tobias Risthaus        : Range-separated hybrids, TD-DFT gradient, RPA, STAB
   Michael Roemelt        : Original ROCIS implementation
   Masaaki Saitow         : Open-shell DLPNO-CCSD energy and density
   Barbara Sandhoefer     : DKH picture change effects
   Avijit Sen             : IP-ROCIS
   Kantharuban Sivalingam : CASSCF convergence, NEVPT2, FIC-MRCI
   Bernardo de Souza      : ESD, SOC TD-DFT
   Georgi Stoychev        : AutoAux, RI-MP2 NMR, DLPNO-MP2 response
   Willem Van den Heuvel  : Paramagnetic NMR
   Boris Wezisla          : Elementary symmetry handling
   Frank Wennmohs         : Technical directorship


 We gratefully acknowledge several colleagues who have allowed us to
 interface, adapt or use parts of their codes:
   Stefan Grimme, W. Hujo, H. Kruse, P. Pracht,  : VdW corrections, initial TS optimization,
                  C. Bannwarth, S. Ehlert          DFT functionals, gCP, sTDA/sTD-DF
   Ed Valeev, F. Pavosevic, A. Kumar             : LibInt (2-el integral package), F12 methods
   Garnet Chan, S. Sharma, J. Yang, R. Olivares  : DMRG
   Ulf Ekstrom                                   : XCFun DFT Library
   Mihaly Kallay                                 : mrcc  (arbitrary order and MRCC methods)
   Jiri Pittner, Ondrej Demel                    : Mk-CCSD
   Frank Weinhold                                : gennbo (NPA and NBO analysis)
   Christopher J. Cramer and Donald G. Truhlar   : smd solvation model
   Lars Goerigk                                  : TD-DFT with DH, B97 family of functionals
   V. Asgeirsson, H. Jonsson                     : NEB implementation
   FAccTs GmbH                                   : IRC, NEB, NEB-TS, DLPNO-Multilevel, CI-OPT
                                                   MM, QMMM, 2- and 3-layer-ONIOM, Crystal-QMMM,
                                                   LR-CPCM, SF, NACMEs, symmetry and pop. for TD-DFT,
                                                   nearIR, NL-DFT gradient (VV10), updates on ESD,
                                                   ML-optimized integration grids
   S Lehtola, MJT Oliveira, MAL Marques          : LibXC Library
   Liviu Ungur et al                             : ANISO software


 Your calculation uses the libint2 library for the computation of 2-el integrals
 For citations please refer to: http://libint.valeyev.net

 Your ORCA version has been built with support for libXC version: 5.1.0
 For citations please refer to: https://tddft.org/programs/libxc/

 This ORCA versions uses:
   CBLAS   interface :  Fast vector & matrix operations
   LAPACKE interface :  Fast linear algebra routines
   SCALAPACK package :  Parallel linear algebra routines
   Shared memory     :  Shared parallel matrices
   BLAS/LAPACK       :  OpenBLAS 0.3.15  USE64BITINT DYNAMIC_ARCH NO_AFFINITY SkylakeX SINGLE_THREADED
        Core in use  :  SkylakeX
   Copyright (c) 2011-2014, The OpenBLAS Project


Your calculation utilizes the atom-pairwise dispersion correction
with the Becke-Johnson damping scheme (D3BJ)
Cite in your paper:
S.Grimme, S.Ehrlich, L.Goerigk, J Comput Chem, (2011), 32, 1456–1465 
S.Grimme, J.Antony, S.Ehrlich and H.Krieg, J.Chem.Phys., 132, (2010), 154104 
   

Your calculation utilizes the SMD solvation module
Please cite in your paper:
A.V. Marenich, C.J. Cramer, D.G. Truhlar J. Phys. Chem. B, 113, (2009), 6378 

================================================================================

----- Orbital basis set information -----
Your calculation utilizes the basis: aug-cc-pVTZ 
    H, B-Ne : Obtained from the ccRepo (grant-hill.group.shef.ac.uk/ccrepo) Feb. 2017
              R. A. Kendall, T. H. Dunning, Jr., R. J. Harrison, J. Chem. Phys. 96, 6796 (1992)
         He : Obtained from the ccRepo (grant-hill.group.shef.ac.uk/ccrepo) Feb. 2017
              D. E. Woon, T. H. Dunning, Jr., J. Chem. Phys. 100, 2975 (1994)
  Li-Be, Na : Obtained from the ccRepo (grant-hill.group.shef.ac.uk/ccrepo) Feb. 2017
              B. P. Prascher, D. E. Woon, K. A. Peterson, T. H. Dunning, Jr., A. K. Wilson, Theor. Chem. Acc. 128, 69 (2011)
         Mg : Obtained from the Peterson Research Group Website (tyr0.chem.wsu.edu/~kipeters) Feb. 2017
              B. P. Prascher, D. E. Woon, K. A. Peterson, T. H. Dunning, Jr., A. K. Wilson, Theor. Chem. Acc. 128, 69 (2011)
      Al-Ar : Obtained from the ccRepo (grant-hill.group.shef.ac.uk/ccrepo) Feb. 2017
              D. E. Woon, T. H. Dunning, Jr., J. Chem. Phys. 98, 1358 (1993)
      Sc-Zn : Obtained from the ccRepo (grant-hill.group.shef.ac.uk/ccrepo) Feb. 2017
              N. B. Balabanov, K. A. Peterson, J. Chem. Phys. 123, 064107 (2005)
              N. B. Balabanov, K. A. Peterson, J. Chem. Phys. 125, 074110 (2006)
      Ga-Kr : Obtained from the ccRepo (grant-hill.group.shef.ac.uk/ccrepo) Feb. 2017
              A. K. Wilson, D. E. Woon, K. A. Peterson, T. H. Dunning, Jr., J. Chem. Phys. 110, 7667 (1999)
     Ag, Au : Obtained from the Peterson Research Group Website (tyr0.chem.wsu.edu/~kipeters) Feb. 2017
              K. A. Peterson, C. Puzzarini, Theor. Chem. Acc. 114, 283 (2005)

The basis set includes element-specific modifications.

Your calculation utilizes the basis: cc-pVTZ 
       H, B-Ne : Obtained from the ccRepo (grant-hill.group.shef.ac.uk/ccrepo) Feb. 2017
                 T. H. Dunning, Jr., J. Chem. Phys. 90, 1007 (1989)
            He : Obtained from the ccRepo (grant-hill.group.shef.ac.uk/ccrepo) Feb. 2017
                 D. E. Woon, T. H. Dunning, Jr., J. Chem. Phys. 100, 2975 (1994)
  Li-Be, Na-Mg : Obtained from the ccRepo (grant-hill.group.shef.ac.uk/ccrepo) Feb. 2017
                 B. P. Prascher, D. E. Woon, K. A. Peterson, T. H. Dunning, Jr., A. K. Wilson, Theor. Chem. Acc. 128, 69 (2011)
         Al-Ar : Obtained from the ccRepo (grant-hill.group.shef.ac.uk/ccrepo) Feb. 2017
                 D. E. Woon, T. H. Dunning, Jr., J. Chem. Phys. 98, 1358 (1993)
            Ca : Obtained from the Peterson Research Group Website (tyr0.chem.wsu.edu/~kipeters) Feb. 2017
                 J. Koput, K. A. Peterson, J. Phys. Chem. 106, 9595 (2002)
         Sc-Zn : Obtained from the ccRepo (grant-hill.group.shef.ac.uk/ccrepo) Feb. 2017
                 N. B. Balabanov, K. A. Peterson, J. Chem. Phys. 123, 064107 (2005)
                 N. B. Balabanov, K. A. Peterson, J. Chem. Phys. 125, 074110 (2006)
         Ga-Kr : Obtained from the ccRepo (grant-hill.group.shef.ac.uk/ccrepo) Feb. 2017
                 A. K. Wilson, D. E. Woon, K. A. Peterson, T. H. Dunning, Jr., J. Chem. Phys. 110, 7667 (1999)
             Y : Obtained from the ccRepo (grant-hill.group.shef.ac.uk/ccrepo) Feb. 2017
                 K. A. Peterson, D. Figgen, M. Dolg, H. Stoll, J. Chem. Phys. 126, 124101 (2007)
        Ag, Au : Obtained from the Peterson Research Group Website (tyr0.chem.wsu.edu/~kipeters) Feb. 2017
                 K. A. Peterson, C. Puzzarini, Theor. Chem. Acc. 114, 283 (2005)

----- AuxJ basis set information -----
Your calculation utilizes the auxiliary basis: aug-cc-pVTZ/JK 
  H, B-F, Al-Cl, Ga-Br : Obtained from the TURBOMOLE 7.0 basis set library

The basis set includes element-specific modifications.

Your calculation utilizes the auxiliary basis: cc-pVTZ/JK 
  H, B-F, Al-Cl, Ga-Br : Obtained from the TURBOMOLE 7.0 basis set library

----- AuxC basis set information -----
Your calculation utilizes the auxiliary basis: aug-cc-pVTZ/C 
  H-He, B-F, Al-Ar, Ga-Kr : Obtained from the EMSL Basis Set Exchange (bse.pnl.gov) Feb. 2017
                            F. Weigend, A. Kohn, C. Hattig, J. Chem. Phys. 116, 3175 (2002)
                   Be, Mg : Obtained from the TURBOMOLE 7.0 basis set library
                            C. Haettig, Phys. Chem. Chem. Phys. 7, 59 (2005)
                       Ne : Obtained from the EMSL Basis Set Exchange (bse.pnl.gov) Feb. 2017
                            C. Haettig, Phys. Chem. Chem. Phys. 7, 59 (2005)
                            F. Weigend, A. Kohn, C. Hattig, J. Chem. Phys. 116, 3175 (2002)
                    Sc-Zn : Obtained from the EMSL Basis Set Exchange (bse.pnl.gov) Feb. 2017
                            J. G. Hill, J. A. Platts, J. Chem. Phys. 128, 044104 (2008)

The basis set includes element-specific modifications.

Your calculation utilizes the auxiliary basis: cc-pVTZ/C 
  Obtained from the EMSL Basis Set Exchange (bse.pnl.gov) Feb. 2017
  H-He, B-F, Al-Ar, Ga-Kr : F. Weigend, A. Kohn, C. Hattig, J. Chem. Phys. 116, 3175 (2002)
             Li-Be, Na-Mg : C. Haettig, Phys. Chem. Chem. Phys. 7, 59 (2005)
                       Ne : C. Haettig, Phys. Chem. Chem. Phys. 7, 59 (2005)
                            F. Weigend, A. Kohn, C. Hattig, J. Chem. Phys. 116, 3175 (2002)
                    Sc-Zn : J. G. Hill, J. A. Platts, J. Chem. Phys. 128, 044104 (2008)

================================================================================
                                        WARNINGS
                       Please study these warnings very carefully!
================================================================================


WARNING: Geometry Optimization
  ===> : Switching off AutoStart
         For restart on a previous wavefunction, please use MOREAD

INFO   : the flag for use of the SHARK integral package has been found!



***************************************
The coordinates will be read from file: 
***************************************


Your calculation utilizes the atom-pairwise dispersion correction
with the Becke-Johnson damping scheme (D3BJ)
Cite in your paper:
S.Grimme, S.Ehrlich, L.Goerigk, J Comput Chem, (2011), 32, 1456–1465 
S.Grimme, J.Antony, S.Ehrlich and H.Krieg, J.Chem.Phys., 132, (2010), 154104 
   

Your calculation utilizes the SMD solvation module
Please cite in your paper:
A.V. Marenich, C.J. Cramer, D.G. Truhlar J. Phys. Chem. B, 113, (2009), 6378 

================================================================================

----- Orbital basis set information -----
Your calculation utilizes the basis: aug-cc-pVTZ 
    H, B-Ne : Obtained from the ccRepo (grant-hill.group.shef.ac.uk/ccrepo) Feb. 2017
              R. A. Kendall, T. H. Dunning, Jr., R. J. Harrison, J. Chem. Phys. 96, 6796 (1992)
         He : Obtained from the ccRepo (grant-hill.group.shef.ac.uk/ccrepo) Feb. 2017
              D. E. Woon, T. H. Dunning, Jr., J. Chem. Phys. 100, 2975 (1994)
  Li-Be, Na : Obtained from the ccRepo (grant-hill.group.shef.ac.uk/ccrepo) Feb. 2017
              B. P. Prascher, D. E. Woon, K. A. Peterson, T. H. Dunning, Jr., A. K. Wilson, Theor. Chem. Acc. 128, 69 (2011)
         Mg : Obtained from the Peterson Research Group Website (tyr0.chem.wsu.edu/~kipeters) Feb. 2017
              B. P. Prascher, D. E. Woon, K. A. Peterson, T. H. Dunning, Jr., A. K. Wilson, Theor. Chem. Acc. 128, 69 (2011)
      Al-Ar : Obtained from the ccRepo (grant-hill.group.shef.ac.uk/ccrepo) Feb. 2017
              D. E. Woon, T. H. Dunning, Jr., J. Chem. Phys. 98, 1358 (1993)
      Sc-Zn : Obtained from the ccRepo (grant-hill.group.shef.ac.uk/ccrepo) Feb. 2017
              N. B. Balabanov, K. A. Peterson, J. Chem. Phys. 123, 064107 (2005)
              N. B. Balabanov, K. A. Peterson, J. Chem. Phys. 125, 074110 (2006)
      Ga-Kr : Obtained from the ccRepo (grant-hill.group.shef.ac.uk/ccrepo) Feb. 2017
              A. K. Wilson, D. E. Woon, K. A. Peterson, T. H. Dunning, Jr., J. Chem. Phys. 110, 7667 (1999)
     Ag, Au : Obtained from the Peterson Research Group Website (tyr0.chem.wsu.edu/~kipeters) Feb. 2017
              K. A. Peterson, C. Puzzarini, Theor. Chem. Acc. 114, 283 (2005)

The basis set includes element-specific modifications.

Your calculation utilizes the basis: cc-pVTZ 
       H, B-Ne : Obtained from the ccRepo (grant-hill.group.shef.ac.uk/ccrepo) Feb. 2017
                 T. H. Dunning, Jr., J. Chem. Phys. 90, 1007 (1989)
            He : Obtained from the ccRepo (grant-hill.group.shef.ac.uk/ccrepo) Feb. 2017
                 D. E. Woon, T. H. Dunning, Jr., J. Chem. Phys. 100, 2975 (1994)
  Li-Be, Na-Mg : Obtained from the ccRepo (grant-hill.group.shef.ac.uk/ccrepo) Feb. 2017
                 B. P. Prascher, D. E. Woon, K. A. Peterson, T. H. Dunning, Jr., A. K. Wilson, Theor. Chem. Acc. 128, 69 (2011)
         Al-Ar : Obtained from the ccRepo (grant-hill.group.shef.ac.uk/ccrepo) Feb. 2017
                 D. E. Woon, T. H. Dunning, Jr., J. Chem. Phys. 98, 1358 (1993)
            Ca : Obtained from the Peterson Research Group Website (tyr0.chem.wsu.edu/~kipeters) Feb. 2017
                 J. Koput, K. A. Peterson, J. Phys. Chem. 106, 9595 (2002)
         Sc-Zn : Obtained from the ccRepo (grant-hill.group.shef.ac.uk/ccrepo) Feb. 2017
                 N. B. Balabanov, K. A. Peterson, J. Chem. Phys. 123, 064107 (2005)
                 N. B. Balabanov, K. A. Peterson, J. Chem. Phys. 125, 074110 (2006)
         Ga-Kr : Obtained from the ccRepo (grant-hill.group.shef.ac.uk/ccrepo) Feb. 2017
                 A. K. Wilson, D. E. Woon, K. A. Peterson, T. H. Dunning, Jr., J. Chem. Phys. 110, 7667 (1999)
             Y : Obtained from the ccRepo (grant-hill.group.shef.ac.uk/ccrepo) Feb. 2017
                 K. A. Peterson, D. Figgen, M. Dolg, H. Stoll, J. Chem. Phys. 126, 124101 (2007)
        Ag, Au : Obtained from the Peterson Research Group Website (tyr0.chem.wsu.edu/~kipeters) Feb. 2017
                 K. A. Peterson, C. Puzzarini, Theor. Chem. Acc. 114, 283 (2005)

----- AuxJ basis set information -----
Your calculation utilizes the auxiliary basis: aug-cc-pVTZ/JK 
  H, B-F, Al-Cl, Ga-Br : Obtained from the TURBOMOLE 7.0 basis set library

The basis set includes element-specific modifications.

Your calculation utilizes the auxiliary basis: cc-pVTZ/JK 
  H, B-F, Al-Cl, Ga-Br : Obtained from the TURBOMOLE 7.0 basis set library

----- AuxC basis set information -----
Your calculation utilizes the auxiliary basis: aug-cc-pVTZ/C 
  H-He, B-F, Al-Ar, Ga-Kr : Obtained from the EMSL Basis Set Exchange (bse.pnl.gov) Feb. 2017
                            F. Weigend, A. Kohn, C. Hattig, J. Chem. Phys. 116, 3175 (2002)
                   Be, Mg : Obtained from the TURBOMOLE 7.0 basis set library
                            C. Haettig, Phys. Chem. Chem. Phys. 7, 59 (2005)
                       Ne : Obtained from the EMSL Basis Set Exchange (bse.pnl.gov) Feb. 2017
                            C. Haettig, Phys. Chem. Chem. Phys. 7, 59 (2005)
                            F. Weigend, A. Kohn, C. Hattig, J. Chem. Phys. 116, 3175 (2002)
                    Sc-Zn : Obtained from the EMSL Basis Set Exchange (bse.pnl.gov) Feb. 2017
                            J. G. Hill, J. A. Platts, J. Chem. Phys. 128, 044104 (2008)

The basis set includes element-specific modifications.

Your calculation utilizes the auxiliary basis: cc-pVTZ/C 
  Obtained from the EMSL Basis Set Exchange (bse.pnl.gov) Feb. 2017
  H-He, B-F, Al-Ar, Ga-Kr : F. Weigend, A. Kohn, C. Hattig, J. Chem. Phys. 116, 3175 (2002)
             Li-Be, Na-Mg : C. Haettig, Phys. Chem. Chem. Phys. 7, 59 (2005)
                       Ne : C. Haettig, Phys. Chem. Chem. Phys. 7, 59 (2005)
                            F. Weigend, A. Kohn, C. Hattig, J. Chem. Phys. 116, 3175 (2002)
                    Sc-Zn : J. G. Hill, J. A. Platts, J. Chem. Phys. 128, 044104 (2008)

================================================================================
                                        WARNINGS
                       Please study these warnings very carefully!
================================================================================

INFO   : Checking CIS options ...
  ===> : (D) CORRECTION FOUND - SETTING MODE=3
  ===> : JK MODE FOUND - ACTIVATING RI-MP2 CODE
  ===> : MP2 AND CIS FOUND - CHECKING
WARNING: CIS(D) and MP2 runs must have the same orbital window
  ===> : adjusting orbital windows

WARNING: No MP2 level density has been requested!
         To caclulate MP2 level properties use
         %mp2 Density relaxed end
         or
         %mp2 Density unrelaxed end
         Otherwise for double-hybrid DFT only the energy is correct!

WARNING: The frozen-core approximation is turned on by default for 
         the MP2 part of double-hybrid DFT.

WARNING:  You are using a Range-Separated Double Hybrid functional with Doubles Correction 
          Changing Mode to AOINTS 


INFO   : the flag for use of the SHARK integral package has been found!

================================================================================
                                       INPUT FILE
================================================================================
NAME = optpbed3-wb2plyp-train-4.inp
|  1> ! pbe0 d3bj aug-cc-PVTZ RIJCOSX Opt
|  2> %maxcore 4000
|  3> %basis
|  4>  AuxJ "aug-cc-PVTZ/JK"
|  5>  AuxC "aug-cc-PVTZ/C"
|  6>  newGTO H "cc-PVTZ" end
|  7>  newAuxJGTO H "cc-PVTZ/JK" end
|  8>  newAuxCGTO H "cc-PVTZ/C" end
|  9> end
| 10> %cpcm
| 11>  SMD true
| 12>  SMDsolvent "acetonitrile"
| 13> end
| 14> %pal nprocs 4 end
| 15> * xyz 0 1
| 16> C         -4.57040       -0.46150        0.41150
| 17> C         -4.02030        0.49180       -0.42940
| 18> C         -2.64950        0.61520       -0.54150
| 19> C         -1.79710       -0.21660        0.18870
| 20> C         -0.35690       -0.10750        0.08880
| 21> P          0.74210       -1.10260        0.96210
| 22> C          2.18870       -0.32020        0.26940
| 23> C          3.50480       -0.67740        0.58050
| 24> C          4.55840       -0.01500       -0.00560
| 25> C          4.32660        1.01730       -0.91390
| 26> C          3.04000        1.38880       -1.23760
| 27> C          1.97300        0.72160       -0.64740
| 28> S          0.31300        1.10370       -0.97940
| 29> C         -2.36710       -1.17440        1.03350
| 30> C         -3.73620       -1.29410        1.14250
| 31> H         -5.64250       -0.55610        0.49770
| 32> H         -4.66370        1.14380       -1.00180
| 33> H         -2.22950        1.36200       -1.20020
| 34> H          3.67680       -1.47810        1.28510
| 35> H          5.57280       -0.29380        0.23730
| 36> H          5.16140        1.52990       -1.36750
| 37> H          2.84950        2.18640       -1.93950
| 38> H         -1.71510       -1.82300        1.60290
| 39> H         -4.15830       -2.03970        1.80010
| 40> *
| 41> 
| 42> 
| 43> $new_job
| 44> ! wb2plyp aug-cc-PVTZ RIJCOSX SP
| 45> %maxcore 4000
| 46> %basis
| 47>  AuxJ "aug-cc-PVTZ/JK"
| 48>  AuxC "aug-cc-PVTZ/C"
| 49>  newGTO H "cc-PVTZ" end
| 50>  newAuxJGTO H "cc-PVTZ/JK" end
| 51>  newAuxCGTO H "cc-PVTZ/C" end
| 52> end
| 53> %cpcm
| 54>  SMD true
| 55>  SMDsolvent "acetonitrile"
| 56> end
| 57> %pal nprocs 4 end
| 58> %tddft
| 59>  nroots 10
| 60>  maxdim 7
| 61> end
| 62> * xyzfile 0 1
| 63> 
| 64>                          ****END OF INPUT****
================================================================================


                 $$$$$$$$$$$$$$$$$$$$$$$$$$$$$$$$$$$$$$$$$$$$$$ 
                 $ THERE ARE  2 JOBS TO BE PROCESSED THIS RUN $
                 $$$$$$$$$$$$$$$$$$$$$$$$$$$$$$$$$$$$$$$$$$$$$$ 




                 $$$$$$$$$$$$$$$$  JOB NUMBER  1 $$$$$$$$$$$$$$


                       *****************************
                       * Geometry Optimization Run *
                       *****************************

Geometry optimization settings:
Update method            Update   .... BFGS
Choice of coordinates    CoordSys .... Z-matrix Internals
Initial Hessian          InHess   .... Almoef's Model

Convergence Tolerances:
Energy Change            TolE     ....  5.0000e-06 Eh
Max. Gradient            TolMAXG  ....  3.0000e-04 Eh/bohr
RMS Gradient             TolRMSG  ....  1.0000e-04 Eh/bohr
Max. Displacement        TolMAXD  ....  4.0000e-03 bohr
RMS Displacement         TolRMSD  ....  2.0000e-03 bohr
Strict Convergence                ....  False
------------------------------------------------------------------------------
                        ORCA OPTIMIZATION COORDINATE SETUP
------------------------------------------------------------------------------

The optimization will be done in new redundant internal coordinates
Making redundant internal coordinates   ...  (new redundants) done
Evaluating the initial hessian          ...  (Almloef) done
Evaluating the coordinates              ...  done
Calculating the B-matrix                .... done
Calculating the G-matrix                .... done
Diagonalizing the G-matrix              .... done
Small eigenvalue found = 9.073e-03
The first mode is                       ....   61
The number of degrees of freedom        ....   66

    -----------------------------------------------------------------
                    Redundant Internal Coordinates


    -----------------------------------------------------------------
         Definition                    Initial Value    Approx d2E/dq
    -----------------------------------------------------------------
      1. B(C   1,C   0)                  1.3851         0.636144   
      2. B(C   2,C   1)                  1.3809         0.646035   
      3. B(C   3,C   2)                  1.3970         0.608886   
      4. B(C   4,C   3)                  1.4478         0.505311   
      5. B(P   5,C   4)                  1.7207         0.623279   
      6. B(C   6,P   5)                  1.7846         0.492885   
      7. B(C   7,C   6)                  1.3987         0.605038   
      8. B(C   8,C   7)                  1.3756         0.658664   
      9. B(C   9,C   8)                  1.3944         0.614752   
     10. B(C  10,C   9)                  1.3777         0.653609   
     11. B(C  11,C  10)                  1.3900         0.624895   
     12. B(C  11,C   6)                  1.4044         0.592560   
     13. B(S  12,C  11)                  1.7355         0.473528   
     14. B(S  12,C   4)                  1.7484         0.451584   
     15. B(C  13,C   3)                  1.3986         0.605456   
     16. B(C  14,C  13)                  1.3786         0.651426   
     17. B(C  14,C   0)                  1.3869         0.631968   
     18. B(H  15,C   0)                  1.0797         0.373970   
     19. B(H  16,C   1)                  1.0801         0.373378   
     20. B(H  17,C   2)                  1.0807         0.372562   
     21. B(H  18,C   7)                  1.0804         0.373089   
     22. B(H  19,C   8)                  1.0797         0.373996   
     23. B(H  20,C   9)                  1.0795         0.374209   
     24. B(H  21,C  10)                  1.0794         0.374389   
     25. B(H  22,C  13)                  1.0817         0.371295   
     26. B(H  23,C  14)                  1.0801         0.373495   
     27. A(C   1,C   0,H  15)          120.2070         0.356729   
     28. A(C   1,C   0,C  14)          119.6229         0.437585   
     29. A(C  14,C   0,H  15)          120.1701         0.356330   
     30. A(C   0,C   1,C   2)          120.3339         0.439326   
     31. A(C   2,C   1,H  16)          119.6265         0.357570   
     32. A(C   0,C   1,H  16)          120.0396         0.356633   
     33. A(C   1,C   2,C   3)          120.6675         0.435871   
     34. A(C   3,C   2,H  17)          119.5303         0.353862   
     35. A(C   1,C   2,H  17)          119.8023         0.357437   
     36. A(C   2,C   3,C   4)          121.7374         0.417109   
     37. A(C   2,C   3,C  13)          118.3473         0.430815   
     38. A(C   4,C   3,C  13)          119.9152         0.416690   
     39. A(C   3,C   4,S  12)          118.3927         0.417176   
     40. A(P   5,C   4,S  12)          117.7751         0.462375   
     41. A(C   3,C   4,P   5)          123.8322         0.446873   
     42. A(C   4,P   5,C   6)           93.8526         0.475097   
     43. A(P   5,C   6,C   7)          124.3628         0.442478   
     44. A(C   7,C   6,C  11)          118.6290         0.428665   
     45. A(P   5,C   6,C  11)          117.0082         0.440814   
     46. A(C   6,C   7,H  18)          118.9551         0.353567   
     47. A(C   6,C   7,C   8)          120.1934         0.436894   
     48. A(C   8,C   7,H  18)          120.8516         0.358702   
     49. A(C   9,C   8,H  19)          119.5966         0.354669   
     50. A(C   7,C   8,H  19)          119.9600         0.358850   
     51. A(C   7,C   8,C   9)          120.4434         0.438151   
     52. A(C   8,C   9,C  10)          120.5245         0.437543   
     53. A(C  10,C   9,H  20)          119.6952         0.358415   
     54. A(C   8,C   9,H  20)          119.7803         0.354703   
     55. A(C   9,C  10,C  11)          119.1879         0.438836   
     56. A(C  11,C  10,H  21)          119.6914         0.355718   
     57. A(C   9,C  10,H  21)          121.1207         0.358444   
     58. A(C   6,C  11,C  10)          121.0217         0.431157   
     59. A(C  10,C  11,S  12)          123.1857         0.437056   
     60. A(C   6,C  11,S  12)          115.7926         0.432896   
     61. A(C   4,S  12,C  11)           95.5716         0.435088   
     62. A(C   3,C  13,C  14)          120.7946         0.436080   
     63. A(C  14,C  13,H  22)          120.3261         0.357735   
     64. A(C   3,C  13,H  22)          118.8793         0.353320   
     65. A(C   0,C  14,C  13)          120.2338         0.439463   
     66. A(C  13,C  14,H  23)          119.7479         0.358094   
     67. A(C   0,C  14,H  23)          120.0183         0.356254   
     68. D(H  16,C   1,C   0,C  14)   -179.9971         0.028094   
     69. D(C   2,C   1,C   0,H  15)    179.9903         0.028094   
     70. D(C   2,C   1,C   0,C  14)     -0.0051         0.028094   
     71. D(H  16,C   1,C   0,H  15)     -0.0016         0.028094   
     72. D(H  17,C   2,C   1,C   0)   -179.9991         0.029035   
     73. D(H  17,C   2,C   1,H  16)     -0.0071         0.029035   
     74. D(C   3,C   2,C   1,H  16)    179.9989         0.029035   
     75. D(C   3,C   2,C   1,C   0)      0.0069         0.029035   
     76. D(C  13,C   3,C   2,H  17)   -179.9968         0.025600   
     77. D(C   4,C   3,C   2,H  17)     -0.0015         0.025600   
     78. D(C   4,C   3,C   2,C   1)    179.9925         0.025600   
     79. D(C  13,C   3,C   2,C   1)     -0.0028         0.025600   
     80. D(P   5,C   4,C   3,C  13)     -0.0035         0.017396   
     81. D(P   5,C   4,C   3,C   2)   -179.9987         0.017396   
     82. D(S  12,C   4,C   3,C   2)      0.0039         0.017396   
     83. D(S  12,C   4,C   3,C  13)    179.9991         0.017396   
     84. D(C   6,P   5,C   4,S  12)     -0.0005         0.005993   
     85. D(C   6,P   5,C   4,C   3)   -179.9980         0.005993   
     86. D(C  11,C   6,P   5,C   4)     -0.0021         0.004252   
     87. D(C   7,C   6,P   5,C   4)    179.9985         0.004252   
     88. D(H  18,C   7,C   6,C  11)   -179.9995         0.025259   
     89. D(H  18,C   7,C   6,P   5)     -0.0001         0.025259   
     90. D(C   8,C   7,C   6,C  11)     -0.0025         0.025259   
     91. D(C   8,C   7,C   6,P   5)    179.9968         0.025259   
     92. D(H  19,C   8,C   7,H  18)     -0.0054         0.030264   
     93. D(H  19,C   8,C   7,C   6)    179.9978         0.030264   
     94. D(C   9,C   8,C   7,H  18)   -179.9973         0.030264   
     95. D(C   9,C   8,C   7,C   6)      0.0059         0.030264   
     96. D(H  20,C   9,C   8,C   7)    179.9996         0.026124   
     97. D(C  10,C   9,C   8,H  19)   -179.9954         0.026124   
     98. D(C  10,C   9,C   8,C   7)     -0.0034         0.026124   
     99. D(H  20,C   9,C   8,H  19)      0.0077         0.026124   
    100. D(H  21,C  10,C   9,H  20)      0.0034         0.029768   
    101. D(H  21,C  10,C   9,C   8)   -179.9936         0.029768   
    102. D(C  11,C  10,C   9,H  20)    179.9946         0.029768   
    103. D(C  11,C  10,C   9,C   8)     -0.0024         0.029768   
    104. D(S  12,C  11,C  10,H  21)     -0.0103         0.027047   
    105. D(C   6,C  11,C  10,H  21)    179.9971         0.027047   
    106. D(C   6,C  11,C  10,C   9)      0.0057         0.027047   
    107. D(S  12,C  11,C   6,C   7)   -179.9965         0.024174   
    108. D(S  12,C  11,C   6,P   5)      0.0041         0.024174   
    109. D(S  12,C  11,C  10,C   9)    179.9984         0.027047   
    110. D(C  10,C  11,C   6,C   7)     -0.0033         0.024174   
    111. D(C  10,C  11,C   6,P   5)    179.9973         0.024174   
    112. D(C   4,S  12,C  11,C  10)   -179.9968         0.004806   
    113. D(C   4,S  12,C  11,C   6)     -0.0038         0.004806   
    114. D(C  11,S  12,C   4,P   5)      0.0023         0.004494   
    115. D(C  11,S  12,C   4,C   3)    179.9999         0.004494   
    116. D(H  22,C  13,C   3,C   4)      0.0042         0.025296   
    117. D(H  22,C  13,C   3,C   2)    179.9996         0.025296   
    118. D(C  14,C  13,C   3,C   4)   -179.9984         0.025296   
    119. D(C  14,C  13,C   3,C   2)     -0.0031         0.025296   
    120. D(H  23,C  14,C  13,H  22)     -0.0017         0.029556   
    121. D(C   0,C  14,C  13,H  22)   -179.9978         0.029556   
    122. D(C   0,C  14,C  13,C   3)      0.0048         0.029556   
    123. D(H  23,C  14,C   0,H  15)      0.0076         0.027702   
    124. D(H  23,C  14,C   0,C   1)   -179.9969         0.027702   
    125. D(H  23,C  14,C  13,C   3)   -179.9990         0.029556   
    126. D(C  13,C  14,C   0,H  15)   -179.9962         0.027702   
    127. D(C  13,C  14,C   0,C   1)     -0.0007         0.027702   
    -----------------------------------------------------------------

Number of atoms                         .... 24
Number of degrees of freedom            .... 127

         *************************************************************
         *                GEOMETRY OPTIMIZATION CYCLE   1            *
         *************************************************************
---------------------------------
CARTESIAN COORDINATES (ANGSTROEM)
---------------------------------
  C     -4.570400   -0.461500    0.411500
  C     -4.020300    0.491800   -0.429400
  C     -2.649500    0.615200   -0.541500
  C     -1.797100   -0.216600    0.188700
  C     -0.356900   -0.107500    0.088800
  P      0.742100   -1.102600    0.962100
  C      2.188700   -0.320200    0.269400
  C      3.504800   -0.677400    0.580500
  C      4.558400   -0.015000   -0.005600
  C      4.326600    1.017300   -0.913900
  C      3.040000    1.388800   -1.237600
  C      1.973000    0.721600   -0.647400
  S      0.313000    1.103700   -0.979400
  C     -2.367100   -1.174400    1.033500
  C     -3.736200   -1.294100    1.142500
  H     -5.642500   -0.556100    0.497700
  H     -4.663700    1.143800   -1.001800
  H     -2.229500    1.362000   -1.200200
  H      3.676800   -1.478100    1.285100
  H      5.572800   -0.293800    0.237300
  H      5.161400    1.529900   -1.367500
  H      2.849500    2.186400   -1.939500
  H     -1.715100   -1.823000    1.602900
  H     -4.158300   -2.039700    1.800100

----------------------------
CARTESIAN COORDINATES (A.U.)
----------------------------
  NO LB      ZA    FRAG     MASS         X           Y           Z
   0 C     6.0000    0    12.011   -8.636804   -0.872109    0.777622
   1 C     6.0000    0    12.011   -7.597266    0.929367   -0.811448
   2 C     6.0000    0    12.011   -5.006829    1.162560   -1.023287
   3 C     6.0000    0    12.011   -3.396027   -0.409315    0.356591
   4 C     6.0000    0    12.011   -0.674443   -0.203146    0.167808
   5 P    15.0000    0    30.974    1.402366   -2.083612    1.818106
   6 C     6.0000    0    12.011    4.136044   -0.605090    0.509092
   7 C     6.0000    0    12.011    6.623112   -1.280100    1.096986
   8 C     6.0000    0    12.011    8.614128   -0.028346   -0.010582
   9 C     6.0000    0    12.011    8.176089    1.922418   -1.727021
  10 C     6.0000    0    12.011    5.744767    2.624452   -2.338725
  11 C     6.0000    0    12.011    3.728430    1.363626   -1.223409
  12 S    16.0000    0    32.060    0.591484    2.085691   -1.850798
  13 C     6.0000    0    12.011   -4.473171   -2.219294    1.953032
  14 C     6.0000    0    12.011   -7.060395   -2.445495    2.159012
  15 H     1.0000    0     1.008  -10.662780   -1.050877    0.940517
  16 H     1.0000    0     1.008   -8.813116    2.161469   -1.893128
  17 H     1.0000    0     1.008   -4.213144    2.573807   -2.268049
  18 H     1.0000    0     1.008    6.948145   -2.793204    2.428487
  19 H     1.0000    0     1.008   10.531066   -0.555202    0.448432
  20 H     1.0000    0     1.008    9.753632    2.891092   -2.584200
  21 H     1.0000    0     1.008    5.384775    4.131697   -3.665124
  22 H     1.0000    0     1.008   -3.241069   -3.444971    3.029042
  23 H     1.0000    0     1.008   -7.858048   -3.854474    3.401696

--------------------------------
INTERNAL COORDINATES (ANGSTROEM)
--------------------------------
 C      0   0   0     0.000000000000     0.00000000     0.00000000
 C      1   0   0     1.385100613674     0.00000000     0.00000000
 C      2   1   0     1.380900651749   120.33387166     0.00000000
 C      3   2   1     1.397021488740   120.66745383     0.00000000
 C      4   3   2     1.447777213524   121.73742609   179.99247754
 P      5   4   3     1.720662052816   123.83222498   180.00129550
 C      6   5   4     1.784554457000    93.85256138   180.00203796
 C      7   6   5     1.398747389631   124.36275245   179.99849513
 C      8   7   6     1.375630738970   120.19335617   179.99681574
 C      9   8   7     1.394411495937   120.44343937     0.00000000
 C     10   9   8     1.377727658139   120.52452008     0.00000000
 C     11  10   9     1.389957150419   119.18790131     0.00000000
 S     12  11  10     1.735460863863   123.18568278   179.99839372
 C      4   3   2     1.398559215765   118.34734701     0.00000000
 C     14   4   3     1.378638422502   120.79464432     0.00000000
 H      1   2   3     1.079712003268   120.20703654   179.99033929
 H      2   1   3     1.080143194211   120.03958220   180.00807260
 H      3   2   1     1.080738603919   119.80226112   180.00092985
 H      8   7   6     1.080354409442   118.95508436     0.00000000
 H      9   8   7     1.079693109175   119.95998590   179.99779393
 H     10   9   8     1.079538216091   119.78026958   179.99963503
 H     11  10   9     1.079407068719   121.12065728   180.00641727
 H     14   4   3     1.081666455059   118.87927471   179.99956939
 H     15  14   4     1.080058114177   119.74790299   180.00100506

---------------------------
INTERNAL COORDINATES (A.U.)
---------------------------
 C      0   0   0     0.000000000000     0.00000000     0.00000000
 C      1   0   0     2.617460827770     0.00000000     0.00000000
 C      2   1   0     2.609524049958   120.33387166     0.00000000
 C      3   2   1     2.639988016921   120.66745383     0.00000000
 C      4   3   2     2.735902436492   121.73742609   179.99247754
 P      5   4   3     3.251580048852   123.83222498   180.00129550
 C      6   5   4     3.372319194799    93.85256138   180.00203796
 C      7   6   5     2.643249496940   124.36275245   179.99849513
 C      8   7   6     2.599565358058   120.19335617   179.99681574
 C      9   8   7     2.635055845312   120.44343937     0.00000000
 C     10   9   8     2.603527961011   120.52452008     0.00000000
 C     11  10   9     2.626638352177   119.18790131     0.00000000
 S     12  11  10     3.279545748839   123.18568278   179.99839372
 C      4   3   2     2.642893899867   118.34734701     0.00000000
 C     14   4   3     2.605249056231   120.79464432     0.00000000
 H      1   2   3     2.040359989683   120.20703654   179.99033929
 H      2   1   3     2.041174822477   120.03958220   180.00807260
 H      3   2   1     2.042299983763   119.80226112   180.00092985
 H      8   7   6     2.041573961419   118.95508436     0.00000000
 H      9   8   7     2.040324285023   119.95998590   179.99779393
 H     10   9   8     2.040031579513   119.78026958   179.99963503
 H     11  10   9     2.039783746897   121.12065728   180.00641727
 H     14   4   3     2.044053368311   118.87927471   179.99956939
 H     15  14   4     2.041014044514   119.74790299   180.00100506

---------------------
BASIS SET INFORMATION
---------------------
There are 4 groups of distinct atoms

 Group   1 Type C   : 19s6p3d2f contracted to 5s4p3d2f pattern {88111/3111/111/11}
 Group   2 Type P   : 42s17p3d2f contracted to 6s5p3d2f pattern {131313111/77111/111/11}
 Group   3 Type S   : 42s17p3d2f contracted to 6s5p3d2f pattern {131313111/77111/111/11}
 Group   4 Type H   : 5s2p1d contracted to 3s2p1d pattern {311/11/1}

Atom   0C    basis set group =>   1
Atom   1C    basis set group =>   1
Atom   2C    basis set group =>   1
Atom   3C    basis set group =>   1
Atom   4C    basis set group =>   1
Atom   5P    basis set group =>   2
Atom   6C    basis set group =>   1
Atom   7C    basis set group =>   1
Atom   8C    basis set group =>   1
Atom   9C    basis set group =>   1
Atom  10C    basis set group =>   1
Atom  11C    basis set group =>   1
Atom  12S    basis set group =>   3
Atom  13C    basis set group =>   1
Atom  14C    basis set group =>   1
Atom  15H    basis set group =>   4
Atom  16H    basis set group =>   4
Atom  17H    basis set group =>   4
Atom  18H    basis set group =>   4
Atom  19H    basis set group =>   4
Atom  20H    basis set group =>   4
Atom  21H    basis set group =>   4
Atom  22H    basis set group =>   4
Atom  23H    basis set group =>   4
---------------------------------
AUXILIARY/J BASIS SET INFORMATION
---------------------------------
There are 4 groups of distinct atoms

 Group   1 Type C   : 10s7p5d2f1g contracted to 10s7p5d2f1g pattern {1111111111/1111111/11111/11/1}
 Group   2 Type P   : 13s11p9d3f1g contracted to 13s11p9d3f1g pattern {1111111111111/11111111111/111111111/111/1}
 Group   3 Type S   : 13s11p9d3f1g contracted to 13s11p9d3f1g pattern {1111111111111/11111111111/111111111/111/1}
 Group   4 Type H   : 4s3p2d1f contracted to 4s3p2d1f pattern {1111/111/11/1}

Atom   0C    basis set group =>   1
Atom   1C    basis set group =>   1
Atom   2C    basis set group =>   1
Atom   3C    basis set group =>   1
Atom   4C    basis set group =>   1
Atom   5P    basis set group =>   2
Atom   6C    basis set group =>   1
Atom   7C    basis set group =>   1
Atom   8C    basis set group =>   1
Atom   9C    basis set group =>   1
Atom  10C    basis set group =>   1
Atom  11C    basis set group =>   1
Atom  12S    basis set group =>   3
Atom  13C    basis set group =>   1
Atom  14C    basis set group =>   1
Atom  15H    basis set group =>   4
Atom  16H    basis set group =>   4
Atom  17H    basis set group =>   4
Atom  18H    basis set group =>   4
Atom  19H    basis set group =>   4
Atom  20H    basis set group =>   4
Atom  21H    basis set group =>   4
Atom  22H    basis set group =>   4
Atom  23H    basis set group =>   4
---------------------------------
AUXILIARY/C BASIS SET INFORMATION
---------------------------------
There are 4 groups of distinct atoms

 Group   1 Type C   : 9s7p6d4f2g contracted to 9s7p6d4f2g pattern {111111111/1111111/111111/1111/11}
 Group   2 Type P   : 11s9p8d6f3g contracted to 11s9p8d6f3g pattern {11111111111/111111111/11111111/111111/111}
 Group   3 Type S   : 11s9p8d6f3g contracted to 11s9p8d6f3g pattern {11111111111/111111111/11111111/111111/111}
 Group   4 Type H   : 4s3p2d1f contracted to 4s3p2d1f pattern {1111/111/11/1}

Atom   0C    basis set group =>   1
Atom   1C    basis set group =>   1
Atom   2C    basis set group =>   1
Atom   3C    basis set group =>   1
Atom   4C    basis set group =>   1
Atom   5P    basis set group =>   2
Atom   6C    basis set group =>   1
Atom   7C    basis set group =>   1
Atom   8C    basis set group =>   1
Atom   9C    basis set group =>   1
Atom  10C    basis set group =>   1
Atom  11C    basis set group =>   1
Atom  12S    basis set group =>   3
Atom  13C    basis set group =>   1
Atom  14C    basis set group =>   1
Atom  15H    basis set group =>   4
Atom  16H    basis set group =>   4
Atom  17H    basis set group =>   4
Atom  18H    basis set group =>   4
Atom  19H    basis set group =>   4
Atom  20H    basis set group =>   4
Atom  21H    basis set group =>   4
Atom  22H    basis set group =>   4
Atom  23H    basis set group =>   4


           ************************************************************
           *        Program running with 4 parallel MPI-processes     *
           *              working on a common directory               *
           ************************************************************
------------------------------------------------------------------------------
                           ORCA GTO INTEGRAL CALCULATION
                           -- RI-GTO INTEGRALS CHOSEN --
------------------------------------------------------------------------------
------------------------------------------------------------------------------
                   ___                                                        
                  /   \      - P O W E R E D   B Y -                         
                 /     \                                                     
                 |  |  |   _    _      __       _____    __    __             
                 |  |  |  | |  | |    /  \     |  _  \  |  |  /  |          
                  \  \/   | |  | |   /    \    | | | |  |  | /  /          
                 / \  \   | |__| |  /  /\  \   | |_| |  |  |/  /          
                |  |  |   |  __  | /  /__\  \  |    /   |      \           
                |  |  |   | |  | | |   __   |  |    \   |  |\   \          
                \     /   | |  | | |  |  |  |  | |\  \  |  | \   \       
                 \___/    |_|  |_| |__|  |__|  |_| \__\ |__|  \__/        
                                                                              
                      - O R C A' S   B I G   F R I E N D -                    
                                      &                                       
                       - I N T E G R A L  F E E D E R -                       
                                                                              
 v1 FN, 2020, v2 2021                                                         
------------------------------------------------------------------------------


Reading SHARK input file optpbed3-wb2plyp-train-4.SHARKINP.tmp ... ok
----------------------
SHARK INTEGRAL PACKAGE
----------------------

Number of atoms                             ...     24
Number of basis functions                   ...    952
Number of shells                            ...    376
Maximum angular momentum                    ...      3
Integral batch strategy                     ... SHARK/LIBINT Hybrid
RI-J (if used) integral strategy            ... SPLIT-RIJ (Revised 2003 algorithm where possible)
Printlevel                                  ...      1
Contraction scheme used                     ... PARTIAL GENERAL contraction
Coulomb Range Separation                    ... NOT USED
Exchange Range Separation                   ... NOT USED
Finite Nucleus Model                        ... NOT USED
Auxiliary Coulomb fitting basis             ... AVAILABLE
   # of basis functions in Aux-J            ...   1539
   # of shells in Aux-J                     ...    489
   Maximum angular momentum in Aux-J        ...      4
Auxiliary J/K fitting basis                 ... NOT available
Auxiliary Correlation fitting basis         ... AVAILABLE
   # of basis functions in Aux-C            ...   1942
   # of shells in Aux-C                     ...    528
   Maximum angular momentum in Aux-C        ...      4
Auxiliary 'external' fitting basis          ... NOT available
Integral threshold                          ...     2.500000e-11
Primitive cut-off                           ...     2.500000e-12
Primitive pair pre-selection threshold      ...     2.500000e-12

Calculating pre-screening integrals         ... done (  0.1 sec) Dimension = 376
Calculating pre-screening integrals (ORCA)  ... done (  0.5 sec) Dimension = 268
Organizing shell pair data                  ... done (  1.1 sec)
Shell pair information
Total number of shell pairs                 ...     70876
Shell pairs after pre-screening             ...     47964
Total number of primitive shell pairs       ...     88476
Primitive shell pairs kept                  ...     55053
          la=0 lb=0:  10711 shell pairs
          la=1 lb=0:  12470 shell pairs
          la=1 lb=1:   3264 shell pairs
          la=2 lb=0:   7878 shell pairs
          la=2 lb=1:   3956 shell pairs
          la=2 lb=2:   1235 shell pairs
          la=3 lb=0:   4441 shell pairs
          la=3 lb=1:   2247 shell pairs
          la=3 lb=2:   1360 shell pairs
          la=3 lb=3:    402 shell pairs

Calculating one electron integrals          ... done (  0.2 sec)
Calculating RI/J V-Matrix + Cholesky decomp.... done (  0.3 sec)
Calculating RI/C V-Matrix + Cholesky decomp.... done (  0.4 sec)
Calculating Nuclear repulsion               ... done (  0.0 sec) ENN=   1078.649719388112 Eh

SHARK setup successfully completed in   4.5 seconds

Maximum memory used throughout the entire GTOINT-calculation: 85.2 MB


           ************************************************************
           *        Program running with 4 parallel MPI-processes     *
           *              working on a common directory               *
           ************************************************************
-------------------------------------------------------------------------------
                                 ORCA SCF
-------------------------------------------------------------------------------

------------
SCF SETTINGS
------------
Hamiltonian:
 Density Functional     Method          .... DFT(GTOs)
 Exchange Functional    Exchange        .... PBE
   PBE kappa parameter   XKappa         ....  0.804000
   PBE mue parameter    XMuePBE         ....  0.219520
 Correlation Functional Correlation     .... PBE
   PBE beta parameter  CBetaPBE         ....  0.066725
 LDA part of GGA corr.  LDAOpt          .... PW91-LDA
 Gradients option       PostSCFGGA      .... off
 Hybrid DFT is turned on
   Fraction HF Exchange ScalHFX         ....  0.250000
   Scaling of DF-GGA-X  ScalDFX         ....  0.750000
   Scaling of DF-GGA-C  ScalDFC         ....  1.000000
   Scaling of DF-LDA-C  ScalLDAC        ....  1.000000
   Perturbative correction              ....  0.000000
   Density functional embedding theory  .... OFF
   NL short-range parameter             ....  6.900000
 RI-approximation to the Coulomb term is turned on
   Number of AuxJ basis functions       .... 1539
   RIJ-COSX (HFX calculated with COS-X)).... on


General Settings:
 Integral files         IntName         .... optpbed3-wb2plyp-train-4
 Hartree-Fock type      HFTyp           .... RHF
 Total Charge           Charge          ....    0
 Multiplicity           Mult            ....    1
 Number of Electrons    NEL             ....  118
 Basis Dimension        Dim             ....  824
 Nuclear Repulsion      ENuc            ....   1078.6497193881 Eh

Convergence Acceleration:
 DIIS                   CNVDIIS         .... on
   Start iteration      DIISMaxIt       ....    12
   Startup error        DIISStart       ....  0.200000
   # of expansion vecs  DIISMaxEq       ....     5
   Bias factor          DIISBfac        ....   1.050
   Max. coefficient     DIISMaxC        ....  10.000
 Trust-Rad. Augm. Hess. CNVTRAH         .... auto
   Auto Start mean grad. ratio tolernc. ....  1.125000
   Auto Start start iteration           ....    20
   Auto Start num. interpolation iter.  ....    10
   Max. Number of Micro iterations      ....    16
   Max. Number of Macro iterations      .... Maxiter - #DIIS iter
   Number of Davidson start vectors     ....     2
   Converg. threshold I  (grad. norm)   ....   1.000e-05
   Converg. threshold II (energy diff.) ....   1.000e-08
   Grad. Scal. Fac. for Micro threshold ....   0.100
   Minimum threshold for Micro iter.    ....   0.010
   NR start threshold (gradient norm)   ....   0.001
   Initial trust radius                 ....   0.400
   Minimum AH scaling param. (alpha)    ....   1.000
   Maximum AH scaling param. (alpha)    .... 1000.000
   Orbital update algorithm             .... Taylor
   White noise on init. David. guess    .... on
   Maximum white noise                  ....   0.010
   Quad. conv. algorithm                .... NR
 SOSCF                  CNVSOSCF        .... on
   Start iteration      SOSCFMaxIt      ....   150
   Startup grad/error   SOSCFStart      ....  0.003300
 Level Shifting         CNVShift        .... on
   Level shift para.    LevelShift      ....    0.2500
   Turn off err/grad.   ShiftErr        ....    0.0010
 Zerner damping         CNVZerner       .... off
 Static damping         CNVDamp         .... on
   Fraction old density DampFac         ....    0.7000
   Max. Damping (<1)    DampMax         ....    0.9800
   Min. Damping (>=0)   DampMin         ....    0.0000
   Turn off err/grad.   DampErr         ....    0.1000
 Fernandez-Rico         CNVRico         .... off

SCF Procedure:
 Maximum # iterations   MaxIter         ....   125
 SCF integral mode      SCFMode         .... Direct
   Integral package                     .... SHARK and LIBINT hybrid scheme
 Reset frequency        DirectResetFreq ....    20
 Integral Threshold     Thresh          ....  2.500e-11 Eh
 Primitive CutOff       TCut            ....  2.500e-12 Eh

Convergence Tolerance:
 Convergence Check Mode ConvCheckMode   .... Total+1el-Energy
 Convergence forced     ConvForced      .... 0
 Energy Change          TolE            ....  1.000e-08 Eh
 1-El. energy change                    ....  1.000e-05 Eh
 Orbital Gradient       TolG            ....  1.000e-05
 Orbital Rotation angle TolX            ....  1.000e-05
 DIIS Error             TolErr          ....  5.000e-07


Diagonalization of the overlap matrix:
Smallest eigenvalue                        ... 9.689e-07
Time for diagonalization                   ...    0.229 sec
Threshold for overlap eigenvalues          ... 1.000e-08
Number of eigenvalues below threshold      ... 0
Time for construction of square roots      ...    0.126 sec
Total time needed                          ...    0.359 sec

Time for model grid setup =    0.370 sec

------------------------------
INITIAL GUESS: MODEL POTENTIAL
------------------------------
Loading Hartree-Fock densities                     ... done
Calculating cut-offs                               ... done
Initializing the effective Hamiltonian             ... done
Setting up the integral package (SHARK)            ... done
Starting the Coulomb interaction                   ... done (   1.6 sec)
Reading the grid                                   ... done
Mapping shells                                     ... done
Starting the XC term evaluation                    ... done (   1.4 sec)
  promolecular density results
     # of electrons  =    117.995472245
     EX              =   -116.624389956
     EC              =     -4.118119364
     EX+EC           =   -120.742509320
Transforming the Hamiltonian                       ... done (   0.1 sec)
Diagonalizing the Hamiltonian                      ... done (   0.2 sec)
Back transforming the eigenvectors                 ... done (   0.0 sec)
Now organizing SCF variables                       ... done
                      ------------------
                      INITIAL GUESS DONE (   3.9 sec)
                      ------------------
-------------------
DFT GRID GENERATION
-------------------

General Integration Accuracy     IntAcc      ... 4.388
Radial Grid Type                 RadialGrid  ... OptM3 with GC (2021)
Angular Grid (max. ang.)         AngularGrid ... 4 (Lebedev-302)
Angular grid pruning method      GridPruning ... 4 (adaptive)
Weight generation scheme         WeightScheme... Becke
Basis function cutoff            BFCut       ... 1.0000e-11
Integration weight cutoff        WCut        ... 1.0000e-14
Angular grids for H and He will be reduced by one unit
Partially contracted basis set               ... off
Rotationally invariant grid construction     ... off

Total number of grid points                  ...   125109
Total number of batches                      ...     1965
Average number of points per batch           ...       63
Average number of grid points per atom       ...     5213
Time for grid setup =    1.605 sec

--------------------
COSX GRID GENERATION
--------------------

GRIDX 1
-------
General Integration Accuracy     IntAcc      ... 3.816
Radial Grid Type                 RadialGrid  ... OptM3 with GC (2021)
Angular Grid (max. ang.)         AngularGrid ... 1 (Lebedev-50)
Angular grid pruning method      GridPruning ... 4 (adaptive)
Weight generation scheme         WeightScheme... Becke
Basis function cutoff            BFCut       ... 1.0000e-11
Integration weight cutoff        WCut        ... 1.0000e-14
Angular grids for H and He will be reduced by one unit
Partially contracted basis set               ... on
Rotationally invariant grid construction     ... off

Total number of grid points                  ...    15745
Total number of batches                      ...      257
Average number of points per batch           ...       61
Average number of grid points per atom       ...      656
UseSFitting                                  ... on

GRIDX 2
-------
General Integration Accuracy     IntAcc      ... 4.020
Radial Grid Type                 RadialGrid  ... OptM3 with GC (2021)
Angular Grid (max. ang.)         AngularGrid ... 2 (Lebedev-110)
Angular grid pruning method      GridPruning ... 4 (adaptive)
Weight generation scheme         WeightScheme... Becke
Basis function cutoff            BFCut       ... 1.0000e-11
Integration weight cutoff        WCut        ... 1.0000e-14
Angular grids for H and He will be reduced by one unit
Partially contracted basis set               ... on
Rotationally invariant grid construction     ... off

Total number of grid points                  ...    37919
Total number of batches                      ...      605
Average number of points per batch           ...       62
Average number of grid points per atom       ...     1580
UseSFitting                                  ... on

GRIDX 3
-------
General Integration Accuracy     IntAcc      ... 4.338
Radial Grid Type                 RadialGrid  ... OptM3 with GC (2021)
Angular Grid (max. ang.)         AngularGrid ... 3 (Lebedev-194)
Angular grid pruning method      GridPruning ... 4 (adaptive)
Weight generation scheme         WeightScheme... Becke
Basis function cutoff            BFCut       ... 1.0000e-11
Integration weight cutoff        WCut        ... 1.0000e-14
Angular grids for H and He will be reduced by one unit
Partially contracted basis set               ... on
Rotationally invariant grid construction     ... off

Total number of grid points                  ...    83164
Total number of batches                      ...     1311
Average number of points per batch           ...       63
Average number of grid points per atom       ...     3465
UseSFitting                                  ... on

Time for X-Grid setup             =    4.254 sec


--------------------
CPCM SOLVATION MODEL
--------------------
CPCM parameters:
  Epsilon                                         ...      35.6880
  Refrac                                          ...       1.3442
  Rsolv                                           ...       1.3000
  Surface type                                    ... GAUSSIAN VDW
  Epsilon function type                           ...         CPCM
Solvent:                                     ... ACETONITRILE
SMD-CDS solvent descriptors:
  Soln                                       ...    1.3442
  Soln25                                     ...    1.3416
  Sola                                       ...    0.0700
  Solb                                       ...    0.3200
  Solg                                       ...   41.2500
  Solc                                       ...    0.0000
  Solh                                       ...    0.0000
Radii:
 Radius for C  used is    3.4960 Bohr (=   1.8500 Ang.)
 Radius for P  used is    4.0062 Bohr (=   2.1200 Ang.)
 Radius for S  used is    4.7054 Bohr (=   2.4900 Ang.)
 Radius for H  used is    2.2677 Bohr (=   1.2000 Ang.)
Calculating surface                               ...        done! (  0.0s)
GEPOL surface points                              ...         1337
GEPOL Volume                                      ...    1598.9572
GEPOL Surface-area                                ...     850.5654
Calculating surface distance matrix               ...        done! (  0.0s)
Performing Cholesky decomposition & store         ...        done! (  0.1s)
Overall time for CPCM initialization              ...                 0.1s
 re-compute Schwartz prescreening matrix in partically contracted basis (1) ...done (   0.196 sec)
--------------
SCF ITERATIONS
--------------
ITER       Energy         Delta-E        Max-DP      RMS-DP      [F,P]     Damp
               ***  Starting incremental Fock matrix formation  ***
  0  -1239.3682479015   0.000000000000 0.18263193  0.00121668  0.1420642 0.7000
  1  -1239.5166716846  -0.148423783162 0.13130522  0.00089367  0.0762813 0.7000
                               ***Turning on DIIS***
  2  -1239.5822000503  -0.065528365633 0.26996802  0.00190306  0.0327466 0.0000
  3  -1239.6732078629  -0.091007812687 0.04416166  0.00038439  0.0429537 0.0000
  4  -1239.6998969611  -0.026689098175 0.01675383  0.00016234  0.0087707 0.0000
                      *** Initiating the SOSCF procedure ***
                           *** Shutting down DIIS ***
                      *** Re-Reading the Fockian *** 
                      *** Removing any level shift *** 
ITER      Energy       Delta-E        Grad      Rot      Max-DP    RMS-DP
  5  -1239.70098237  -0.0010854125  0.000700  0.000700  0.006411  0.000059
               *** Restarting incremental Fock matrix formation ***
  6  -1239.70105289  -0.0000705194  0.000579  0.002711  0.018019  0.000366
  7  -1239.70106251  -0.0000096149  0.000450  0.001489  0.004947  0.000101
  8  -1239.70107694  -0.0000144285  0.000131  0.000293  0.005084  0.000100
  9  -1239.70107738  -0.0000004448  0.000055  0.000156  0.000949  0.000013
 10  -1239.70107805  -0.0000006698  0.000019  0.000130  0.001942  0.000022
 11  -1239.70107807  -0.0000000187  0.000011  0.000023  0.000674  0.000008
 12  -1239.70107811  -0.0000000416  0.000005  0.000033  0.001642  0.000018
 13  -1239.70107815  -0.0000000418  0.000006  0.000020  0.001028  0.000011
                  ***Gradient check signals convergence***
              ***Rediagonalizing the Fockian in SOSCF/NRSCF***

               *****************************************************
               *                     SUCCESS                       *
               *           SCF CONVERGED AFTER  14 CYCLES          *
               *****************************************************

Old exchange energy                            =    -29.581417945 Eh
New exchange energy                            =    -29.581305904 Eh
Exchange energy change after final integration =      0.000112041 Eh
Total energy after final integration           =  -1239.700966139 Eh
Final COS-X integration done in                =    81.350 sec

SMD CDS free energy correction energy :                -2.96894     Kcal/mol
Total Energy after SMD CDS correction =             -1239.705697452 Eh

----------------
TOTAL SCF ENERGY
----------------

Total Energy       :        -1239.70569745 Eh          -33734.10704 eV

Components:
Nuclear Repulsion  :         1078.64971939 Eh           29351.55107 eV
Electronic Energy  :        -2318.35541684 Eh          -63085.65811 eV
One Electron Energy:        -3841.67389690 Eh         -104537.26131 eV
Two Electron Energy:         1523.31848006 Eh           41451.60320 eV
Max COSX asymmetry :            0.00002608 Eh               0.00071 eV
CPCM Dielectric    :           -0.01216125 Eh              -0.33092 eV
SMD CDS (Gcds)     :           -0.00473131 Eh              -0.12875 eV

Virial components:
Potential Energy   :        -2474.70966510 Eh          -67340.27350 eV
Kinetic Energy     :         1235.00396765 Eh           33606.16646 eV
Virial Ratio       :            2.00380706


DFT components:
N(Alpha)           :       58.999967053727 electrons
N(Beta)            :       58.999967053727 electrons
N(Total)           :      117.999934107454 electrons
E(X)               :      -88.402661395577 Eh       
E(C)               :       -4.119468869797 Eh       
E(XC)              :      -92.522130265375 Eh       
DFET-embed. en.    :        0.000000000000 Eh       
CPCM Solvation Model Properties:
Surface-charge          :           -0.05369804
Charge-correction       :            0.00039744 Eh               0.01081 eV
Free-energy (cav+disp)  :           -0.00473131 Eh              -0.12875 eV

---------------
SCF CONVERGENCE
---------------

  Last Energy change         ...   -2.6490e-08  Tolerance :   1.0000e-08
  Last MAX-Density change    ...    4.6629e-15  Tolerance :   1.0000e-07
  Last RMS-Density change    ...    1.7870e-17  Tolerance :   5.0000e-09
  Last Orbital Gradient      ...    1.8027e-06  Tolerance :   1.0000e-05
  Last Orbital Rotation      ...    6.8969e-06  Tolerance :   1.0000e-05

             **** THE GBW FILE WAS UPDATED (optpbed3-wb2plyp-train-4.gbw) ****
             **** DENSITY optpbed3-wb2plyp-train-4.scfp WAS UPDATED ****
             **** ENERGY FILE WAS UPDATED (optpbed3-wb2plyp-train-4.en.tmp) ****
             **** THE GBW FILE WAS UPDATED (optpbed3-wb2plyp-train-4.gbw) ****
             **** DENSITY optpbed3-wb2plyp-train-4.scfp WAS UPDATED ****
----------------
ORBITAL ENERGIES
----------------

  NO   OCC          E(Eh)            E(eV) 
   0   2.0000     -89.090517     -2424.2762 
   1   2.0000     -77.227155     -2101.4577 
   2   2.0000     -10.286977      -279.9229 
   3   2.0000     -10.275023      -279.5976 
   4   2.0000     -10.253884      -279.0224 
   5   2.0000     -10.249507      -278.9033 
   6   2.0000     -10.238475      -278.6031 
   7   2.0000     -10.235969      -278.5349 
   8   2.0000     -10.235096      -278.5111 
   9   2.0000     -10.233879      -278.4780 
  10   2.0000     -10.233853      -278.4773 
  11   2.0000     -10.231535      -278.4142 
  12   2.0000     -10.231089      -278.4021 
  13   2.0000     -10.230567      -278.3879 
  14   2.0000     -10.230236      -278.3789 
  15   2.0000      -8.047469      -218.9828 
  16   2.0000      -6.607575      -179.8013 
  17   2.0000      -5.984380      -162.8433 
  18   2.0000      -5.980806      -162.7460 
  19   2.0000      -5.978001      -162.6697 
  20   2.0000      -4.743640      -129.0810 
  21   2.0000      -4.743005      -129.0637 
  22   2.0000      -4.740127      -128.9854 
  23   2.0000      -0.919934       -25.0327 
  24   2.0000      -0.899633       -24.4803 
  25   2.0000      -0.856899       -23.3174 
  26   2.0000      -0.803513       -21.8647 
  27   2.0000      -0.789672       -21.4881 
  28   2.0000      -0.780019       -21.2254 
  29   2.0000      -0.746441       -20.3117 
  30   2.0000      -0.708297       -19.2737 
  31   2.0000      -0.653190       -17.7742 
  32   2.0000      -0.637294       -17.3417 
  33   2.0000      -0.619378       -16.8541 
  34   2.0000      -0.595508       -16.2046 
  35   2.0000      -0.575163       -15.6510 
  36   2.0000      -0.532162       -14.4809 
  37   2.0000      -0.501372       -13.6430 
  38   2.0000      -0.492701       -13.4071 
  39   2.0000      -0.487944       -13.2776 
  40   2.0000      -0.460593       -12.5334 
  41   2.0000      -0.458786       -12.4842 
  42   2.0000      -0.442161       -12.0318 
  43   2.0000      -0.434035       -11.8107 
  44   2.0000      -0.429560       -11.6889 
  45   2.0000      -0.422737       -11.5032 
  46   2.0000      -0.404793       -11.0150 
  47   2.0000      -0.397390       -10.8135 
  48   2.0000      -0.371989       -10.1223 
  49   2.0000      -0.364183        -9.9099 
  50   2.0000      -0.357003        -9.7145 
  51   2.0000      -0.356617        -9.7041 
  52   2.0000      -0.345093        -9.3905 
  53   2.0000      -0.307360        -8.3637 
  54   2.0000      -0.293285        -7.9807 
  55   2.0000      -0.291875        -7.9423 
  56   2.0000      -0.277347        -7.5470 
  57   2.0000      -0.249216        -6.7815 
  58   2.0000      -0.224346        -6.1048 
  59   0.0000      -0.079875        -2.1735 
  60   0.0000      -0.022172        -0.6033 
  61   0.0000      -0.017371        -0.4727 
  62   0.0000      -0.003775        -0.1027 
  63   0.0000      -0.003308        -0.0900 
  64   0.0000       0.009170         0.2495 
  65   0.0000       0.016412         0.4466 
  66   0.0000       0.018788         0.5112 
  67   0.0000       0.021754         0.5919 
  68   0.0000       0.026146         0.7115 
  69   0.0000       0.030248         0.8231 
  70   0.0000       0.037453         1.0191 
  71   0.0000       0.041495         1.1291 
  72   0.0000       0.047812         1.3010 
  73   0.0000       0.049477         1.3463 
  74   0.0000       0.052124         1.4184 
  75   0.0000       0.055903         1.5212 
  76   0.0000       0.058239         1.5848 
  77   0.0000       0.060002         1.6327 
  78   0.0000       0.068229         1.8566 
  79   0.0000       0.072598         1.9755 
  80   0.0000       0.079204         2.1552 
  81   0.0000       0.080774         2.1980 
  82   0.0000       0.081653         2.2219 
  83   0.0000       0.085763         2.3337 
  84   0.0000       0.100308         2.7295 
  85   0.0000       0.100656         2.7390 
  86   0.0000       0.103767         2.8236 
  87   0.0000       0.103774         2.8238 
  88   0.0000       0.107199         2.9170 
  89   0.0000       0.108064         2.9406 
  90   0.0000       0.112723         3.0673 
  91   0.0000       0.118303         3.2192 
  92   0.0000       0.124763         3.3950 
  93   0.0000       0.128857         3.5064 
  94   0.0000       0.129845         3.5333 
  95   0.0000       0.132436         3.6038 
  96   0.0000       0.133019         3.6196 
  97   0.0000       0.137110         3.7309 
  98   0.0000       0.140592         3.8257 
  99   0.0000       0.144434         3.9302 
 100   0.0000       0.144463         3.9310 
 101   0.0000       0.146740         3.9930 
 102   0.0000       0.147417         4.0114 
 103   0.0000       0.151318         4.1176 
 104   0.0000       0.152012         4.1365 
 105   0.0000       0.153335         4.1725 
 106   0.0000       0.157772         4.2932 
 107   0.0000       0.163883         4.4595 
 108   0.0000       0.165983         4.5166 
 109   0.0000       0.169224         4.6048 
 110   0.0000       0.172219         4.6863 
 111   0.0000       0.173851         4.7307 
 112   0.0000       0.173926         4.7328 
 113   0.0000       0.176584         4.8051 
 114   0.0000       0.177900         4.8409 
 115   0.0000       0.184209         5.0126 
 116   0.0000       0.186315         5.0699 
 117   0.0000       0.187103         5.0913 
 118   0.0000       0.187817         5.1108 
 119   0.0000       0.193748         5.2722 
 120   0.0000       0.196770         5.3544 
 121   0.0000       0.205380         5.5887 
 122   0.0000       0.206715         5.6250 
 123   0.0000       0.207718         5.6523 
 124   0.0000       0.211629         5.7587 
 125   0.0000       0.218253         5.9390 
 126   0.0000       0.222380         6.0513 
 127   0.0000       0.223715         6.0876 
 128   0.0000       0.230430         6.2703 
 129   0.0000       0.236104         6.4247 
 130   0.0000       0.239526         6.5178 
 131   0.0000       0.244906         6.6642 
 132   0.0000       0.247645         6.7388 
 133   0.0000       0.253907         6.9092 
 134   0.0000       0.254932         6.9370 
 135   0.0000       0.255850         6.9620 
 136   0.0000       0.257678         7.0118 
 137   0.0000       0.261925         7.1273 
 138   0.0000       0.265956         7.2370 
 139   0.0000       0.266416         7.2495 
 140   0.0000       0.270868         7.3707 
 141   0.0000       0.277567         7.5530 
 142   0.0000       0.284674         7.7464 
 143   0.0000       0.286502         7.7961 
 144   0.0000       0.289193         7.8694 
 145   0.0000       0.290133         7.8949 
 146   0.0000       0.294129         8.0037 
 147   0.0000       0.295145         8.0313 
 148   0.0000       0.296633         8.0718 
 149   0.0000       0.303483         8.2582 
 150   0.0000       0.303740         8.2652 
 151   0.0000       0.311371         8.4728 
 152   0.0000       0.316918         8.6238 
 153   0.0000       0.318465         8.6659 
 154   0.0000       0.325237         8.8502 
 155   0.0000       0.328789         8.9468 
 156   0.0000       0.333857         9.0847 
 157   0.0000       0.334969         9.1150 
 158   0.0000       0.339282         9.2323 
 159   0.0000       0.343586         9.3495 
 160   0.0000       0.349203         9.5023 
 161   0.0000       0.350025         9.5247 
 162   0.0000       0.352293         9.5864 
 163   0.0000       0.361085         9.8256 
 164   0.0000       0.370333        10.0773 
 165   0.0000       0.370975        10.0947 
 166   0.0000       0.374502        10.1907 
 167   0.0000       0.374697        10.1960 
 168   0.0000       0.378108        10.2888 
 169   0.0000       0.384372        10.4593 
 170   0.0000       0.391948        10.6654 
 171   0.0000       0.393885        10.7181 
 172   0.0000       0.394972        10.7477 
 173   0.0000       0.399080        10.8595 
 174   0.0000       0.401660        10.9297 
 175   0.0000       0.405474        11.0335 
 176   0.0000       0.407308        11.0834 
 177   0.0000       0.408208        11.1079 
 178   0.0000       0.411905        11.2085 
 179   0.0000       0.412570        11.2266 
 180   0.0000       0.416260        11.3270 
 181   0.0000       0.418985        11.4012 
 182   0.0000       0.421845        11.4790 
 183   0.0000       0.425784        11.5862 
 184   0.0000       0.428670        11.6647 
 185   0.0000       0.429234        11.6800 
 186   0.0000       0.431849        11.7512 
 187   0.0000       0.439383        11.9562 
 188   0.0000       0.441600        12.0165 
 189   0.0000       0.445704        12.1282 
 190   0.0000       0.447999        12.1907 
 191   0.0000       0.450012        12.2455 
 192   0.0000       0.450438        12.2570 
 193   0.0000       0.461969        12.5708 
 194   0.0000       0.466062        12.6822 
 195   0.0000       0.466233        12.6869 
 196   0.0000       0.473236        12.8774 
 197   0.0000       0.476586        12.9686 
 198   0.0000       0.479280        13.0419 
 199   0.0000       0.483192        13.1483 
 200   0.0000       0.491748        13.3811 
 201   0.0000       0.494037        13.4434 
 202   0.0000       0.496837        13.5196 
 203   0.0000       0.501604        13.6493 
 204   0.0000       0.503444        13.6994 
 205   0.0000       0.505530        13.7562 
 206   0.0000       0.511212        13.9108 
 207   0.0000       0.514940        14.0122 
 208   0.0000       0.518296        14.1035 
 209   0.0000       0.522633        14.2216 
 210   0.0000       0.528824        14.3900 
 211   0.0000       0.535881        14.5821 
 212   0.0000       0.538070        14.6416 
 213   0.0000       0.549265        14.9463 
 214   0.0000       0.551279        15.0011 
 215   0.0000       0.562700        15.3118 
 216   0.0000       0.565959        15.4005 
 217   0.0000       0.583912        15.8891 
 218   0.0000       0.590021        16.0553 
 219   0.0000       0.591350        16.0915 
 220   0.0000       0.595930        16.2161 
 221   0.0000       0.596784        16.2393 
 222   0.0000       0.610975        16.6255 
 223   0.0000       0.617569        16.8049 
 224   0.0000       0.622860        16.9489 
 225   0.0000       0.630947        17.1689 
 226   0.0000       0.633215        17.2307 
 227   0.0000       0.639083        17.3903 
 228   0.0000       0.642475        17.4826 
 229   0.0000       0.649826        17.6827 
 230   0.0000       0.651030        17.7154 
 231   0.0000       0.654456        17.8086 
 232   0.0000       0.655969        17.8498 
 233   0.0000       0.659819        17.9546 
 234   0.0000       0.662262        18.0211 
 235   0.0000       0.671595        18.2750 
 236   0.0000       0.673010        18.3135 
 237   0.0000       0.677166        18.4266 
 238   0.0000       0.679281        18.4842 
 239   0.0000       0.689320        18.7574 
 240   0.0000       0.691879        18.8270 
 241   0.0000       0.695784        18.9333 
 242   0.0000       0.697236        18.9728 
 243   0.0000       0.704468        19.1696 
 244   0.0000       0.706995        19.2383 
 245   0.0000       0.709700        19.3119 
 246   0.0000       0.712575        19.3901 
 247   0.0000       0.717655        19.5284 
 248   0.0000       0.720601        19.6086 
 249   0.0000       0.722192        19.6518 
 250   0.0000       0.734671        19.9914 
 251   0.0000       0.736789        20.0490 
 252   0.0000       0.740404        20.1474 
 253   0.0000       0.743360        20.2279 
 254   0.0000       0.750237        20.4150 
 255   0.0000       0.759155        20.6576 
 256   0.0000       0.759517        20.6675 
 257   0.0000       0.763631        20.7794 
 258   0.0000       0.764267        20.7968 
 259   0.0000       0.768719        20.9179 
 260   0.0000       0.771477        20.9930 
 261   0.0000       0.772596        21.0234 
 262   0.0000       0.776281        21.1237 
 263   0.0000       0.779948        21.2235 
 264   0.0000       0.784759        21.3544 
 265   0.0000       0.785359        21.3707 
 266   0.0000       0.791157        21.5285 
 267   0.0000       0.798397        21.7255 
 268   0.0000       0.800442        21.7811 
 269   0.0000       0.802553        21.8386 
 270   0.0000       0.812081        22.0979 
 271   0.0000       0.812989        22.1225 
 272   0.0000       0.814100        22.1528 
 273   0.0000       0.825125        22.4528 
 274   0.0000       0.834518        22.7084 
 275   0.0000       0.836675        22.7671 
[...]
   Time for RI-J (Direct):        8.491
   Time for K (COSX):            30.752
   Time for XC-Integration:      13.966
   Time for LR-CPCM terms:        7.348
   Time for Sigma-Completion:     0.091
   Size of expansion space: 60
   Lowest Energy          :     0.146381494971
   Maximum Energy change  :     0.000362146490 (vector 9)
   Maximum residual norm  :     0.000106874557

                       ****Iteration   10****
   Time for densities:            0.148
   Time for RI-J (Direct):        8.665
   Time for K (COSX):            30.081
   Time for XC-Integration:      13.937
   Time for LR-CPCM terms:        7.081
   Time for Sigma-Completion:     0.083
   Size of expansion space: 70
   Lowest Energy          :     0.146381494923
   Maximum Energy change  :     0.000354721624 (vector 9)
   Maximum residual norm  :     0.000053850373
   Rebuilding the expansion space

                       ****Iteration   11****
   Time for densities:            0.298
   Time for RI-J (Direct):       10.307
   Time for K (COSX):            56.586
   Time for XC-Integration:      27.858
   Time for LR-CPCM terms:       11.238
   Time for Sigma-Completion:     0.172
   Size of expansion space: 20
   Lowest Energy          :     0.146381483423
   Maximum Energy change  :     0.000105668964 (vector 9)
   Maximum residual norm  :     0.000023161311

                       ****Iteration   12****
   Time for densities:            0.140
   Time for RI-J (Direct):        8.571
   Time for K (COSX):            31.937
   Time for XC-Integration:      15.588
   Time for LR-CPCM terms:        7.572
   Time for Sigma-Completion:     0.119
   Size of expansion space: 30
   Lowest Energy          :     0.146381483422
   Maximum Energy change  :     0.000044543385 (vector 9)
   Maximum residual norm  :     0.000007662905

                       ****Iteration   13****
   Time for densities:            0.168
   Time for RI-J (Direct):        9.060
   Time for K (COSX):            33.923
   Time for XC-Integration:      15.372
   Time for LR-CPCM terms:        7.531
   Time for Sigma-Completion:     0.103
   Size of expansion space: 40
   Lowest Energy          :     0.146381483422
   Maximum Energy change  :     0.000020872751 (vector 9)
   Maximum residual norm  :     0.000004606550

                       ****Iteration   14****
   Time for densities:            0.128
   Time for RI-J (Direct):        8.723
   Time for K (COSX):            30.756
   Time for XC-Integration:      13.861
   Time for LR-CPCM terms:        7.100
   Time for Sigma-Completion:     0.094
   Size of expansion space: 49
   Lowest Energy          :     0.146381483422
   Maximum Energy change  :     0.000014742410 (vector 9)
   Maximum residual norm  :     0.000003477767

                       ****Iteration   15****
   Time for densities:            0.138
   Time for RI-J (Direct):        8.696
   Time for K (COSX):            30.747
   Time for XC-Integration:      13.947
   Time for LR-CPCM terms:        7.125
   Time for Sigma-Completion:     0.108
   Size of expansion space: 58
   Lowest Energy          :     0.146381483422
   Maximum Energy change  :     0.000010372962 (vector 9)
   Maximum residual norm  :     0.000002306090

                       ****Iteration   16****
   Time for densities:            0.140
   Time for RI-J (Direct):        8.744
   Time for K (COSX):            30.783
   Time for XC-Integration:      13.867
   Time for LR-CPCM terms:        7.130
   Time for Sigma-Completion:     0.087
   Size of expansion space: 67
   Lowest Energy          :     0.146381483422
   Maximum Energy change  :     0.000007285220 (vector 9)
   Maximum residual norm  :     0.000001935620
   Rebuilding the expansion space

                       ****Iteration   17****
   Time for densities:            0.300
   Time for RI-J (Direct):       11.269
   Time for K (COSX):            57.596
   Time for XC-Integration:      27.116
   Time for LR-CPCM terms:       11.078
   Time for Sigma-Completion:     0.188
   Size of expansion space: 19
   Lowest Energy          :     0.146381483416
   Maximum Energy change  :     0.000003207777 (vector 9)
   Maximum residual norm  :     0.000000885146

      *** CONVERGENCE OF RESIDUAL NORM REACHED ***

Storing the converged CI vectors               ... optpbed3-wb2plyp-train-4_job2.cis1

                 *** DAVIDSON DONE ***

Total time for solving the CIS problem:  1328.461sec

------------------
DOUBLES CORRECTION (Double precision version)
------------------

The (D) correction will be scaled by  0.2700
Doing v(i,a)*T(i,a) terms (RI)                    ... ok
Doing u(i,j,a,b) terms for state   0              ... ok
Doing u(i,j,a,b) terms for state   1              ... ok
Doing u(i,j,a,b) terms for state   2              ... ok
Doing u(i,j,a,b) terms for state   3              ... ok
Doing u(i,j,a,b) terms for state   4              ... ok
Doing u(i,j,a,b) terms for state   5              ... ok
Doing u(i,j,a,b) terms for state   6              ... ok
Doing u(i,j,a,b) terms for state   7              ... ok
Doing u(i,j,a,b) terms for state   8              ... ok
Doing u(i,j,a,b) terms for state   9              ... ok

Contributions to the (D) correction(s) (in eV)

STATE  Final   Init.   Total   v(ext)   v(int)  v(3)    u
       omega   omega     (D)                             
-----------------------------------------------------------------------------
   0   3.958   3.983  -0.025   0.446   0.776  -0.063  -1.184
   1   4.458   4.778  -0.321   0.462   0.759  -0.034  -1.509
   2   4.978   5.216  -0.239   0.355   0.768  -0.019  -1.343
   3   5.075   5.287  -0.212   0.444   0.579  -0.026  -1.209
   4   5.280   5.482  -0.202   0.293   0.728  -0.016  -1.206
   5   5.292   5.566  -0.274   0.383   0.765  -0.031  -1.390
   6   5.485   5.615  -0.131   0.295   0.759  -0.033  -1.153
   7   5.649   5.736  -0.087   0.120   0.751  -0.010  -0.949
   8   5.896   6.063  -0.167   0.374   0.784  -0.051  -1.273
   9   5.932   6.178  -0.247   0.302   0.777  -0.034  -1.293

(D)-timings
 V(i,a)*T(i,a) terms           ...   144.990 sec
 U(i,j,a,b) 3-internal         ...     4.808 sec
 U(i,j,a,b) 3-external         ...   134.345 sec
 U(i,j,a,b) pair terms         ...    91.310 sec
 Total measured time           ...   869.568 sec

 Time for (ab|v) I/O           ...    49.683 sec


------------------------------------
TD-DFT/TDA EXCITED STATES (SINGLETS)
------------------------------------

the weight of the individual excitations are printed if larger than 1.0e-02

STATE  1:  E=   0.145447 au      3.958 eV    31921.8 cm**-1 <S**2> =   0.000000
    57a ->  59a  :     0.012421 (c= -0.11145149)
    58a ->  59a  :     0.896982 (c=  0.94709148)

STATE  2:  E=   0.163810 au      4.458 eV    35952.2 cm**-1 <S**2> =   0.000000
    57a ->  59a  :     0.746695 (c=  0.86411494)
    57a ->  63a  :     0.013851 (c=  0.11769062)
    58a ->  66a  :     0.072313 (c= -0.26891123)
    58a ->  73a  :     0.023080 (c=  0.15192066)

STATE  3:  E=   0.182925 au      4.978 eV    40147.4 cm**-1 <S**2> =   0.000000
    54a ->  59a  :     0.013645 (c= -0.11681328)
    55a ->  66a  :     0.015812 (c=  0.12574770)
    55a ->  71a  :     0.017409 (c= -0.13194459)
    56a ->  59a  :     0.251902 (c= -0.50189866)
    56a ->  72a  :     0.012069 (c=  0.10985923)
    56a ->  77a  :     0.020281 (c= -0.14241153)
    57a ->  66a  :     0.016289 (c=  0.12762817)
    57a ->  71a  :     0.013913 (c= -0.11795486)
    58a ->  60a  :     0.098213 (c= -0.31338902)
    58a ->  61a  :     0.025421 (c=  0.15943811)
    58a ->  64a  :     0.038575 (c=  0.19640480)
    58a ->  66a  :     0.122000 (c= -0.34928428)
    58a ->  67a  :     0.016627 (c= -0.12894689)
    58a ->  68a  :     0.032217 (c= -0.17949113)
    58a ->  69a  :     0.031784 (c=  0.17828120)
    58a ->  71a  :     0.060993 (c=  0.24696675)
    58a ->  80a  :     0.018094 (c= -0.13451553)

STATE  4:  E=   0.186515 au      5.075 eV    40935.4 cm**-1 <S**2> =   0.000000
    53a ->  59a  :     0.035910 (c= -0.18950021)
    54a ->  59a  :     0.733127 (c= -0.85622823)
    54a ->  77a  :     0.031097 (c=  0.17634346)
    55a ->  59a  :     0.049796 (c=  0.22315057)
    58a ->  60a  :     0.010388 (c=  0.10192184)
    58a ->  66a  :     0.024224 (c=  0.15564004)

STATE  5:  E=   0.194034 au      5.280 eV    42585.6 cm**-1 <S**2> =   0.000000
    54a ->  59a  :     0.014271 (c=  0.11946320)
    56a ->  59a  :     0.221562 (c= -0.47070326)
    56a ->  77a  :     0.014535 (c= -0.12056307)
    57a ->  60a  :     0.030595 (c=  0.17491443)
    57a ->  66a  :     0.024414 (c=  0.15624899)
    57a ->  71a  :     0.010234 (c= -0.10116569)
    58a ->  60a  :     0.109318 (c=  0.33063252)
    58a ->  61a  :     0.057226 (c= -0.23922001)
    58a ->  64a  :     0.013558 (c= -0.11643746)
    58a ->  67a  :     0.012867 (c= -0.11343403)
    58a ->  68a  :     0.027425 (c=  0.16560520)
    58a ->  78a  :     0.027961 (c= -0.16721447)
    58a ->  79a  :     0.020465 (c= -0.14305762)
    58a ->  80a  :     0.086707 (c=  0.29446038)
    58a ->  81a  :     0.010270 (c=  0.10134285)
    58a ->  85a  :     0.021113 (c=  0.14530465)
    58a ->  87a  :     0.034552 (c=  0.18588047)

STATE  6:  E=   0.194478 au      5.292 eV    42682.9 cm**-1 <S**2> =   0.000000
    53a ->  59a  :     0.037713 (c=  0.19419916)
    55a ->  59a  :     0.036717 (c=  0.19161622)
    55a ->  63a  :     0.017174 (c=  0.13105131)
    57a ->  59a  :     0.085970 (c=  0.29320725)
    57a ->  66a  :     0.057534 (c=  0.23986313)
    57a ->  67a  :     0.013469 (c= -0.11605779)
    57a ->  73a  :     0.061310 (c= -0.24760872)
    57a ->  77a  :     0.010875 (c= -0.10428146)
    58a ->  60a  :     0.025758 (c= -0.16049285)
    58a ->  63a  :     0.040471 (c=  0.20117338)
    58a ->  64a  :     0.013665 (c=  0.11689839)
    58a ->  65a  :     0.022500 (c=  0.15000137)
    58a ->  66a  :     0.199242 (c=  0.44636493)
    58a ->  67a  :     0.045955 (c= -0.21437198)
    58a ->  68a  :     0.020126 (c= -0.14186727)
    58a ->  69a  :     0.040533 (c=  0.20132929)
    58a ->  72a  :     0.041873 (c=  0.20462914)
    58a ->  73a  :     0.013482 (c= -0.11611166)
    58a ->  77a  :     0.023937 (c= -0.15471562)

STATE  7:  E=   0.201552 au      5.485 eV    44235.6 cm**-1 <S**2> =   0.000000
    53a ->  59a  :     0.016415 (c= -0.12812065)
    55a ->  59a  :     0.012693 (c=  0.11266169)
    55a ->  73a  :     0.014776 (c=  0.12155500)
    57a ->  59a  :     0.018993 (c= -0.13781565)
    57a ->  63a  :     0.046894 (c=  0.21655080)
    57a ->  65a  :     0.022533 (c=  0.15011009)
    57a ->  66a  :     0.046878 (c=  0.21651404)
    57a ->  69a  :     0.022963 (c=  0.15153661)
    57a ->  72a  :     0.019367 (c=  0.13916481)
    58a ->  60a  :     0.040917 (c=  0.20227958)
    58a ->  63a  :     0.260908 (c=  0.51079111)
    58a ->  65a  :     0.114499 (c=  0.33837717)
    58a ->  66a  :     0.033132 (c= -0.18202176)
    58a ->  67a  :     0.051725 (c=  0.22743146)
    58a ->  69a  :     0.026479 (c=  0.16272333)
    58a ->  70a  :     0.013900 (c=  0.11789767)
    58a ->  72a  :     0.041659 (c=  0.20410538)
    58a ->  73a  :     0.041697 (c=  0.20419743)
    58a ->  77a  :     0.012992 (c=  0.11398351)
    58a ->  86a  :     0.010461 (c= -0.10227816)

STATE  8:  E=   0.207597 au      5.649 eV    45562.4 cm**-1 <S**2> =   0.000000
    53a ->  59a  :     0.011738 (c= -0.10834166)
    56a ->  59a  :     0.014495 (c=  0.12039644)
    57a ->  63a  :     0.011513 (c=  0.10729703)
    58a ->  60a  :     0.201165 (c= -0.44851434)
    58a ->  61a  :     0.026214 (c= -0.16190642)
    58a ->  64a  :     0.059939 (c=  0.24482414)
    58a ->  67a  :     0.192938 (c= -0.43924702)
    58a ->  68a  :     0.055284 (c=  0.23512599)
    58a ->  70a  :     0.020870 (c= -0.14446387)
    58a ->  71a  :     0.099934 (c= -0.31612348)
    58a ->  73a  :     0.040626 (c=  0.20155912)
    58a ->  78a  :     0.015069 (c= -0.12275781)
    58a ->  79a  :     0.010656 (c= -0.10322972)
    58a ->  80a  :     0.012414 (c=  0.11141814)
    58a ->  82a  :     0.010767 (c= -0.10376535)
    58a ->  87a  :     0.029177 (c=  0.17081223)

STATE  9:  E=   0.216681 au      5.896 eV    47556.0 cm**-1 <S**2> =   0.000000
    53a ->  59a  :     0.020653 (c= -0.14371196)
    55a ->  59a  :     0.306332 (c= -0.55347284)
    56a ->  59a  :     0.042139 (c= -0.20527737)
    56a ->  66a  :     0.042117 (c= -0.20522352)
    56a ->  67a  :     0.010374 (c= -0.10185459)
    56a ->  69a  :     0.011736 (c=  0.10833363)
    56a ->  71a  :     0.036031 (c=  0.18981712)
    57a ->  59a  :     0.010168 (c=  0.10083783)
    57a ->  66a  :     0.032269 (c= -0.17963494)
    57a ->  73a  :     0.012304 (c=  0.11092206)
    57a ->  75a  :     0.010026 (c=  0.10013122)
    58a ->  63a  :     0.054844 (c=  0.23418723)
    58a ->  66a  :     0.117239 (c=  0.34240141)
    58a ->  69a  :     0.011172 (c=  0.10569754)
    58a ->  70a  :     0.013835 (c=  0.11762056)
    58a ->  77a  :     0.040986 (c=  0.20244942)

STATE 10:  E=   0.217983 au      5.932 eV    47841.6 cm**-1 <S**2> =   0.000000
    54a ->  59a  :     0.017981 (c=  0.13409411)
    55a ->  59a  :     0.060093 (c=  0.24513836)
    55a ->  66a  :     0.016896 (c= -0.12998593)
    55a ->  72a  :     0.010070 (c= -0.10034865)
    56a ->  59a  :     0.115313 (c= -0.33957820)
    57a ->  60a  :     0.103606 (c= -0.32187833)
    57a ->  61a  :     0.028009 (c=  0.16736008)
    57a ->  63a  :     0.070519 (c=  0.26555470)
    57a ->  64a  :     0.030962 (c=  0.17596056)
    57a ->  65a  :     0.031675 (c=  0.17797582)
    57a ->  68a  :     0.028816 (c= -0.16975397)
    57a ->  69a  :     0.045222 (c=  0.21265370)
    57a ->  70a  :     0.025373 (c=  0.15928809)
    57a ->  72a  :     0.021162 (c=  0.14547305)
    57a ->  78a  :     0.010424 (c=  0.10209604)
    57a ->  80a  :     0.020005 (c= -0.14143796)
    58a ->  63a  :     0.012724 (c= -0.11280077)
    58a ->  64a  :     0.011042 (c= -0.10508018)
    58a ->  65a  :     0.017752 (c= -0.13323705)
    58a ->  66a  :     0.072802 (c=  0.26981799)
    58a ->  69a  :     0.014374 (c= -0.11989322)


-----------------------------
TD-DFT/TDA-EXCITATION SPECTRA
-----------------------------

Center of mass = (  0.2776, -0.0029, -0.0073)
Calculating the Dipole integrals                  ... done
Transforming integrals                            ... done
Calculating the Linear Momentum integrals         ... done
Transforming integrals                            ... done
Calculating angular momentum integrals            ... done
Transforming integrals                            ... done

-----------------------------------------------------------------------------
         ABSORPTION SPECTRUM VIA TRANSITION ELECTRIC DIPOLE MOMENTS
-----------------------------------------------------------------------------
State   Energy    Wavelength  fosc         T2        TX        TY        TZ  
        (cm-1)      (nm)                 (au**2)    (au)      (au)      (au) 
-----------------------------------------------------------------------------
   1   31921.8    313.3   0.592872216   6.11433  -2.36895   0.32048  -0.63222
   2   35952.2    278.1   0.143086715   1.31024   0.78602   0.46062  -0.69299
   3   40147.4    249.1   0.018790086   0.15408  -0.27702  -0.26243   0.09206
   4   40935.4    244.3   0.021323905   0.17149   0.23061  -0.26046  -0.22466
   5   42585.6    234.8   0.020829001   0.16102   0.36630  -0.14448   0.07727
   6   42682.9    234.3   0.246776740   1.90338   1.18232   0.43178  -0.56487
   7   44235.6    226.1   0.119772020   0.89137  -0.87239  -0.08908   0.34983
   8   45562.4    219.5   0.018844094   0.13616  -0.29980  -0.19381  -0.09337
   9   47556.0    210.3   0.013378365   0.09261   0.15965  -0.06866  -0.24982
  10   47841.6    209.0   0.219055311   1.50738   1.15116  -0.36485   0.22156

-----------------------------------------------------------------------------
         ABSORPTION SPECTRUM VIA TRANSITION VELOCITY DIPOLE MOMENTS
-----------------------------------------------------------------------------
State   Energy    Wavelength   fosc        P2         PX        PY        PZ  
        (cm-1)      (nm)                 (au**2)     (au)      (au)      (au) 
-----------------------------------------------------------------------------
   1   31921.8    313.3   0.181187855   0.03953   0.19421   0.02992  -0.03030
   2   35952.2    278.1   0.055654916   0.01368  -0.11692  -0.00153  -0.00135
   3   40147.4    249.1   0.006285995   0.00172   0.03890   0.01300  -0.00654
   4   40935.4    244.3   0.003216715   0.00090  -0.02829  -0.00542   0.00838
   5   42585.6    234.8   0.007397561   0.00215  -0.04582   0.00624   0.00380
   6   42682.9    234.3   0.100730814   0.02938  -0.16891  -0.01728   0.02356
   7   44235.6    226.1   0.056047358   0.01694   0.12191   0.01510  -0.04306
   8   45562.4    219.5   0.010286401   0.00320   0.04374   0.03345   0.01310
   9   47556.0    210.3   0.000415762   0.00014  -0.00415   0.01072  -0.00174
  10   47841.6    209.0   0.096100888   0.03142  -0.17708  -0.00635   0.00515

-------------------------------------------------------------------
                             CD SPECTRUM
-------------------------------------------------------------------
State  Energy     Wavelength     R         MX        MY        MZ   
       (cm-1)       (nm)     (1e40*cgs)   (au)      (au)      (au)  
-------------------------------------------------------------------
   1   31921.8    313.3     43.91858  -0.04120  -0.18010  -0.08427
   2   35952.2    278.1     19.25241   0.05662   0.01598   0.01591
   3   40147.4    249.1     -6.91223   0.13158  -0.10764  -0.07016
   4   40935.4    244.3     45.30727   0.50749   0.06995   0.01207
   5   42585.6    234.8     -8.41543  -0.03642   0.08401   0.09873
   6   42682.9    234.3     15.31440   0.01636   0.09353   0.04824
   7   44235.6    226.1     39.34368  -0.09506   0.07673   0.02104
   8   45562.4    219.5    -45.51562   0.34795   0.01191  -0.10797
   9   47556.0    210.3    -78.53284  -0.03039   0.56747   0.49140
  10   47841.6    209.0    -78.79395  -0.09507   0.34397   0.30603

-------------------------------------------------------------------
         CD SPECTRUM VIA TRANSITION VELOCITY DIPOLE MOMENTS        
-------------------------------------------------------------------
State  Energy     Wavelength     R         MX        MY        MZ   
       (cm-1)       (nm)     (1e40*cgs)   (au)      (au)      (au)  
-------------------------------------------------------------------
   1   31921.8    313.3    -35.12224  -0.04120  -0.18010  -0.08427
   2   35952.2    278.1    -19.18392   0.05662   0.01598   0.01591
   3   40147.4    249.1     10.76882   0.13158  -0.10764  -0.07016
   4   40935.4    244.3    -36.99122   0.50749   0.06995   0.01207
   5   42585.6    234.8      6.23989  -0.03642   0.08401   0.09873
   6   42682.9    234.3     -7.86248   0.01636   0.09353   0.04824
   7   44235.6    226.1    -26.51697  -0.09506   0.07673   0.02104
   8   45562.4    219.5     32.25156   0.34795   0.01191  -0.10797
   9   47556.0    210.3     11.65127  -0.03039   0.56747   0.49140
  10   47841.6    209.0     35.08958  -0.09507   0.34397   0.30603

Total run time:     2205.084 sec

           *** ORCA-CIS/TD-DFT FINISHED WITHOUT ERROR ***

Maximum memory used throughout the entire CIS-calculation: 1061.1 MB

-----------------------
CIS/TD-DFT TOTAL ENERGY
-----------------------

    E(SCF)  =  -1238.389791652 Eh
    DE(CIS) =      0.145446503 Eh (Root  1)
    ----------------------------- ---------
    E(tot)  =  -1238.244345149 Eh

  Warning: (DFTVDWD): Non-parameterized functional used for dispersion correction ! 

  Warning: (D3BJ): Non-parameterized functional used for dispersion correction !

Please define all necessary parameters (s6, s8, a1, and a2) in the %method block!
[file orca_tools/Tool-Misc/qcdftvdw.cpp, line 36127]: ERROR in DFT dispersion correction!

