
                                 *****************
                                 * O   R   C   A *
                                 *****************

                                            #,                                       
                                            ###                                      
                                            ####                                     
                                            #####                                    
                                            ######                                   
                                           ########,                                 
                                     ,,################,,,,,                         
                               ,,#################################,,                 
                          ,,##########################################,,             
                       ,#########################################, ''#####,          
                    ,#############################################,,   '####,        
                  ,##################################################,,,,####,       
                ,###########''''           ''''###############################       
              ,#####''   ,,,,##########,,,,          '''####'''          '####       
            ,##' ,,,,###########################,,,                        '##       
           ' ,,###''''                  '''############,,,                           
         ,,##''                                '''############,,,,        ,,,,,,###''
      ,#''                                            '''#######################'''  
     '                                                          ''''####''''         
             ,#######,   #######,   ,#######,      ##                                
            ,#'     '#,  ##    ##  ,#'     '#,    #''#        ######   ,####,        
            ##       ##  ##   ,#'  ##            #'  '#       #        #'  '#        
            ##       ##  #######   ##           ,######,      #####,   #    #        
            '#,     ,#'  ##    ##  '#,     ,#' ,#      #,         ##   #,  ,#        
             '#######'   ##     ##  '#######'  #'      '#     #####' # '####'        



                  #######################################################
                  #                        -***-                        #
                  #          Department of theory and spectroscopy      #
                  #    Directorship and core code : Frank Neese         #
                  #        Max Planck Institute fuer Kohlenforschung    #
                  #                Kaiser Wilhelm Platz 1               #
                  #                 D-45470 Muelheim/Ruhr               #
                  #                      Germany                        #
                  #                                                     #
                  #                  All rights reserved                #
                  #                        -***-                        #
                  #######################################################


                         Program Version 5.0.2 -  RELEASE  -


 With contributions from (in alphabetic order):
   Daniel Aravena         : Magnetic Suceptibility
   Michael Atanasov       : Ab Initio Ligand Field Theory (pilot matlab implementation)
   Alexander A. Auer      : GIAO ZORA, VPT2 properties, NMR spectrum
   Ute Becker             : Parallelization
   Giovanni Bistoni       : ED, misc. LED, open-shell LED, HFLD
   Martin Brehm           : Molecular dynamics
   Dmytro Bykov           : SCF Hessian
   Vijay G. Chilkuri      : MRCI spin determinant printing, contributions to CSF-ICE
   Dipayan Datta          : RHF DLPNO-CCSD density
   Achintya Kumar Dutta   : EOM-CC, STEOM-CC
   Dmitry Ganyushin       : Spin-Orbit,Spin-Spin,Magnetic field MRCI
   Miquel Garcia          : C-PCM and meta-GGA Hessian, CC/C-PCM, Gaussian charge scheme
   Yang Guo               : DLPNO-NEVPT2, F12-NEVPT2, CIM, IAO-localization
   Andreas Hansen         : Spin unrestricted coupled pair/coupled cluster methods
   Benjamin Helmich-Paris : MC-RPA, TRAH-SCF, COSX integrals
   Lee Huntington         : MR-EOM, pCC
   Robert Izsak           : Overlap fitted RIJCOSX, COSX-SCS-MP3, EOM
   Marcus Kettner         : VPT2
   Christian Kollmar      : KDIIS, OOCD, Brueckner-CCSD(T), CCSD density, CASPT2, CASPT2-K
   Simone Kossmann        : Meta GGA functionals, TD-DFT gradient, OOMP2, MP2 Hessian
   Martin Krupicka        : Initial AUTO-CI
   Lucas Lang             : DCDCAS
   Marvin Lechner         : AUTO-CI (C++ implementation), FIC-MRCC
   Dagmar Lenk            : GEPOL surface, SMD
   Dimitrios Liakos       : Extrapolation schemes; Compound Job, initial MDCI parallelization
   Dimitrios Manganas     : Further ROCIS development; embedding schemes
   Dimitrios Pantazis     : SARC Basis sets
   Anastasios Papadopoulos: AUTO-CI, single reference methods and gradients
   Taras Petrenko         : DFT Hessian,TD-DFT gradient, ASA, ECA, R-Raman, ABS, FL, XAS/XES, NRVS
   Peter Pinski           : DLPNO-MP2, DLPNO-MP2 Gradient
   Christoph Reimann      : Effective Core Potentials
   Marius Retegan         : Local ZFS, SOC
   Christoph Riplinger    : Optimizer, TS searches, QM/MM, DLPNO-CCSD(T), (RO)-DLPNO pert. Triples
   Tobias Risthaus        : Range-separated hybrids, TD-DFT gradient, RPA, STAB
   Michael Roemelt        : Original ROCIS implementation
   Masaaki Saitow         : Open-shell DLPNO-CCSD energy and density
   Barbara Sandhoefer     : DKH picture change effects
   Avijit Sen             : IP-ROCIS
   Kantharuban Sivalingam : CASSCF convergence, NEVPT2, FIC-MRCI
   Bernardo de Souza      : ESD, SOC TD-DFT
   Georgi Stoychev        : AutoAux, RI-MP2 NMR, DLPNO-MP2 response
   Willem Van den Heuvel  : Paramagnetic NMR
   Boris Wezisla          : Elementary symmetry handling
   Frank Wennmohs         : Technical directorship


 We gratefully acknowledge several colleagues who have allowed us to
 interface, adapt or use parts of their codes:
   Stefan Grimme, W. Hujo, H. Kruse, P. Pracht,  : VdW corrections, initial TS optimization,
                  C. Bannwarth, S. Ehlert          DFT functionals, gCP, sTDA/sTD-DF
   Ed Valeev, F. Pavosevic, A. Kumar             : LibInt (2-el integral package), F12 methods
   Garnet Chan, S. Sharma, J. Yang, R. Olivares  : DMRG
   Ulf Ekstrom                                   : XCFun DFT Library
   Mihaly Kallay                                 : mrcc  (arbitrary order and MRCC methods)
   Jiri Pittner, Ondrej Demel                    : Mk-CCSD
   Frank Weinhold                                : gennbo (NPA and NBO analysis)
   Christopher J. Cramer and Donald G. Truhlar   : smd solvation model
   Lars Goerigk                                  : TD-DFT with DH, B97 family of functionals
   V. Asgeirsson, H. Jonsson                     : NEB implementation
   FAccTs GmbH                                   : IRC, NEB, NEB-TS, DLPNO-Multilevel, CI-OPT
                                                   MM, QMMM, 2- and 3-layer-ONIOM, Crystal-QMMM,
                                                   LR-CPCM, SF, NACMEs, symmetry and pop. for TD-DFT,
                                                   nearIR, NL-DFT gradient (VV10), updates on ESD,
                                                   ML-optimized integration grids
   S Lehtola, MJT Oliveira, MAL Marques          : LibXC Library
   Liviu Ungur et al                             : ANISO software


 Your calculation uses the libint2 library for the computation of 2-el integrals
 For citations please refer to: http://libint.valeyev.net

 Your ORCA version has been built with support for libXC version: 5.1.0
 For citations please refer to: https://tddft.org/programs/libxc/

 This ORCA versions uses:
   CBLAS   interface :  Fast vector & matrix operations
   LAPACKE interface :  Fast linear algebra routines
   SCALAPACK package :  Parallel linear algebra routines
   Shared memory     :  Shared parallel matrices
   BLAS/LAPACK       :  OpenBLAS 0.3.15  USE64BITINT DYNAMIC_ARCH NO_AFFINITY Sandybridge SINGLE_THREADED
        Core in use  :  Sandybridge
   Copyright (c) 2011-2014, The OpenBLAS Project


Your calculation utilizes the SMD solvation module
Please cite in your paper:
A.V. Marenich, C.J. Cramer, D.G. Truhlar J. Phys. Chem. B, 113, (2009), 6378 

================================================================================

----- Orbital basis set information -----
Your calculation utilizes the basis: aug-cc-pVTZ 
    H, B-Ne : Obtained from the ccRepo (grant-hill.group.shef.ac.uk/ccrepo) Feb. 2017
              R. A. Kendall, T. H. Dunning, Jr., R. J. Harrison, J. Chem. Phys. 96, 6796 (1992)
         He : Obtained from the ccRepo (grant-hill.group.shef.ac.uk/ccrepo) Feb. 2017
              D. E. Woon, T. H. Dunning, Jr., J. Chem. Phys. 100, 2975 (1994)
  Li-Be, Na : Obtained from the ccRepo (grant-hill.group.shef.ac.uk/ccrepo) Feb. 2017
              B. P. Prascher, D. E. Woon, K. A. Peterson, T. H. Dunning, Jr., A. K. Wilson, Theor. Chem. Acc. 128, 69 (2011)
         Mg : Obtained from the Peterson Research Group Website (tyr0.chem.wsu.edu/~kipeters) Feb. 2017
              B. P. Prascher, D. E. Woon, K. A. Peterson, T. H. Dunning, Jr., A. K. Wilson, Theor. Chem. Acc. 128, 69 (2011)
      Al-Ar : Obtained from the ccRepo (grant-hill.group.shef.ac.uk/ccrepo) Feb. 2017
              D. E. Woon, T. H. Dunning, Jr., J. Chem. Phys. 98, 1358 (1993)
      Sc-Zn : Obtained from the ccRepo (grant-hill.group.shef.ac.uk/ccrepo) Feb. 2017
              N. B. Balabanov, K. A. Peterson, J. Chem. Phys. 123, 064107 (2005)
              N. B. Balabanov, K. A. Peterson, J. Chem. Phys. 125, 074110 (2006)
      Ga-Kr : Obtained from the ccRepo (grant-hill.group.shef.ac.uk/ccrepo) Feb. 2017
              A. K. Wilson, D. E. Woon, K. A. Peterson, T. H. Dunning, Jr., J. Chem. Phys. 110, 7667 (1999)
     Ag, Au : Obtained from the Peterson Research Group Website (tyr0.chem.wsu.edu/~kipeters) Feb. 2017
              K. A. Peterson, C. Puzzarini, Theor. Chem. Acc. 114, 283 (2005)

The basis set includes element-specific modifications.

Your calculation utilizes the basis: cc-pVTZ 
       H, B-Ne : Obtained from the ccRepo (grant-hill.group.shef.ac.uk/ccrepo) Feb. 2017
                 T. H. Dunning, Jr., J. Chem. Phys. 90, 1007 (1989)
            He : Obtained from the ccRepo (grant-hill.group.shef.ac.uk/ccrepo) Feb. 2017
                 D. E. Woon, T. H. Dunning, Jr., J. Chem. Phys. 100, 2975 (1994)
  Li-Be, Na-Mg : Obtained from the ccRepo (grant-hill.group.shef.ac.uk/ccrepo) Feb. 2017
                 B. P. Prascher, D. E. Woon, K. A. Peterson, T. H. Dunning, Jr., A. K. Wilson, Theor. Chem. Acc. 128, 69 (2011)
         Al-Ar : Obtained from the ccRepo (grant-hill.group.shef.ac.uk/ccrepo) Feb. 2017
                 D. E. Woon, T. H. Dunning, Jr., J. Chem. Phys. 98, 1358 (1993)
            Ca : Obtained from the Peterson Research Group Website (tyr0.chem.wsu.edu/~kipeters) Feb. 2017
                 J. Koput, K. A. Peterson, J. Phys. Chem. 106, 9595 (2002)
         Sc-Zn : Obtained from the ccRepo (grant-hill.group.shef.ac.uk/ccrepo) Feb. 2017
                 N. B. Balabanov, K. A. Peterson, J. Chem. Phys. 123, 064107 (2005)
                 N. B. Balabanov, K. A. Peterson, J. Chem. Phys. 125, 074110 (2006)
         Ga-Kr : Obtained from the ccRepo (grant-hill.group.shef.ac.uk/ccrepo) Feb. 2017
                 A. K. Wilson, D. E. Woon, K. A. Peterson, T. H. Dunning, Jr., J. Chem. Phys. 110, 7667 (1999)
             Y : Obtained from the ccRepo (grant-hill.group.shef.ac.uk/ccrepo) Feb. 2017
                 K. A. Peterson, D. Figgen, M. Dolg, H. Stoll, J. Chem. Phys. 126, 124101 (2007)
        Ag, Au : Obtained from the Peterson Research Group Website (tyr0.chem.wsu.edu/~kipeters) Feb. 2017
                 K. A. Peterson, C. Puzzarini, Theor. Chem. Acc. 114, 283 (2005)

----- AuxJ basis set information -----
Your calculation utilizes the auxiliary basis: aug-cc-pVTZ/JK 
  H, B-F, Al-Cl, Ga-Br : Obtained from the TURBOMOLE 7.0 basis set library

The basis set includes element-specific modifications.

Your calculation utilizes the auxiliary basis: cc-pVTZ/JK 
  H, B-F, Al-Cl, Ga-Br : Obtained from the TURBOMOLE 7.0 basis set library

----- AuxC basis set information -----
Your calculation utilizes the auxiliary basis: aug-cc-pVTZ/C 
  H-He, B-F, Al-Ar, Ga-Kr : Obtained from the EMSL Basis Set Exchange (bse.pnl.gov) Feb. 2017
                            F. Weigend, A. Kohn, C. Hattig, J. Chem. Phys. 116, 3175 (2002)
                   Be, Mg : Obtained from the TURBOMOLE 7.0 basis set library
                            C. Haettig, Phys. Chem. Chem. Phys. 7, 59 (2005)
                       Ne : Obtained from the EMSL Basis Set Exchange (bse.pnl.gov) Feb. 2017
                            C. Haettig, Phys. Chem. Chem. Phys. 7, 59 (2005)
                            F. Weigend, A. Kohn, C. Hattig, J. Chem. Phys. 116, 3175 (2002)
                    Sc-Zn : Obtained from the EMSL Basis Set Exchange (bse.pnl.gov) Feb. 2017
                            J. G. Hill, J. A. Platts, J. Chem. Phys. 128, 044104 (2008)

The basis set includes element-specific modifications.

Your calculation utilizes the auxiliary basis: cc-pVTZ/C 
  Obtained from the EMSL Basis Set Exchange (bse.pnl.gov) Feb. 2017
  H-He, B-F, Al-Ar, Ga-Kr : F. Weigend, A. Kohn, C. Hattig, J. Chem. Phys. 116, 3175 (2002)
             Li-Be, Na-Mg : C. Haettig, Phys. Chem. Chem. Phys. 7, 59 (2005)
                       Ne : C. Haettig, Phys. Chem. Chem. Phys. 7, 59 (2005)
                            F. Weigend, A. Kohn, C. Hattig, J. Chem. Phys. 116, 3175 (2002)
                    Sc-Zn : J. G. Hill, J. A. Platts, J. Chem. Phys. 128, 044104 (2008)

================================================================================
                                        WARNINGS
                       Please study these warnings very carefully!
================================================================================


WARNING: Geometry Optimization
  ===> : Switching off AutoStart
         For restart on a previous wavefunction, please use MOREAD

INFO   : the flag for use of the SHARK integral package has been found!



***************************************
The coordinates will be read from file: 
***************************************


Your calculation utilizes the SMD solvation module
Please cite in your paper:
A.V. Marenich, C.J. Cramer, D.G. Truhlar J. Phys. Chem. B, 113, (2009), 6378 

================================================================================

----- Orbital basis set information -----
Your calculation utilizes the basis: aug-cc-pVTZ 
    H, B-Ne : Obtained from the ccRepo (grant-hill.group.shef.ac.uk/ccrepo) Feb. 2017
              R. A. Kendall, T. H. Dunning, Jr., R. J. Harrison, J. Chem. Phys. 96, 6796 (1992)
         He : Obtained from the ccRepo (grant-hill.group.shef.ac.uk/ccrepo) Feb. 2017
              D. E. Woon, T. H. Dunning, Jr., J. Chem. Phys. 100, 2975 (1994)
  Li-Be, Na : Obtained from the ccRepo (grant-hill.group.shef.ac.uk/ccrepo) Feb. 2017
              B. P. Prascher, D. E. Woon, K. A. Peterson, T. H. Dunning, Jr., A. K. Wilson, Theor. Chem. Acc. 128, 69 (2011)
         Mg : Obtained from the Peterson Research Group Website (tyr0.chem.wsu.edu/~kipeters) Feb. 2017
              B. P. Prascher, D. E. Woon, K. A. Peterson, T. H. Dunning, Jr., A. K. Wilson, Theor. Chem. Acc. 128, 69 (2011)
      Al-Ar : Obtained from the ccRepo (grant-hill.group.shef.ac.uk/ccrepo) Feb. 2017
              D. E. Woon, T. H. Dunning, Jr., J. Chem. Phys. 98, 1358 (1993)
      Sc-Zn : Obtained from the ccRepo (grant-hill.group.shef.ac.uk/ccrepo) Feb. 2017
              N. B. Balabanov, K. A. Peterson, J. Chem. Phys. 123, 064107 (2005)
              N. B. Balabanov, K. A. Peterson, J. Chem. Phys. 125, 074110 (2006)
      Ga-Kr : Obtained from the ccRepo (grant-hill.group.shef.ac.uk/ccrepo) Feb. 2017
              A. K. Wilson, D. E. Woon, K. A. Peterson, T. H. Dunning, Jr., J. Chem. Phys. 110, 7667 (1999)
     Ag, Au : Obtained from the Peterson Research Group Website (tyr0.chem.wsu.edu/~kipeters) Feb. 2017
              K. A. Peterson, C. Puzzarini, Theor. Chem. Acc. 114, 283 (2005)

The basis set includes element-specific modifications.

Your calculation utilizes the basis: cc-pVTZ 
       H, B-Ne : Obtained from the ccRepo (grant-hill.group.shef.ac.uk/ccrepo) Feb. 2017
                 T. H. Dunning, Jr., J. Chem. Phys. 90, 1007 (1989)
            He : Obtained from the ccRepo (grant-hill.group.shef.ac.uk/ccrepo) Feb. 2017
                 D. E. Woon, T. H. Dunning, Jr., J. Chem. Phys. 100, 2975 (1994)
  Li-Be, Na-Mg : Obtained from the ccRepo (grant-hill.group.shef.ac.uk/ccrepo) Feb. 2017
                 B. P. Prascher, D. E. Woon, K. A. Peterson, T. H. Dunning, Jr., A. K. Wilson, Theor. Chem. Acc. 128, 69 (2011)
         Al-Ar : Obtained from the ccRepo (grant-hill.group.shef.ac.uk/ccrepo) Feb. 2017
                 D. E. Woon, T. H. Dunning, Jr., J. Chem. Phys. 98, 1358 (1993)
            Ca : Obtained from the Peterson Research Group Website (tyr0.chem.wsu.edu/~kipeters) Feb. 2017
                 J. Koput, K. A. Peterson, J. Phys. Chem. 106, 9595 (2002)
         Sc-Zn : Obtained from the ccRepo (grant-hill.group.shef.ac.uk/ccrepo) Feb. 2017
                 N. B. Balabanov, K. A. Peterson, J. Chem. Phys. 123, 064107 (2005)
                 N. B. Balabanov, K. A. Peterson, J. Chem. Phys. 125, 074110 (2006)
         Ga-Kr : Obtained from the ccRepo (grant-hill.group.shef.ac.uk/ccrepo) Feb. 2017
                 A. K. Wilson, D. E. Woon, K. A. Peterson, T. H. Dunning, Jr., J. Chem. Phys. 110, 7667 (1999)
             Y : Obtained from the ccRepo (grant-hill.group.shef.ac.uk/ccrepo) Feb. 2017
                 K. A. Peterson, D. Figgen, M. Dolg, H. Stoll, J. Chem. Phys. 126, 124101 (2007)
        Ag, Au : Obtained from the Peterson Research Group Website (tyr0.chem.wsu.edu/~kipeters) Feb. 2017
                 K. A. Peterson, C. Puzzarini, Theor. Chem. Acc. 114, 283 (2005)

----- AuxJ basis set information -----
Your calculation utilizes the auxiliary basis: aug-cc-pVTZ/JK 
  H, B-F, Al-Cl, Ga-Br : Obtained from the TURBOMOLE 7.0 basis set library

The basis set includes element-specific modifications.

Your calculation utilizes the auxiliary basis: cc-pVTZ/JK 
  H, B-F, Al-Cl, Ga-Br : Obtained from the TURBOMOLE 7.0 basis set library

----- AuxC basis set information -----
Your calculation utilizes the auxiliary basis: aug-cc-pVTZ/C 
  H-He, B-F, Al-Ar, Ga-Kr : Obtained from the EMSL Basis Set Exchange (bse.pnl.gov) Feb. 2017
                            F. Weigend, A. Kohn, C. Hattig, J. Chem. Phys. 116, 3175 (2002)
                   Be, Mg : Obtained from the TURBOMOLE 7.0 basis set library
                            C. Haettig, Phys. Chem. Chem. Phys. 7, 59 (2005)
                       Ne : Obtained from the EMSL Basis Set Exchange (bse.pnl.gov) Feb. 2017
                            C. Haettig, Phys. Chem. Chem. Phys. 7, 59 (2005)
                            F. Weigend, A. Kohn, C. Hattig, J. Chem. Phys. 116, 3175 (2002)
                    Sc-Zn : Obtained from the EMSL Basis Set Exchange (bse.pnl.gov) Feb. 2017
                            J. G. Hill, J. A. Platts, J. Chem. Phys. 128, 044104 (2008)

The basis set includes element-specific modifications.

Your calculation utilizes the auxiliary basis: cc-pVTZ/C 
  Obtained from the EMSL Basis Set Exchange (bse.pnl.gov) Feb. 2017
  H-He, B-F, Al-Ar, Ga-Kr : F. Weigend, A. Kohn, C. Hattig, J. Chem. Phys. 116, 3175 (2002)
             Li-Be, Na-Mg : C. Haettig, Phys. Chem. Chem. Phys. 7, 59 (2005)
                       Ne : C. Haettig, Phys. Chem. Chem. Phys. 7, 59 (2005)
                            F. Weigend, A. Kohn, C. Hattig, J. Chem. Phys. 116, 3175 (2002)
                    Sc-Zn : J. G. Hill, J. A. Platts, J. Chem. Phys. 128, 044104 (2008)

================================================================================
                                        WARNINGS
                       Please study these warnings very carefully!
================================================================================

INFO   : Checking CIS options ...

INFO   : the flag for use of the SHARK integral package has been found!

================================================================================
                                       INPUT FILE
================================================================================
NAME = pbe0-train-4.inp
|  1> ! pbe0 aug-cc-PVTZ RIJCOSX Opt
|  2> %maxcore 4000
|  3> %basis
|  4>  AuxJ "aug-cc-PVTZ/JK"
|  5>  AuxC "aug-cc-PVTZ/C"
|  6>  newGTO H "cc-PVTZ" end
|  7>  newAuxJGTO H "cc-PVTZ/JK" end
|  8>  newAuxCGTO H "cc-PVTZ/C" end
|  9> end
| 10> %cpcm
| 11>  SMD true
| 12>  SMDsolvent "acetonitrile"
| 13> end
| 14> %pal nprocs 4 end
| 15> * xyz 0 1
| 16> C         -4.57040       -0.46150        0.41150
| 17> C         -4.02030        0.49180       -0.42940
| 18> C         -2.64950        0.61520       -0.54150
| 19> C         -1.79710       -0.21660        0.18870
| 20> C         -0.35690       -0.10750        0.08880
| 21> P          0.74210       -1.10260        0.96210
| 22> C          2.18870       -0.32020        0.26940
| 23> C          3.50480       -0.67740        0.58050
| 24> C          4.55840       -0.01500       -0.00560
| 25> C          4.32660        1.01730       -0.91390
| 26> C          3.04000        1.38880       -1.23760
| 27> C          1.97300        0.72160       -0.64740
| 28> S          0.31300        1.10370       -0.97940
| 29> C         -2.36710       -1.17440        1.03350
| 30> C         -3.73620       -1.29410        1.14250
| 31> H         -5.64250       -0.55610        0.49770
| 32> H         -4.66370        1.14380       -1.00180
| 33> H         -2.22950        1.36200       -1.20020
| 34> H          3.67680       -1.47810        1.28510
| 35> H          5.57280       -0.29380        0.23730
| 36> H          5.16140        1.52990       -1.36750
| 37> H          2.84950        2.18640       -1.93950
| 38> H         -1.71510       -1.82300        1.60290
| 39> H         -4.15830       -2.03970        1.80010
| 40> *
| 41> 
| 42> 
| 43> $new_job
| 44> ! pbe0 aug-cc-PVTZ RIJCOSX SP
| 45> %maxcore 4000
| 46> %basis
| 47>  AuxJ "aug-cc-PVTZ/JK"
| 48>  AuxC "aug-cc-PVTZ/C"
| 49>  newGTO H "cc-PVTZ" end
| 50>  newAuxJGTO H "cc-PVTZ/JK" end
| 51>  newAuxCGTO H "cc-PVTZ/C" end
| 52> end
| 53> %cpcm
| 54>  SMD true
| 55>  SMDsolvent "acetonitrile"
| 56> end
| 57> %pal nprocs 4 end
| 58> %tddft
| 59>  nroots 10
| 60>  maxdim 7
| 61> end
| 62> * xyzfile 0 1
| 63> 
| 64>                          ****END OF INPUT****
================================================================================


                 $$$$$$$$$$$$$$$$$$$$$$$$$$$$$$$$$$$$$$$$$$$$$$ 
                 $ THERE ARE  2 JOBS TO BE PROCESSED THIS RUN $
                 $$$$$$$$$$$$$$$$$$$$$$$$$$$$$$$$$$$$$$$$$$$$$$ 




                 $$$$$$$$$$$$$$$$  JOB NUMBER  1 $$$$$$$$$$$$$$


                       *****************************
                       * Geometry Optimization Run *
                       *****************************

Geometry optimization settings:
Update method            Update   .... BFGS
Choice of coordinates    CoordSys .... Z-matrix Internals
Initial Hessian          InHess   .... Almoef's Model

Convergence Tolerances:
Energy Change            TolE     ....  5.0000e-06 Eh
Max. Gradient            TolMAXG  ....  3.0000e-04 Eh/bohr
RMS Gradient             TolRMSG  ....  1.0000e-04 Eh/bohr
Max. Displacement        TolMAXD  ....  4.0000e-03 bohr
RMS Displacement         TolRMSD  ....  2.0000e-03 bohr
Strict Convergence                ....  False
------------------------------------------------------------------------------
                        ORCA OPTIMIZATION COORDINATE SETUP
------------------------------------------------------------------------------

The optimization will be done in new redundant internal coordinates
Making redundant internal coordinates   ...  (new redundants) done
Evaluating the initial hessian          ...  (Almloef) done
Evaluating the coordinates              ...  done
Calculating the B-matrix                .... done
Calculating the G-matrix                .... done
Diagonalizing the G-matrix              .... done
Small eigenvalue found = 9.073e-03
The first mode is                       ....   61
The number of degrees of freedom        ....   66

    -----------------------------------------------------------------
                    Redundant Internal Coordinates


    -----------------------------------------------------------------
         Definition                    Initial Value    Approx d2E/dq
    -----------------------------------------------------------------
      1. B(C   1,C   0)                  1.3851         0.636144   
      2. B(C   2,C   1)                  1.3809         0.646035   
      3. B(C   3,C   2)                  1.3970         0.608886   
      4. B(C   4,C   3)                  1.4478         0.505311   
      5. B(P   5,C   4)                  1.7207         0.623279   
      6. B(C   6,P   5)                  1.7846         0.492885   
      7. B(C   7,C   6)                  1.3987         0.605038   
      8. B(C   8,C   7)                  1.3756         0.658664   
      9. B(C   9,C   8)                  1.3944         0.614752   
     10. B(C  10,C   9)                  1.3777         0.653609   
     11. B(C  11,C  10)                  1.3900         0.624895   
     12. B(C  11,C   6)                  1.4044         0.592560   
     13. B(S  12,C  11)                  1.7355         0.473528   
     14. B(S  12,C   4)                  1.7484         0.451584   
     15. B(C  13,C   3)                  1.3986         0.605456   
     16. B(C  14,C  13)                  1.3786         0.651426   
     17. B(C  14,C   0)                  1.3869         0.631968   
     18. B(H  15,C   0)                  1.0797         0.373970   
     19. B(H  16,C   1)                  1.0801         0.373378   
     20. B(H  17,C   2)                  1.0807         0.372562   
     21. B(H  18,C   7)                  1.0804         0.373089   
     22. B(H  19,C   8)                  1.0797         0.373996   
     23. B(H  20,C   9)                  1.0795         0.374209   
     24. B(H  21,C  10)                  1.0794         0.374389   
     25. B(H  22,C  13)                  1.0817         0.371295   
     26. B(H  23,C  14)                  1.0801         0.373495   
     27. A(C   1,C   0,H  15)          120.2070         0.356729   
     28. A(C   1,C   0,C  14)          119.6229         0.437585   
     29. A(C  14,C   0,H  15)          120.1701         0.356330   
     30. A(C   0,C   1,C   2)          120.3339         0.439326   
     31. A(C   2,C   1,H  16)          119.6265         0.357570   
     32. A(C   0,C   1,H  16)          120.0396         0.356633   
     33. A(C   1,C   2,C   3)          120.6675         0.435871   
     34. A(C   3,C   2,H  17)          119.5303         0.353862   
     35. A(C   1,C   2,H  17)          119.8023         0.357437   
     36. A(C   2,C   3,C   4)          121.7374         0.417109   
     37. A(C   2,C   3,C  13)          118.3473         0.430815   
     38. A(C   4,C   3,C  13)          119.9152         0.416690   
     39. A(C   3,C   4,S  12)          118.3927         0.417176   
     40. A(P   5,C   4,S  12)          117.7751         0.462375   
     41. A(C   3,C   4,P   5)          123.8322         0.446873   
     42. A(C   4,P   5,C   6)           93.8526         0.475097   
     43. A(P   5,C   6,C   7)          124.3628         0.442478   
     44. A(C   7,C   6,C  11)          118.6290         0.428665   
     45. A(P   5,C   6,C  11)          117.0082         0.440814   
     46. A(C   6,C   7,H  18)          118.9551         0.353567   
     47. A(C   6,C   7,C   8)          120.1934         0.436894   
     48. A(C   8,C   7,H  18)          120.8516         0.358702   
     49. A(C   9,C   8,H  19)          119.5966         0.354669   
     50. A(C   7,C   8,H  19)          119.9600         0.358850   
     51. A(C   7,C   8,C   9)          120.4434         0.438151   
     52. A(C   8,C   9,C  10)          120.5245         0.437543   
     53. A(C  10,C   9,H  20)          119.6952         0.358415   
     54. A(C   8,C   9,H  20)          119.7803         0.354703   
     55. A(C   9,C  10,C  11)          119.1879         0.438836   
     56. A(C  11,C  10,H  21)          119.6914         0.355718   
     57. A(C   9,C  10,H  21)          121.1207         0.358444   
     58. A(C   6,C  11,C  10)          121.0217         0.431157   
     59. A(C  10,C  11,S  12)          123.1857         0.437056   
     60. A(C   6,C  11,S  12)          115.7926         0.432896   
     61. A(C   4,S  12,C  11)           95.5716         0.435088   
     62. A(C   3,C  13,C  14)          120.7946         0.436080   
     63. A(C  14,C  13,H  22)          120.3261         0.357735   
     64. A(C   3,C  13,H  22)          118.8793         0.353320   
     65. A(C   0,C  14,C  13)          120.2338         0.439463   
     66. A(C  13,C  14,H  23)          119.7479         0.358094   
     67. A(C   0,C  14,H  23)          120.0183         0.356254   
     68. D(H  16,C   1,C   0,C  14)   -179.9971         0.028094   
     69. D(C   2,C   1,C   0,H  15)    179.9903         0.028094   
     70. D(C   2,C   1,C   0,C  14)     -0.0051         0.028094   
     71. D(H  16,C   1,C   0,H  15)     -0.0016         0.028094   
     72. D(H  17,C   2,C   1,C   0)   -179.9991         0.029035   
     73. D(H  17,C   2,C   1,H  16)     -0.0071         0.029035   
     74. D(C   3,C   2,C   1,H  16)    179.9989         0.029035   
     75. D(C   3,C   2,C   1,C   0)      0.0069         0.029035   
     76. D(C  13,C   3,C   2,H  17)   -179.9968         0.025600   
     77. D(C   4,C   3,C   2,H  17)     -0.0015         0.025600   
     78. D(C   4,C   3,C   2,C   1)    179.9925         0.025600   
     79. D(C  13,C   3,C   2,C   1)     -0.0028         0.025600   
     80. D(P   5,C   4,C   3,C  13)     -0.0035         0.017396   
     81. D(P   5,C   4,C   3,C   2)   -179.9987         0.017396   
     82. D(S  12,C   4,C   3,C   2)      0.0039         0.017396   
     83. D(S  12,C   4,C   3,C  13)    179.9991         0.017396   
     84. D(C   6,P   5,C   4,S  12)     -0.0005         0.005993   
     85. D(C   6,P   5,C   4,C   3)   -179.9980         0.005993   
     86. D(C  11,C   6,P   5,C   4)     -0.0021         0.004252   
     87. D(C   7,C   6,P   5,C   4)    179.9985         0.004252   
     88. D(H  18,C   7,C   6,C  11)   -179.9995         0.025259   
     89. D(H  18,C   7,C   6,P   5)     -0.0001         0.025259   
     90. D(C   8,C   7,C   6,C  11)     -0.0025         0.025259   
     91. D(C   8,C   7,C   6,P   5)    179.9968         0.025259   
     92. D(H  19,C   8,C   7,H  18)     -0.0054         0.030264   
     93. D(H  19,C   8,C   7,C   6)    179.9978         0.030264   
     94. D(C   9,C   8,C   7,H  18)   -179.9973         0.030264   
     95. D(C   9,C   8,C   7,C   6)      0.0059         0.030264   
     96. D(H  20,C   9,C   8,C   7)    179.9996         0.026124   
     97. D(C  10,C   9,C   8,H  19)   -179.9954         0.026124   
     98. D(C  10,C   9,C   8,C   7)     -0.0034         0.026124   
     99. D(H  20,C   9,C   8,H  19)      0.0077         0.026124   
    100. D(H  21,C  10,C   9,H  20)      0.0034         0.029768   
    101. D(H  21,C  10,C   9,C   8)   -179.9936         0.029768   
    102. D(C  11,C  10,C   9,H  20)    179.9946         0.029768   
    103. D(C  11,C  10,C   9,C   8)     -0.0024         0.029768   
    104. D(S  12,C  11,C  10,H  21)     -0.0103         0.027047   
    105. D(C   6,C  11,C  10,H  21)    179.9971         0.027047   
    106. D(C   6,C  11,C  10,C   9)      0.0057         0.027047   
    107. D(S  12,C  11,C   6,C   7)   -179.9965         0.024174   
    108. D(S  12,C  11,C   6,P   5)      0.0041         0.024174   
    109. D(S  12,C  11,C  10,C   9)    179.9984         0.027047   
    110. D(C  10,C  11,C   6,C   7)     -0.0033         0.024174   
    111. D(C  10,C  11,C   6,P   5)    179.9973         0.024174   
    112. D(C   4,S  12,C  11,C  10)   -179.9968         0.004806   
    113. D(C   4,S  12,C  11,C   6)     -0.0038         0.004806   
    114. D(C  11,S  12,C   4,P   5)      0.0023         0.004494   
    115. D(C  11,S  12,C   4,C   3)    179.9999         0.004494   
    116. D(H  22,C  13,C   3,C   4)      0.0042         0.025296   
    117. D(H  22,C  13,C   3,C   2)    179.9996         0.025296   
    118. D(C  14,C  13,C   3,C   4)   -179.9984         0.025296   
    119. D(C  14,C  13,C   3,C   2)     -0.0031         0.025296   
    120. D(H  23,C  14,C  13,H  22)     -0.0017         0.029556   
    121. D(C   0,C  14,C  13,H  22)   -179.9978         0.029556   
    122. D(C   0,C  14,C  13,C   3)      0.0048         0.029556   
    123. D(H  23,C  14,C   0,H  15)      0.0076         0.027702   
    124. D(H  23,C  14,C   0,C   1)   -179.9969         0.027702   
    125. D(H  23,C  14,C  13,C   3)   -179.9990         0.029556   
    126. D(C  13,C  14,C   0,H  15)   -179.9962         0.027702   
    127. D(C  13,C  14,C   0,C   1)     -0.0007         0.027702   
    -----------------------------------------------------------------

Number of atoms                         .... 24
Number of degrees of freedom            .... 127

         *************************************************************
         *                GEOMETRY OPTIMIZATION CYCLE   1            *
         *************************************************************
---------------------------------
CARTESIAN COORDINATES (ANGSTROEM)
---------------------------------
  C     -4.570400   -0.461500    0.411500
  C     -4.020300    0.491800   -0.429400
  C     -2.649500    0.615200   -0.541500
  C     -1.797100   -0.216600    0.188700
  C     -0.356900   -0.107500    0.088800
  P      0.742100   -1.102600    0.962100
  C      2.188700   -0.320200    0.269400
  C      3.504800   -0.677400    0.580500
  C      4.558400   -0.015000   -0.005600
  C      4.326600    1.017300   -0.913900
  C      3.040000    1.388800   -1.237600
  C      1.973000    0.721600   -0.647400
  S      0.313000    1.103700   -0.979400
  C     -2.367100   -1.174400    1.033500
  C     -3.736200   -1.294100    1.142500
  H     -5.642500   -0.556100    0.497700
  H     -4.663700    1.143800   -1.001800
  H     -2.229500    1.362000   -1.200200
  H      3.676800   -1.478100    1.285100
  H      5.572800   -0.293800    0.237300
  H      5.161400    1.529900   -1.367500
  H      2.849500    2.186400   -1.939500
  H     -1.715100   -1.823000    1.602900
  H     -4.158300   -2.039700    1.800100

----------------------------
CARTESIAN COORDINATES (A.U.)
----------------------------
  NO LB      ZA    FRAG     MASS         X           Y           Z
   0 C     6.0000    0    12.011   -8.636804   -0.872109    0.777622
   1 C     6.0000    0    12.011   -7.597266    0.929367   -0.811448
   2 C     6.0000    0    12.011   -5.006829    1.162560   -1.023287
   3 C     6.0000    0    12.011   -3.396027   -0.409315    0.356591
   4 C     6.0000    0    12.011   -0.674443   -0.203146    0.167808
   5 P    15.0000    0    30.974    1.402366   -2.083612    1.818106
   6 C     6.0000    0    12.011    4.136044   -0.605090    0.509092
   7 C     6.0000    0    12.011    6.623112   -1.280100    1.096986
   8 C     6.0000    0    12.011    8.614128   -0.028346   -0.010582
   9 C     6.0000    0    12.011    8.176089    1.922418   -1.727021
  10 C     6.0000    0    12.011    5.744767    2.624452   -2.338725
  11 C     6.0000    0    12.011    3.728430    1.363626   -1.223409
  12 S    16.0000    0    32.060    0.591484    2.085691   -1.850798
  13 C     6.0000    0    12.011   -4.473171   -2.219294    1.953032
  14 C     6.0000    0    12.011   -7.060395   -2.445495    2.159012
  15 H     1.0000    0     1.008  -10.662780   -1.050877    0.940517
  16 H     1.0000    0     1.008   -8.813116    2.161469   -1.893128
  17 H     1.0000    0     1.008   -4.213144    2.573807   -2.268049
  18 H     1.0000    0     1.008    6.948145   -2.793204    2.428487
  19 H     1.0000    0     1.008   10.531066   -0.555202    0.448432
  20 H     1.0000    0     1.008    9.753632    2.891092   -2.584200
  21 H     1.0000    0     1.008    5.384775    4.131697   -3.665124
  22 H     1.0000    0     1.008   -3.241069   -3.444971    3.029042
  23 H     1.0000    0     1.008   -7.858048   -3.854474    3.401696

--------------------------------
INTERNAL COORDINATES (ANGSTROEM)
--------------------------------
 C      0   0   0     0.000000000000     0.00000000     0.00000000
 C      1   0   0     1.385100613674     0.00000000     0.00000000
 C      2   1   0     1.380900651749   120.33387166     0.00000000
 C      3   2   1     1.397021488740   120.66745383     0.00000000
 C      4   3   2     1.447777213524   121.73742609   179.99247754
 P      5   4   3     1.720662052816   123.83222498   180.00129550
 C      6   5   4     1.784554457000    93.85256138   180.00203796
 C      7   6   5     1.398747389631   124.36275245   179.99849513
 C      8   7   6     1.375630738970   120.19335617   179.99681574
 C      9   8   7     1.394411495937   120.44343937     0.00000000
 C     10   9   8     1.377727658139   120.52452008     0.00000000
 C     11  10   9     1.389957150419   119.18790131     0.00000000
 S     12  11  10     1.735460863863   123.18568278   179.99839372
 C      4   3   2     1.398559215765   118.34734701     0.00000000
 C     14   4   3     1.378638422502   120.79464432     0.00000000
 H      1   2   3     1.079712003268   120.20703654   179.99033929
 H      2   1   3     1.080143194211   120.03958220   180.00807260
 H      3   2   1     1.080738603919   119.80226112   180.00092985
 H      8   7   6     1.080354409442   118.95508436     0.00000000
 H      9   8   7     1.079693109175   119.95998590   179.99779393
 H     10   9   8     1.079538216091   119.78026958   179.99963503
 H     11  10   9     1.079407068719   121.12065728   180.00641727
 H     14   4   3     1.081666455059   118.87927471   179.99956939
 H     15  14   4     1.080058114177   119.74790299   180.00100506

---------------------------
INTERNAL COORDINATES (A.U.)
---------------------------
 C      0   0   0     0.000000000000     0.00000000     0.00000000
 C      1   0   0     2.617460827770     0.00000000     0.00000000
 C      2   1   0     2.609524049958   120.33387166     0.00000000
 C      3   2   1     2.639988016921   120.66745383     0.00000000
 C      4   3   2     2.735902436492   121.73742609   179.99247754
 P      5   4   3     3.251580048852   123.83222498   180.00129550
 C      6   5   4     3.372319194799    93.85256138   180.00203796
 C      7   6   5     2.643249496940   124.36275245   179.99849513
 C      8   7   6     2.599565358058   120.19335617   179.99681574
 C      9   8   7     2.635055845312   120.44343937     0.00000000
 C     10   9   8     2.603527961011   120.52452008     0.00000000
 C     11  10   9     2.626638352177   119.18790131     0.00000000
 S     12  11  10     3.279545748839   123.18568278   179.99839372
 C      4   3   2     2.642893899867   118.34734701     0.00000000
 C     14   4   3     2.605249056231   120.79464432     0.00000000
 H      1   2   3     2.040359989683   120.20703654   179.99033929
 H      2   1   3     2.041174822477   120.03958220   180.00807260
 H      3   2   1     2.042299983763   119.80226112   180.00092985
 H      8   7   6     2.041573961419   118.95508436     0.00000000
 H      9   8   7     2.040324285023   119.95998590   179.99779393
 H     10   9   8     2.040031579513   119.78026958   179.99963503
 H     11  10   9     2.039783746897   121.12065728   180.00641727
 H     14   4   3     2.044053368311   118.87927471   179.99956939
 H     15  14   4     2.041014044514   119.74790299   180.00100506

---------------------
BASIS SET INFORMATION
---------------------
There are 4 groups of distinct atoms

 Group   1 Type C   : 19s6p3d2f contracted to 5s4p3d2f pattern {88111/3111/111/11}
 Group   2 Type P   : 42s17p3d2f contracted to 6s5p3d2f pattern {131313111/77111/111/11}
 Group   3 Type S   : 42s17p3d2f contracted to 6s5p3d2f pattern {131313111/77111/111/11}
 Group   4 Type H   : 5s2p1d contracted to 3s2p1d pattern {311/11/1}

Atom   0C    basis set group =>   1
Atom   1C    basis set group =>   1
Atom   2C    basis set group =>   1
Atom   3C    basis set group =>   1
Atom   4C    basis set group =>   1
Atom   5P    basis set group =>   2
Atom   6C    basis set group =>   1
Atom   7C    basis set group =>   1
Atom   8C    basis set group =>   1
Atom   9C    basis set group =>   1
Atom  10C    basis set group =>   1
Atom  11C    basis set group =>   1
Atom  12S    basis set group =>   3
Atom  13C    basis set group =>   1
Atom  14C    basis set group =>   1
Atom  15H    basis set group =>   4
Atom  16H    basis set group =>   4
Atom  17H    basis set group =>   4
Atom  18H    basis set group =>   4
Atom  19H    basis set group =>   4
Atom  20H    basis set group =>   4
Atom  21H    basis set group =>   4
Atom  22H    basis set group =>   4
Atom  23H    basis set group =>   4
---------------------------------
AUXILIARY/J BASIS SET INFORMATION
---------------------------------
There are 4 groups of distinct atoms

 Group   1 Type C   : 10s7p5d2f1g contracted to 10s7p5d2f1g pattern {1111111111/1111111/11111/11/1}
 Group   2 Type P   : 13s11p9d3f1g contracted to 13s11p9d3f1g pattern {1111111111111/11111111111/111111111/111/1}
 Group   3 Type S   : 13s11p9d3f1g contracted to 13s11p9d3f1g pattern {1111111111111/11111111111/111111111/111/1}
 Group   4 Type H   : 4s3p2d1f contracted to 4s3p2d1f pattern {1111/111/11/1}

Atom   0C    basis set group =>   1
Atom   1C    basis set group =>   1
Atom   2C    basis set group =>   1
Atom   3C    basis set group =>   1
Atom   4C    basis set group =>   1
Atom   5P    basis set group =>   2
Atom   6C    basis set group =>   1
Atom   7C    basis set group =>   1
Atom   8C    basis set group =>   1
Atom   9C    basis set group =>   1
Atom  10C    basis set group =>   1
Atom  11C    basis set group =>   1
Atom  12S    basis set group =>   3
Atom  13C    basis set group =>   1
Atom  14C    basis set group =>   1
Atom  15H    basis set group =>   4
Atom  16H    basis set group =>   4
Atom  17H    basis set group =>   4
Atom  18H    basis set group =>   4
Atom  19H    basis set group =>   4
Atom  20H    basis set group =>   4
Atom  21H    basis set group =>   4
Atom  22H    basis set group =>   4
Atom  23H    basis set group =>   4
---------------------------------
AUXILIARY/C BASIS SET INFORMATION
---------------------------------
There are 4 groups of distinct atoms

 Group   1 Type C   : 9s7p6d4f2g contracted to 9s7p6d4f2g pattern {111111111/1111111/111111/1111/11}
 Group   2 Type P   : 11s9p8d6f3g contracted to 11s9p8d6f3g pattern {11111111111/111111111/11111111/111111/111}
 Group   3 Type S   : 11s9p8d6f3g contracted to 11s9p8d6f3g pattern {11111111111/111111111/11111111/111111/111}
 Group   4 Type H   : 4s3p2d1f contracted to 4s3p2d1f pattern {1111/111/11/1}

Atom   0C    basis set group =>   1
Atom   1C    basis set group =>   1
Atom   2C    basis set group =>   1
Atom   3C    basis set group =>   1
Atom   4C    basis set group =>   1
Atom   5P    basis set group =>   2
Atom   6C    basis set group =>   1
Atom   7C    basis set group =>   1
Atom   8C    basis set group =>   1
Atom   9C    basis set group =>   1
Atom  10C    basis set group =>   1
Atom  11C    basis set group =>   1
Atom  12S    basis set group =>   3
Atom  13C    basis set group =>   1
Atom  14C    basis set group =>   1
Atom  15H    basis set group =>   4
Atom  16H    basis set group =>   4
Atom  17H    basis set group =>   4
Atom  18H    basis set group =>   4
Atom  19H    basis set group =>   4
Atom  20H    basis set group =>   4
Atom  21H    basis set group =>   4
Atom  22H    basis set group =>   4
Atom  23H    basis set group =>   4


           ************************************************************
           *        Program running with 4 parallel MPI-processes     *
           *              working on a common directory               *
           ************************************************************
------------------------------------------------------------------------------
                           ORCA GTO INTEGRAL CALCULATION
                           -- RI-GTO INTEGRALS CHOSEN --
------------------------------------------------------------------------------
------------------------------------------------------------------------------
                   ___                                                        
                  /   \      - P O W E R E D   B Y -                         
                 /     \                                                     
                 |  |  |   _    _      __       _____    __    __             
                 |  |  |  | |  | |    /  \     |  _  \  |  |  /  |          
                  \  \/   | |  | |   /    \    | | | |  |  | /  /          
                 / \  \   | |__| |  /  /\  \   | |_| |  |  |/  /          
                |  |  |   |  __  | /  /__\  \  |    /   |      \           
                |  |  |   | |  | | |   __   |  |    \   |  |\   \          
                \     /   | |  | | |  |  |  |  | |\  \  |  | \   \       
                 \___/    |_|  |_| |__|  |__|  |_| \__\ |__|  \__/        
                                                                              
                      - O R C A' S   B I G   F R I E N D -                    
                                      &                                       
                       - I N T E G R A L  F E E D E R -                       
                                                                              
 v1 FN, 2020, v2 2021                                                         
------------------------------------------------------------------------------


Reading SHARK input file pbe0-train-4.SHARKINP.tmp ... ok
----------------------
SHARK INTEGRAL PACKAGE
----------------------

Number of atoms                             ...     24
Number of basis functions                   ...    952
Number of shells                            ...    376
Maximum angular momentum                    ...      3
Integral batch strategy                     ... SHARK/LIBINT Hybrid
RI-J (if used) integral strategy            ... SPLIT-RIJ (Revised 2003 algorithm where possible)
Printlevel                                  ...      1
Contraction scheme used                     ... PARTIAL GENERAL contraction
Coulomb Range Separation                    ... NOT USED
Exchange Range Separation                   ... NOT USED
Finite Nucleus Model                        ... NOT USED
Auxiliary Coulomb fitting basis             ... AVAILABLE
   # of basis functions in Aux-J            ...   1539
   # of shells in Aux-J                     ...    489
   Maximum angular momentum in Aux-J        ...      4
Auxiliary J/K fitting basis                 ... NOT available
Auxiliary Correlation fitting basis         ... AVAILABLE
   # of basis functions in Aux-C            ...   1942
   # of shells in Aux-C                     ...    528
   Maximum angular momentum in Aux-C        ...      4
Auxiliary 'external' fitting basis          ... NOT available
Integral threshold                          ...     2.500000e-11
Primitive cut-off                           ...     2.500000e-12
Primitive pair pre-selection threshold      ...     2.500000e-12

Calculating pre-screening integrals         ... done (  0.2 sec) Dimension = 376
Calculating pre-screening integrals (ORCA)  ... done (  0.5 sec) Dimension = 268
Organizing shell pair data                  ... done (  0.6 sec)
Shell pair information
Total number of shell pairs                 ...     70876
Shell pairs after pre-screening             ...     47964
Total number of primitive shell pairs       ...     88476
Primitive shell pairs kept                  ...     55053
          la=0 lb=0:  10711 shell pairs
          la=1 lb=0:  12470 shell pairs
          la=1 lb=1:   3264 shell pairs
          la=2 lb=0:   7878 shell pairs
          la=2 lb=1:   3956 shell pairs
          la=2 lb=2:   1235 shell pairs
          la=3 lb=0:   4441 shell pairs
          la=3 lb=1:   2247 shell pairs
          la=3 lb=2:   1360 shell pairs
          la=3 lb=3:    402 shell pairs

Calculating one electron integrals          ... done (  0.1 sec)
Calculating RI/J V-Matrix + Cholesky decomp.... done (  1.5 sec)
Calculating RI/C V-Matrix + Cholesky decomp.... done (  0.3 sec)
Calculating Nuclear repulsion               ... done (  0.0 sec) ENN=   1078.649719388112 Eh

SHARK setup successfully completed in   6.1 seconds

Maximum memory used throughout the entire GTOINT-calculation: 85.2 MB


           ************************************************************
           *        Program running with 4 parallel MPI-processes     *
           *              working on a common directory               *
           ************************************************************
-------------------------------------------------------------------------------
                                 ORCA SCF
-------------------------------------------------------------------------------

------------
SCF SETTINGS
------------
Hamiltonian:
 Density Functional     Method          .... DFT(GTOs)
 Exchange Functional    Exchange        .... PBE
   PBE kappa parameter   XKappa         ....  0.804000
   PBE mue parameter    XMuePBE         ....  0.219520
 Correlation Functional Correlation     .... PBE
   PBE beta parameter  CBetaPBE         ....  0.066725
 LDA part of GGA corr.  LDAOpt          .... PW91-LDA
 Gradients option       PostSCFGGA      .... off
 Hybrid DFT is turned on
   Fraction HF Exchange ScalHFX         ....  0.250000
   Scaling of DF-GGA-X  ScalDFX         ....  0.750000
   Scaling of DF-GGA-C  ScalDFC         ....  1.000000
   Scaling of DF-LDA-C  ScalLDAC        ....  1.000000
   Perturbative correction              ....  0.000000
   Density functional embedding theory  .... OFF
   NL short-range parameter             ....  6.900000
 RI-approximation to the Coulomb term is turned on
   Number of AuxJ basis functions       .... 1539
   RIJ-COSX (HFX calculated with COS-X)).... on


General Settings:
 Integral files         IntName         .... pbe0-train-4
 Hartree-Fock type      HFTyp           .... RHF
 Total Charge           Charge          ....    0
 Multiplicity           Mult            ....    1
 Number of Electrons    NEL             ....  118
 Basis Dimension        Dim             ....  824
 Nuclear Repulsion      ENuc            ....   1078.6497193881 Eh

Convergence Acceleration:
 DIIS                   CNVDIIS         .... on
   Start iteration      DIISMaxIt       ....    12
   Startup error        DIISStart       ....  0.200000
   # of expansion vecs  DIISMaxEq       ....     5
   Bias factor          DIISBfac        ....   1.050
   Max. coefficient     DIISMaxC        ....  10.000
 Trust-Rad. Augm. Hess. CNVTRAH         .... auto
   Auto Start mean grad. ratio tolernc. ....  1.125000
   Auto Start start iteration           ....    20
   Auto Start num. interpolation iter.  ....    10
   Max. Number of Micro iterations      ....    16
   Max. Number of Macro iterations      .... Maxiter - #DIIS iter
   Number of Davidson start vectors     ....     2
   Converg. threshold I  (grad. norm)   ....   1.000e-05
   Converg. threshold II (energy diff.) ....   1.000e-08
   Grad. Scal. Fac. for Micro threshold ....   0.100
   Minimum threshold for Micro iter.    ....   0.010
   NR start threshold (gradient norm)   ....   0.001
   Initial trust radius                 ....   0.400
   Minimum AH scaling param. (alpha)    ....   1.000
   Maximum AH scaling param. (alpha)    .... 1000.000
   Orbital update algorithm             .... Taylor
   White noise on init. David. guess    .... on
   Maximum white noise                  ....   0.010
   Quad. conv. algorithm                .... NR
 SOSCF                  CNVSOSCF        .... on
   Start iteration      SOSCFMaxIt      ....   150
   Startup grad/error   SOSCFStart      ....  0.003300
 Level Shifting         CNVShift        .... on
   Level shift para.    LevelShift      ....    0.2500
   Turn off err/grad.   ShiftErr        ....    0.0010
 Zerner damping         CNVZerner       .... off
 Static damping         CNVDamp         .... on
   Fraction old density DampFac         ....    0.7000
   Max. Damping (<1)    DampMax         ....    0.9800
   Min. Damping (>=0)   DampMin         ....    0.0000
   Turn off err/grad.   DampErr         ....    0.1000
 Fernandez-Rico         CNVRico         .... off

SCF Procedure:
 Maximum # iterations   MaxIter         ....   125
 SCF integral mode      SCFMode         .... Direct
   Integral package                     .... SHARK and LIBINT hybrid scheme
 Reset frequency        DirectResetFreq ....    20
 Integral Threshold     Thresh          ....  2.500e-11 Eh
 Primitive CutOff       TCut            ....  2.500e-12 Eh

Convergence Tolerance:
 Convergence Check Mode ConvCheckMode   .... Total+1el-Energy
 Convergence forced     ConvForced      .... 0
 Energy Change          TolE            ....  1.000e-08 Eh
 1-El. energy change                    ....  1.000e-05 Eh
 Orbital Gradient       TolG            ....  1.000e-05
 Orbital Rotation angle TolX            ....  1.000e-05
 DIIS Error             TolErr          ....  5.000e-07


Diagonalization of the overlap matrix:
Smallest eigenvalue                        ... 9.689e-07
Time for diagonalization                   ...    0.236 sec
Threshold for overlap eigenvalues          ... 1.000e-08
Number of eigenvalues below threshold      ... 0
Time for construction of square roots      ...    0.143 sec
Total time needed                          ...    0.382 sec

Time for model grid setup =    0.464 sec

------------------------------
INITIAL GUESS: MODEL POTENTIAL
------------------------------
Loading Hartree-Fock densities                     ... done
Calculating cut-offs                               ... done
Initializing the effective Hamiltonian             ... done
Setting up the integral package (SHARK)            ... done
Starting the Coulomb interaction                   ... done (   1.4 sec)
Reading the grid                                   ... done
Mapping shells                                     ... done
Starting the XC term evaluation                    ... done (   1.3 sec)
  promolecular density results
     # of electrons  =    117.995472245
     EX              =   -116.624389956
     EC              =     -4.118119364
     EX+EC           =   -120.742509320
Transforming the Hamiltonian                       ... done (   0.1 sec)
Diagonalizing the Hamiltonian                      ... done (   0.3 sec)
Back transforming the eigenvectors                 ... done (   0.1 sec)
Now organizing SCF variables                       ... done
                      ------------------
                      INITIAL GUESS DONE (   3.6 sec)
                      ------------------
-------------------
DFT GRID GENERATION
-------------------

General Integration Accuracy     IntAcc      ... 4.388
Radial Grid Type                 RadialGrid  ... OptM3 with GC (2021)
Angular Grid (max. ang.)         AngularGrid ... 4 (Lebedev-302)
Angular grid pruning method      GridPruning ... 4 (adaptive)
Weight generation scheme         WeightScheme... Becke
Basis function cutoff            BFCut       ... 1.0000e-11
Integration weight cutoff        WCut        ... 1.0000e-14
Angular grids for H and He will be reduced by one unit
Partially contracted basis set               ... off
Rotationally invariant grid construction     ... off

Total number of grid points                  ...   125109
Total number of batches                      ...     1965
Average number of points per batch           ...       63
Average number of grid points per atom       ...     5213
Time for grid setup =    1.592 sec

--------------------
COSX GRID GENERATION
--------------------

GRIDX 1
-------
General Integration Accuracy     IntAcc      ... 3.816
Radial Grid Type                 RadialGrid  ... OptM3 with GC (2021)
Angular Grid (max. ang.)         AngularGrid ... 1 (Lebedev-50)
Angular grid pruning method      GridPruning ... 4 (adaptive)
Weight generation scheme         WeightScheme... Becke
Basis function cutoff            BFCut       ... 1.0000e-11
Integration weight cutoff        WCut        ... 1.0000e-14
Angular grids for H and He will be reduced by one unit
Partially contracted basis set               ... on
Rotationally invariant grid construction     ... off

Total number of grid points                  ...    15745
Total number of batches                      ...      257
Average number of points per batch           ...       61
Average number of grid points per atom       ...      656
UseSFitting                                  ... on

GRIDX 2
-------
General Integration Accuracy     IntAcc      ... 4.020
Radial Grid Type                 RadialGrid  ... OptM3 with GC (2021)
Angular Grid (max. ang.)         AngularGrid ... 2 (Lebedev-110)
Angular grid pruning method      GridPruning ... 4 (adaptive)
Weight generation scheme         WeightScheme... Becke
Basis function cutoff            BFCut       ... 1.0000e-11
Integration weight cutoff        WCut        ... 1.0000e-14
Angular grids for H and He will be reduced by one unit
Partially contracted basis set               ... on
Rotationally invariant grid construction     ... off

Total number of grid points                  ...    37919
Total number of batches                      ...      605
Average number of points per batch           ...       62
Average number of grid points per atom       ...     1580
UseSFitting                                  ... on

GRIDX 3
-------
General Integration Accuracy     IntAcc      ... 4.338
Radial Grid Type                 RadialGrid  ... OptM3 with GC (2021)
Angular Grid (max. ang.)         AngularGrid ... 3 (Lebedev-194)
Angular grid pruning method      GridPruning ... 4 (adaptive)
Weight generation scheme         WeightScheme... Becke
Basis function cutoff            BFCut       ... 1.0000e-11
Integration weight cutoff        WCut        ... 1.0000e-14
Angular grids for H and He will be reduced by one unit
Partially contracted basis set               ... on
Rotationally invariant grid construction     ... off

Total number of grid points                  ...    83164
Total number of batches                      ...     1311
Average number of points per batch           ...       63
Average number of grid points per atom       ...     3465
UseSFitting                                  ... on

Time for X-Grid setup             =    4.249 sec


--------------------
CPCM SOLVATION MODEL
--------------------
CPCM parameters:
  Epsilon                                         ...      35.6880
  Refrac                                          ...       1.3442
  Rsolv                                           ...       1.3000
  Surface type                                    ... GAUSSIAN VDW
  Epsilon function type                           ...         CPCM
Solvent:                                     ... ACETONITRILE
SMD-CDS solvent descriptors:
  Soln                                       ...    1.3442
  Soln25                                     ...    1.3416
  Sola                                       ...    0.0700
  Solb                                       ...    0.3200
  Solg                                       ...   41.2500
  Solc                                       ...    0.0000
  Solh                                       ...    0.0000
Radii:
 Radius for C  used is    3.4960 Bohr (=   1.8500 Ang.)
 Radius for P  used is    4.0062 Bohr (=   2.1200 Ang.)
 Radius for S  used is    4.7054 Bohr (=   2.4900 Ang.)
 Radius for H  used is    2.2677 Bohr (=   1.2000 Ang.)
Calculating surface                               ...        done! (  0.0s)
GEPOL surface points                              ...         1337
GEPOL Volume                                      ...    1598.9572
GEPOL Surface-area                                ...     850.5654
Calculating surface distance matrix               ...        done! (  0.0s)
Performing Cholesky decomposition & store         ...        done! (  0.1s)
Overall time for CPCM initialization              ...                 0.1s
 re-compute Schwartz prescreening matrix in partically contracted basis (1) ...done (   0.199 sec)
--------------
SCF ITERATIONS
--------------
ITER       Energy         Delta-E        Max-DP      RMS-DP      [F,P]     Damp
               ***  Starting incremental Fock matrix formation  ***
  0  -1239.3682479015   0.000000000000 0.18262932  0.00121667  0.1420642 0.7000
  1  -1239.5166716848  -0.148423783244 0.13130301  0.00089367  0.0762813 0.7000
                               ***Turning on DIIS***
  2  -1239.5822000504  -0.065528365594 0.26996268  0.00190306  0.0327466 0.0000
  3  -1239.6732078631  -0.091007812685 0.04416169  0.00038439  0.0429537 0.0000
  4  -1239.6998969612  -0.026689098172 0.01675383  0.00016234  0.0087707 0.0000
                      *** Initiating the SOSCF procedure ***
                           *** Shutting down DIIS ***
                      *** Re-Reading the Fockian *** 
                      *** Removing any level shift *** 
ITER      Energy       Delta-E        Grad      Rot      Max-DP    RMS-DP
  5  -1239.70098237  -0.0010854125  0.000700  0.000700  0.006411  0.000059
               *** Restarting incremental Fock matrix formation ***
  6  -1239.70105289  -0.0000705194  0.000579  0.002711  0.018019  0.000366
  7  -1239.70106251  -0.0000096149  0.000450  0.001489  0.004947  0.000101
  8  -1239.70107694  -0.0000144285  0.000131  0.000293  0.005084  0.000100
  9  -1239.70107738  -0.0000004456  0.000055  0.000156  0.000949  0.000013
 10  -1239.70107805  -0.0000006667  0.000019  0.000130  0.001955  0.000022
 11  -1239.70107807  -0.0000000205  0.000011  0.000023  0.000677  0.000008
 12  -1239.70107810  -0.0000000350  0.000005  0.000033  0.001637  0.000018
 13  -1239.70107815  -0.0000000446  0.000006  0.000020  0.001025  0.000011
                  ***Gradient check signals convergence***
              ***Rediagonalizing the Fockian in SOSCF/NRSCF***

               *****************************************************
               *                     SUCCESS                       *
               *           SCF CONVERGED AFTER  14 CYCLES          *
               *****************************************************

Old exchange energy                            =    -29.581417932 Eh
New exchange energy                            =    -29.581305890 Eh
Exchange energy change after final integration =      0.000112042 Eh
Total energy after final integration           =  -1239.700966141 Eh
Final COS-X integration done in                =    73.314 sec

SMD CDS free energy correction energy :                -2.96894     Kcal/mol
Total Energy after SMD CDS correction =             -1239.705697454 Eh

----------------
TOTAL SCF ENERGY
----------------

Total Energy       :        -1239.70569745 Eh          -33734.10704 eV

Components:
Nuclear Repulsion  :         1078.64971939 Eh           29351.55107 eV
Electronic Energy  :        -2318.35541684 Eh          -63085.65811 eV
One Electron Energy:        -3841.67389619 Eh         -104537.26129 eV
Two Electron Energy:         1523.31847935 Eh           41451.60318 eV
Max COSX asymmetry :            0.00002608 Eh               0.00071 eV
CPCM Dielectric    :           -0.01216125 Eh              -0.33092 eV
SMD CDS (Gcds)     :           -0.00473131 Eh              -0.12875 eV

Virial components:
Potential Energy   :        -2474.70966459 Eh          -67340.27349 eV
Kinetic Energy     :         1235.00396714 Eh           33606.16645 eV
Virial Ratio       :            2.00380706


DFT components:
N(Alpha)           :       58.999967053692 electrons
N(Beta)            :       58.999967053692 electrons
N(Total)           :      117.999934107384 electrons
E(X)               :      -88.402661354583 Eh       
E(C)               :       -4.119468868659 Eh       
E(XC)              :      -92.522130223242 Eh       
DFET-embed. en.    :        0.000000000000 Eh       
CPCM Solvation Model Properties:
Surface-charge          :           -0.05369805
Charge-correction       :            0.00039744 Eh               0.01081 eV
Free-energy (cav+disp)  :           -0.00473131 Eh              -0.12875 eV

---------------
SCF CONVERGENCE
---------------

  Last Energy change         ...   -3.4263e-08  Tolerance :   1.0000e-08
  Last MAX-Density change    ...    4.8850e-15  Tolerance :   1.0000e-07
  Last RMS-Density change    ...    1.6592e-17  Tolerance :   5.0000e-09
  Last Orbital Gradient      ...    1.4806e-06  Tolerance :   1.0000e-05
  Last Orbital Rotation      ...    7.0071e-06  Tolerance :   1.0000e-05

             **** THE GBW FILE WAS UPDATED (pbe0-train-4.gbw) ****
             **** DENSITY pbe0-train-4.scfp WAS UPDATED ****
             **** ENERGY FILE WAS UPDATED (pbe0-train-4.en.tmp) ****
             **** THE GBW FILE WAS UPDATED (pbe0-train-4.gbw) ****
             **** DENSITY pbe0-train-4.scfp WAS UPDATED ****
----------------
ORBITAL ENERGIES
----------------

  NO   OCC          E(Eh)            E(eV) 
   0   2.0000     -89.090517     -2424.2762 
   1   2.0000     -77.227155     -2101.4577 
   2   2.0000     -10.286977      -279.9229 
   3   2.0000     -10.275023      -279.5976 
   4   2.0000     -10.253884      -279.0224 
   5   2.0000     -10.249507      -278.9033 
   6   2.0000     -10.238475      -278.6031 
   7   2.0000     -10.235969      -278.5349 
   8   2.0000     -10.235096      -278.5111 
   9   2.0000     -10.233879      -278.4780 
  10   2.0000     -10.233853      -278.4773 
  11   2.0000     -10.231535      -278.4142 
  12   2.0000     -10.231089      -278.4021 
  13   2.0000     -10.230567      -278.3879 
  14   2.0000     -10.230236      -278.3789 
  15   2.0000      -8.047469      -218.9828 
  16   2.0000      -6.607575      -179.8013 
  17   2.0000      -5.984380      -162.8433 
  18   2.0000      -5.980806      -162.7460 
  19   2.0000      -5.978001      -162.6697 
  20   2.0000      -4.743640      -129.0810 
  21   2.0000      -4.743005      -129.0637 
  22   2.0000      -4.740127      -128.9854 
  23   2.0000      -0.919934       -25.0327 
  24   2.0000      -0.899633       -24.4803 
  25   2.0000      -0.856899       -23.3174 
  26   2.0000      -0.803513       -21.8647 
  27   2.0000      -0.789672       -21.4881 
  28   2.0000      -0.780019       -21.2254 
  29   2.0000      -0.746441       -20.3117 
  30   2.0000      -0.708297       -19.2737 
  31   2.0000      -0.653190       -17.7742 
  32   2.0000      -0.637294       -17.3417 
  33   2.0000      -0.619378       -16.8541 
  34   2.0000      -0.595508       -16.2046 
  35   2.0000      -0.575163       -15.6510 
  36   2.0000      -0.532162       -14.4809 
  37   2.0000      -0.501372       -13.6430 
  38   2.0000      -0.492701       -13.4071 
  39   2.0000      -0.487944       -13.2776 
  40   2.0000      -0.460593       -12.5334 
  41   2.0000      -0.458786       -12.4842 
  42   2.0000      -0.442161       -12.0318 
  43   2.0000      -0.434035       -11.8107 
  44   2.0000      -0.429560       -11.6889 
  45   2.0000      -0.422737       -11.5032 
  46   2.0000      -0.404793       -11.0150 
  47   2.0000      -0.397390       -10.8135 
  48   2.0000      -0.371989       -10.1223 
  49   2.0000      -0.364183        -9.9099 
  50   2.0000      -0.357003        -9.7145 
  51   2.0000      -0.356617        -9.7041 
  52   2.0000      -0.345093        -9.3905 
  53   2.0000      -0.307360        -8.3637 
  54   2.0000      -0.293285        -7.9807 
  55   2.0000      -0.291875        -7.9423 
  56   2.0000      -0.277347        -7.5470 
  57   2.0000      -0.249216        -6.7815 
  58   2.0000      -0.224346        -6.1048 
  59   0.0000      -0.079875        -2.1735 
  60   0.0000      -0.022172        -0.6033 
  61   0.0000      -0.017371        -0.4727 
  62   0.0000      -0.003775        -0.1027 
  63   0.0000      -0.003308        -0.0900 
  64   0.0000       0.009170         0.2495 
  65   0.0000       0.016412         0.4466 
  66   0.0000       0.018788         0.5112 
  67   0.0000       0.021753         0.5919 
  68   0.0000       0.026146         0.7115 
  69   0.0000       0.030248         0.8231 
  70   0.0000       0.037453         1.0191 
  71   0.0000       0.041495         1.1291 
  72   0.0000       0.047812         1.3010 
  73   0.0000       0.049476         1.3463 
  74   0.0000       0.052124         1.4184 
  75   0.0000       0.055903         1.5212 
  76   0.0000       0.058239         1.5848 
  77   0.0000       0.060002         1.6327 
  78   0.0000       0.068230         1.8566 
  79   0.0000       0.072598         1.9755 
  80   0.0000       0.079204         2.1552 
  81   0.0000       0.080775         2.1980 
  82   0.0000       0.081654         2.2219 
  83   0.0000       0.085763         2.3337 
  84   0.0000       0.100310         2.7296 
  85   0.0000       0.100656         2.7390 
  86   0.0000       0.103767         2.8236 
  87   0.0000       0.103774         2.8238 
  88   0.0000       0.107199         2.9170 
  89   0.0000       0.108064         2.9406 
  90   0.0000       0.112722         3.0673 
  91   0.0000       0.118305         3.2192 
  92   0.0000       0.124762         3.3949 
  93   0.0000       0.128856         3.5063 
  94   0.0000       0.129845         3.5333 
  95   0.0000       0.132436         3.6038 
  96   0.0000       0.133017         3.6196 
  97   0.0000       0.137110         3.7309 
  98   0.0000       0.140592         3.8257 
  99   0.0000       0.144434         3.9302 
 100   0.0000       0.144464         3.9311 
 101   0.0000       0.146739         3.9930 
 102   0.0000       0.147416         4.0114 
 103   0.0000       0.151318         4.1176 
 104   0.0000       0.152012         4.1364 
 105   0.0000       0.153342         4.1727 
 106   0.0000       0.157772         4.2932 
 107   0.0000       0.163886         4.4596 
 108   0.0000       0.165983         4.5166 
 109   0.0000       0.169222         4.6048 
 110   0.0000       0.172219         4.6863 
 111   0.0000       0.173851         4.7307 
 112   0.0000       0.173927         4.7328 
 113   0.0000       0.176584         4.8051 
 114   0.0000       0.177900         4.8409 
 115   0.0000       0.184210         5.0126 
 116   0.0000       0.186317         5.0700 
 117   0.0000       0.187103         5.0913 
 118   0.0000       0.187817         5.1108 
 119   0.0000       0.193749         5.2722 
 120   0.0000       0.196773         5.3545 
 121   0.0000       0.205381         5.5887 
 122   0.0000       0.206715         5.6250 
 123   0.0000       0.207727         5.6525 
 124   0.0000       0.211620         5.7585 
 125   0.0000       0.218259         5.9391 
 126   0.0000       0.222382         6.0513 
 127   0.0000       0.223715         6.0876 
 128   0.0000       0.230444         6.2707 
 129   0.0000       0.236096         6.4245 
 130   0.0000       0.239535         6.5181 
 131   0.0000       0.244910         6.6644 
 132   0.0000       0.247645         6.7388 
 133   0.0000       0.253911         6.9093 
 134   0.0000       0.254932         6.9370 
 135   0.0000       0.255856         6.9622 
 136   0.0000       0.257678         7.0118 
 137   0.0000       0.261913         7.1270 
 138   0.0000       0.265956         7.2370 
 139   0.0000       0.266423         7.2497 
 140   0.0000       0.270901         7.3716 
 141   0.0000       0.277567         7.5530 
 142   0.0000       0.284674         7.7464 
 143   0.0000       0.286503         7.7961 
 144   0.0000       0.289185         7.8691 
 145   0.0000       0.290136         7.8950 
 146   0.0000       0.294141         8.0040 
 147   0.0000       0.295145         8.0313 
 148   0.0000       0.296634         8.0718 
 149   0.0000       0.303483         8.2582 
 150   0.0000       0.303756         8.2656 
 151   0.0000       0.311374         8.4729 
 152   0.0000       0.316918         8.6238 
 153   0.0000       0.318469         8.6660 
 154   0.0000       0.325249         8.8505 
 155   0.0000       0.328790         8.9468 
 156   0.0000       0.333857         9.0847 
 157   0.0000       0.334979         9.1153 
 158   0.0000       0.339296         9.2327 
 159   0.0000       0.343586         9.3495 
 160   0.0000       0.349203         9.5023 
 161   0.0000       0.350026         9.5247 
 162   0.0000       0.352293         9.5864 
 163   0.0000       0.361085         9.8256 
 164   0.0000       0.370325        10.0771 
 165   0.0000       0.370975        10.0947 
 166   0.0000       0.374504        10.1908 
 167   0.0000       0.374697        10.1960 
 168   0.0000       0.378122        10.2892 
 169   0.0000       0.384370        10.4592 
 170   0.0000       0.391948        10.6655 
 171   0.0000       0.393881        10.7181 
 172   0.0000       0.394971        10.7477 
 173   0.0000       0.399080        10.8595 
 174   0.0000       0.401660        10.9297 
 175   0.0000       0.405475        11.0335 
 176   0.0000       0.407307        11.0834 
 177   0.0000       0.408214        11.1081 
 178   0.0000       0.411905        11.2085 
 179   0.0000       0.412572        11.2267 
 180   0.0000       0.416260        11.3270 
 181   0.0000       0.418984        11.4011 
 182   0.0000       0.421859        11.4794 
 183   0.0000       0.425783        11.5862 
 184   0.0000       0.428674        11.6648 
 185   0.0000       0.429234        11.6800 
 186   0.0000       0.431834        11.7508 
 187   0.0000       0.439385        11.9563 
 188   0.0000       0.441597        12.0165 
 189   0.0000       0.445704        12.1282 
 190   0.0000       0.448003        12.1908 
 191   0.0000       0.450012        12.2455 
 192   0.0000       0.450438        12.2570 
 193   0.0000       0.461969        12.5708 
 194   0.0000       0.466060        12.6821 
 195   0.0000       0.466233        12.6869 
 196   0.0000       0.473237        12.8774 
 197   0.0000       0.476594        12.9688 
 198   0.0000       0.479280        13.0419 
 199   0.0000       0.483214        13.1489 
 200   0.0000       0.491748        13.3811 
 201   0.0000       0.494038        13.4435 
 202   0.0000       0.496841        13.5197 
 203   0.0000       0.501602        13.6493 
 204   0.0000       0.503442        13.6994 
 205   0.0000       0.505531        13.7562 
 206   0.0000       0.511210        13.9107 
 207   0.0000       0.514942        14.0123 
 208   0.0000       0.518297        14.1036 
 209   0.0000       0.522634        14.2216 
 210   0.0000       0.528826        14.3901 
 211   0.0000       0.535881        14.5821 
 212   0.0000       0.538083        14.6420 
 213   0.0000       0.549265        14.9463 
 214   0.0000       0.551292        15.0014 
 215   0.0000       0.562700        15.3118 
 216   0.0000       0.565968        15.4008 
 217   0.0000       0.583915        15.8891 
 218   0.0000       0.590016        16.0552 
 219   0.0000       0.591350        16.0914 
 220   0.0000       0.595930        16.2161 
 221   0.0000       0.596788        16.2394 
 222   0.0000       0.610975        16.6255 
 223   0.0000       0.617568        16.8049 
 224   0.0000       0.622859        16.9488 
 225   0.0000       0.630951        17.1690 
 226   0.0000       0.633215        17.2307 
 227   0.0000       0.639082        17.3903 
 228   0.0000       0.642474        17.4826 
 229   0.0000       0.649830        17.6828 
 230   0.0000       0.651030        17.7154 
 231   0.0000       0.654456        17.8086 
 232   0.0000       0.655969        17.8498 
 233   0.0000       0.659819        17.9546 
 234   0.0000       0.662256        18.0209 
 235   0.0000       0.671595        18.2750 
 236   0.0000       0.673008        18.3135 
 237   0.0000       0.677166        18.4266 
 238   0.0000       0.679276        18.4840 
 239   0.0000       0.689320        18.7574 
 240   0.0000       0.691879        18.8270 
 241   0.0000       0.695784        18.9333 
 242   0.0000       0.697238        18.9728 
 243   0.0000       0.704464        19.1694 
 244   0.0000       0.706995        19.2383 
 245   0.0000       0.709701        19.3119 
 246   0.0000       0.712575        19.3901 
 247   0.0000       0.717654        19.5284 
 248   0.0000       0.720601        19.6086 
 249   0.0000       0.722190        19.6518 
 250   0.0000       0.734672        19.9914 
 251   0.0000       0.736789        20.0490 
 252   0.0000       0.740403        20.1474 
 253   0.0000       0.743363        20.2279 
 254   0.0000       0.750238        20.4150 
 255   0.0000       0.759153        20.6576 
 256   0.0000       0.759517        20.6675 
 257   0.0000       0.763631        20.7794 
 258   0.0000       0.764266        20.7967 
 259   0.0000       0.768721        20.9179 
 260   0.0000       0.771477        20.9930 
 261   0.0000       0.772598        21.0235 
 262   0.0000       0.776281        21.1237 
 263   0.0000       0.779948        21.2235 
 264   0.0000       0.784759        21.3544 
 265   0.0000       0.785358        21.3707 
 266   0.0000       0.791162        21.5286 
 267   0.0000       0.798409        21.7258 
 268   0.0000       0.800442        21.7811 
 269   0.0000       0.802552        21.8386 
 270   0.0000       0.812089        22.0981 
 271   0.0000       0.812989        22.1225 
 272   0.0000       0.814100        22.1528 
 273   0.0000       0.825122        22.4527 
 274   0.0000       0.834524        22.7085 
 275   0.0000       0.836675        22.7671 
 276   0.0000       0.842364        22.9219 
 277   0.0000       0.843266        22.9464 
 278   0.0000       0.845355        23.0033 
 279   0.0000       0.854448        23.2507 
 280   0.0000       0.854711        23.2579 
 281   0.0000       0.859303        23.3828 
 282   0.0000       0.870991        23.7009 
 283   0.0000       0.877605        23.8809 
 284   0.0000       0.880351        23.9556 
 285   0.0000       0.884109        24.0578 
 286   0.0000       0.887563        24.1518 
 287   0.0000       0.887921        24.1616 
 288   0.0000       0.889377        24.2012 
 289   0.0000       0.890680        24.2366 
 290   0.0000       0.901163        24.5219 
 291   0.0000       0.903881        24.5959 
 292   0.0000       0.906995        24.6806 
 293   0.0000       0.916375        24.9358 
 294   0.0000       0.917347        24.9623 
 295   0.0000       0.928838        25.2750 
 296   0.0000       0.929422        25.2909 
 297   0.0000       0.934365        25.4254 
 298   0.0000       0.937318        25.5057 
 299   0.0000       0.937656        25.5149 
 300   0.0000       0.942239        25.6396 
 301   0.0000       0.945766        25.7356 
 302   0.0000       0.958884        26.0925 
 303   0.0000       0.961680        26.1686 
 304   0.0000       0.962935        26.2028 
 305   0.0000       0.973362        26.4865 
 306   0.0000       0.974963        26.5301 
[...]
Integral handling              ... AO integral Direct
Max. core memory used          ... 4000 MB
Reference state                ... RHF
Generation of triplets         ... off
Follow IRoot                   ... off
Number of operators            ... 1
Orbital ranges used for CIS calculation:
 Operator 0:  Orbitals  23... 58  to  59...823
XAS localization array:
 Operator 0:  Orbitals  -1... -1

-------------------
XC-INTEGRATION GRID
-------------------

General Integration Accuracy     IntAcc      ... 3.467
Radial Grid Type                 RadialGrid  ... OptM3 with GC (2021)
Angular Grid (max. ang.)         AngularGrid ... 1 (Lebedev-50)
Angular grid pruning method      GridPruning ... 4 (adaptive)
Weight generation scheme         WeightScheme... Becke
Basis function cutoff            BFCut       ... 1.0000e-11
Integration weight cutoff        WCut        ... 1.0000e-14
Angular grids for H and He will be reduced by one unit
Partially contracted basis set               ... off
Rotationally invariant grid construction     ... off

Total number of grid points                  ...    18833
Total number of batches                      ...      306
Average number of points per batch           ...       61
Average number of grid points per atom       ...      785

---------------------
COSX-INTEGRATION GRID
---------------------

General Integration Accuracy     IntAcc      ... 3.067
Radial Grid Type                 RadialGrid  ... OptM3 with GC (2021)
Angular Grid (max. ang.)         AngularGrid ... 1 (Lebedev-50)
Angular grid pruning method      GridPruning ... 4 (adaptive)
Weight generation scheme         WeightScheme... Becke
Basis function cutoff            BFCut       ... 1.0000e-11
Integration weight cutoff        WCut        ... 1.0000e-14
Angular grids for H and He will be reduced by one unit
Partially contracted basis set               ... on
Rotationally invariant grid construction     ... off

Total number of grid points                  ...     8530
Total number of batches                      ...      145
Average number of points per batch           ...       58
Average number of grid points per atom       ...      355

---------------
TD-DFT XC SETUP
---------------

DFT calculation                         ... on
Name of the grid file                   ... pbe0-train-4_job2.grid_cis.tmp
Exchange functional (TD-DFT)            ... PBE
   PBE kappa parameter  XKappa (TD-DFT) ...  0.804000
   PBE mue parameter   XMuePBE (TD-DFT) ...  0.219520
Correlation functional (TD-DFT)         ... PBE
   PBE beta parameter CBetaPBE (TD-DFT) ...  0.066725
 LDA part of GGA corr.  LDAOpt (TD-DFT) ... PW91-LDA
Hybrid DFT                              ... on
   Exchange mixing (TD-DFT)             ...  0.250
   GGA exch. scaling (TD-DFT)           ...  0.750
   GGA corr. scaling (TD-DFT)           ...  1.000

Building densities             ... done
Calculating rho(r) on the grid ... done
Building xc-kernel on the grid ... done
                    *** TD-DFT CALCULATION INITIALIZED ***

---------------------------------
    LR-CPCM (non-equilibrium)
---------------------------------

Setting up LR-CPCM             ... done

------------------------
DAVIDSON-DIAGONALIZATION
------------------------

Dimension of the eigenvalue problem            ...  27540
Number of roots to be determined               ...     10
Maximum size of the expansion space            ...     70
Maximum number of iterations                   ...    100
Convergence tolerance for the residual         ...    1.000e-06
Convergence tolerance for the energies         ...    1.000e-06
Orthogonality tolerance                        ...    1.000e-14
Level Shift                                    ...    0.000e+00
Constructing the preconditioner                ... o.k.
Building the initial guess                     ... o.k.
Number of trial vectors determined             ...     70


                       ****Iteration    0****

   Memory handling for direct AO based CIS:
   Memory per vector needed      ...    31 MB
   Memory needed                 ...   932 MB
   Memory available              ...  4000 MB
   Number of vectors per batch   ...   128
   Number of batches             ...     1
   Time for densities:            0.372
   Time for RI-J (Direct):       11.315
   Time for K (COSX):            62.014
   Time for XC-Integration:      31.029
   Time for LR-CPCM terms:       12.454
   Time for Sigma-Completion:     0.281
   Size of expansion space: 30
   Lowest Energy          :     0.150870813874
   Maximum Energy change  :     0.204298810028 (vector 9)
   Maximum residual norm  :     0.009646417403

                       ****Iteration    1****
   Time for densities:            0.120
   Time for RI-J (Direct):        6.480
   Time for K (COSX):            22.918
   Time for XC-Integration:      10.856
   Time for LR-CPCM terms:        5.743
   Time for Sigma-Completion:     0.097
   Size of expansion space: 40
   Lowest Energy          :     0.136220355704
   Maximum Energy change  :     0.014650458170 (vector 0)
   Maximum residual norm  :     0.001167832065

                       ****Iteration    2****
   Time for densities:            0.120
   Time for RI-J (Direct):        6.495
   Time for K (COSX):            22.916
   Time for XC-Integration:      10.913
   Time for LR-CPCM terms:        5.753
   Time for Sigma-Completion:     0.094
   Size of expansion space: 50
   Lowest Energy          :     0.135799150219
   Maximum Energy change  :     0.002270404946 (vector 9)
   Maximum residual norm  :     0.000117034089

                       ****Iteration    3****
   Time for densities:            0.120
   Time for RI-J (Direct):        6.487
   Time for K (COSX):            22.949
   Time for XC-Integration:      10.928
   Time for LR-CPCM terms:        5.761
   Time for Sigma-Completion:     0.094
   Size of expansion space: 60
   Lowest Energy          :     0.135770053479
   Maximum Energy change  :     0.000202811887 (vector 9)
   Maximum residual norm  :     0.000014837671

                       ****Iteration    4****
   Time for densities:            0.121
   Time for RI-J (Direct):        6.502
   Time for K (COSX):            23.004
   Time for XC-Integration:      11.004
   Time for LR-CPCM terms:        5.765
   Time for Sigma-Completion:     0.096
   Size of expansion space: 70
   Lowest Energy          :     0.135768781237
   Maximum Energy change  :     0.000050356716 (vector 9)
   Maximum residual norm  :     0.000008060926
   Rebuilding the expansion space

                       ****Iteration    5****
   Time for densities:            0.243
   Time for RI-J (Direct):        8.733
   Time for K (COSX):            42.620
   Time for XC-Integration:      21.401
   Time for LR-CPCM terms:        9.139
   Time for Sigma-Completion:     0.193
   Size of expansion space: 20
   Lowest Energy          :     0.135768263484
   Maximum Energy change  :     0.000012654867 (vector 9)
   Maximum residual norm  :     0.000000919034

      *** CONVERGENCE OF RESIDUAL NORM REACHED ***

Storing the converged CI vectors               ... pbe0-train-4_job2.cis1

                 *** DAVIDSON DONE ***

Total time for solving the CIS problem:   386.561sec

------------------------------------
TD-DFT/TDA EXCITED STATES (SINGLETS)
------------------------------------

the weight of the individual excitations are printed if larger than 1.0e-02

STATE  1:  E=   0.135768 au      3.694 eV    29797.7 cm**-1 <S**2> =   0.000000
    58a ->  59a  :     0.940282 (c= -0.96968164)

STATE  2:  E=   0.149046 au      4.056 eV    32711.9 cm**-1 <S**2> =   0.000000
    57a ->  59a  :     0.919165 (c=  0.95873089)
    58a ->  60a  :     0.028280 (c= -0.16816587)
    58a ->  62a  :     0.020398 (c=  0.14282312)

STATE  3:  E=   0.164859 au      4.486 eV    36182.3 cm**-1 <S**2> =   0.000000
    56a ->  59a  :     0.537007 (c=  0.73280782)
    57a ->  60a  :     0.017340 (c=  0.13168306)
    58a ->  60a  :     0.339799 (c= -0.58292296)
    58a ->  61a  :     0.040431 (c=  0.20107426)
    58a ->  62a  :     0.025528 (c= -0.15977329)

STATE  4:  E=   0.171353 au      4.663 eV    37607.6 cm**-1 <S**2> =   0.000000
    54a ->  59a  :     0.261085 (c= -0.51096454)
    55a ->  59a  :     0.428741 (c= -0.65478329)
    56a ->  59a  :     0.086778 (c= -0.29458117)
    58a ->  60a  :     0.173161 (c= -0.41612558)

STATE  5:  E=   0.174711 au      4.754 eV    38344.6 cm**-1 <S**2> =   0.000000
    53a ->  59a  :     0.016365 (c=  0.12792632)
    54a ->  59a  :     0.159118 (c= -0.39889562)
    55a ->  59a  :     0.066793 (c= -0.25844274)
    56a ->  59a  :     0.070006 (c=  0.26458721)
    57a ->  59a  :     0.016674 (c=  0.12912786)
    57a ->  60a  :     0.017829 (c=  0.13352476)
    57a ->  61a  :     0.014880 (c= -0.12198546)
    57a ->  62a  :     0.013272 (c= -0.11520502)
    58a ->  60a  :     0.279057 (c=  0.52825890)
    58a ->  61a  :     0.287798 (c=  0.53646800)
    58a ->  63a  :     0.017677 (c= -0.13295360)

STATE  6:  E=   0.176109 au      4.792 eV    38651.5 cm**-1 <S**2> =   0.000000
    53a ->  59a  :     0.010643 (c= -0.10316309)
    54a ->  59a  :     0.026220 (c= -0.16192481)
    55a ->  59a  :     0.050414 (c= -0.22453028)
    56a ->  59a  :     0.166703 (c=  0.40829294)
    57a ->  62a  :     0.022931 (c=  0.15142828)
    58a ->  60a  :     0.062308 (c=  0.24961561)
    58a ->  61a  :     0.502903 (c= -0.70915628)
    58a ->  62a  :     0.026237 (c=  0.16197806)
    58a ->  63a  :     0.079622 (c= -0.28217296)
    58a ->  66a  :     0.010671 (c=  0.10330230)

STATE  7:  E=   0.179970 au      4.897 eV    39498.7 cm**-1 <S**2> =   0.000000
    54a ->  59a  :     0.182304 (c= -0.42697084)
    55a ->  59a  :     0.114367 (c=  0.33818179)
    57a ->  59a  :     0.010651 (c=  0.10320470)
    57a ->  61a  :     0.021484 (c= -0.14657393)
    58a ->  61a  :     0.072421 (c= -0.26911199)
    58a ->  62a  :     0.539888 (c= -0.73477071)
    58a ->  63a  :     0.012841 (c=  0.11331864)

STATE  8:  E=   0.191099 au      5.200 eV    41941.4 cm**-1 <S**2> =   0.000000
    54a ->  59a  :     0.208008 (c= -0.45607893)
    55a ->  59a  :     0.226525 (c=  0.47594629)
    56a ->  59a  :     0.014880 (c= -0.12198431)
    57a ->  60a  :     0.064580 (c=  0.25412582)
    57a ->  61a  :     0.042937 (c=  0.20721150)
    57a ->  62a  :     0.017439 (c=  0.13205610)
    58a ->  60a  :     0.038151 (c= -0.19532268)
    58a ->  62a  :     0.088407 (c=  0.29733302)
    58a ->  63a  :     0.105372 (c= -0.32461064)
    58a ->  64a  :     0.087458 (c= -0.29573227)
    58a ->  66a  :     0.019519 (c=  0.13971091)

STATE  9:  E=   0.194352 au      5.289 eV    42655.3 cm**-1 <S**2> =   0.000000
    53a ->  59a  :     0.091004 (c=  0.30166838)
    54a ->  59a  :     0.043940 (c= -0.20961806)
    55a ->  59a  :     0.012126 (c=  0.11011593)
    56a ->  59a  :     0.040671 (c=  0.20167105)
    56a ->  64a  :     0.011524 (c=  0.10734968)
    57a ->  61a  :     0.058044 (c=  0.24092414)
    57a ->  62a  :     0.016478 (c=  0.12836733)
    58a ->  60a  :     0.027633 (c=  0.16623122)
    58a ->  61a  :     0.010346 (c= -0.10171406)
    58a ->  62a  :     0.049192 (c=  0.22179342)
    58a ->  63a  :     0.498115 (c=  0.70577290)
    58a ->  64a  :     0.026824 (c= -0.16377943)
    58a ->  65a  :     0.027608 (c= -0.16615655)
    58a ->  66a  :     0.037942 (c= -0.19478703)

STATE 10:  E=   0.198207 au      5.393 eV    43501.3 cm**-1 <S**2> =   0.000000
    53a ->  59a  :     0.073262 (c= -0.27066981)
    56a ->  59a  :     0.014209 (c= -0.11920338)
    57a ->  60a  :     0.534500 (c=  0.73109524)
    57a ->  61a  :     0.048655 (c= -0.22057933)
    57a ->  62a  :     0.019514 (c=  0.13969189)
    57a ->  63a  :     0.043086 (c= -0.20757168)
    58a ->  63a  :     0.070576 (c=  0.26566192)
    58a ->  64a  :     0.101180 (c=  0.31808736)
    58a ->  65a  :     0.023059 (c= -0.15185219)
    58a ->  66a  :     0.017570 (c= -0.13255311)


-----------------------------
TD-DFT/TDA-EXCITATION SPECTRA
-----------------------------

Center of mass = (  0.2785, -0.0021, -0.0076)
Calculating the Dipole integrals                  ... done
Transforming integrals                            ... done
Calculating the Linear Momentum integrals         ... done
Transforming integrals                            ... done
Calculating angular momentum integrals            ... done
Transforming integrals                            ... done

-----------------------------------------------------------------------------
         ABSORPTION SPECTRUM VIA TRANSITION ELECTRIC DIPOLE MOMENTS
-----------------------------------------------------------------------------
State   Energy    Wavelength  fosc         T2        TX        TY        TZ  
        (cm-1)      (nm)                 (au**2)    (au)      (au)      (au) 
-----------------------------------------------------------------------------
   1   29797.7    335.6   0.500641844   5.53121   2.26958  -0.26918   0.55477
   2   32711.9    305.7   0.300539807   3.02463   1.61378   0.39351  -0.51527
   3   36182.3    276.4   0.022295498   0.20286  -0.30829  -0.29240   0.14941
   4   37607.6    265.9   0.041556622   0.36378  -0.52645   0.24210   0.16737
   5   38344.6    260.8   0.064271425   0.55181   0.72957   0.12044  -0.07090
   6   38651.5    258.7   0.016869422   0.14368   0.14989  -0.25941   0.23222
   7   39498.7    253.2   0.111415170   0.92862   0.93454   0.16878  -0.16363
   8   41941.4    238.4   0.046947107   0.36850  -0.51050  -0.09699   0.31383
   9   42655.3    234.4   0.041732573   0.32209  -0.22066  -0.36045   0.37878
  10   43501.3    229.9   0.035341098   0.26746   0.48281   0.18468  -0.01566

-----------------------------------------------------------------------------
         ABSORPTION SPECTRUM VIA TRANSITION VELOCITY DIPOLE MOMENTS
-----------------------------------------------------------------------------
State   Energy    Wavelength   fosc        P2         PX        PY        PZ  
        (cm-1)      (nm)                 (au**2)     (au)      (au)      (au) 
-----------------------------------------------------------------------------
   1   29797.7    335.6   0.116363753   0.02370  -0.13204  -0.04771   0.06313
   2   32711.9    305.7   0.107146126   0.02395  -0.15382   0.00484  -0.01644
   3   36182.3    276.4   0.005060821   0.00125   0.03531  -0.00131   0.00179
   4   37607.6    265.9   0.011057926   0.00284   0.05244   0.00949  -0.00156
   5   38344.6    260.8   0.022214326   0.00582  -0.07605  -0.00030  -0.00613
   6   38651.5    258.7   0.001859784   0.00049  -0.01080  -0.01109   0.01586
   7   39498.7    253.2   0.041936016   0.01132  -0.10409  -0.01624   0.01489
   8   41941.4    238.4   0.011337273   0.00325   0.05051   0.01911  -0.01825
   9   42655.3    234.4   0.004529334   0.00132   0.02579  -0.00870  -0.02407
  10   43501.3    229.9   0.012995901   0.00386  -0.06090  -0.01232   0.00180

-------------------------------------------------------------------
                             CD SPECTRUM
-------------------------------------------------------------------
State  Energy     Wavelength     R         MX        MY        MZ   
       (cm-1)       (nm)     (1e40*cgs)   (au)      (au)      (au)  
-------------------------------------------------------------------
   1   29797.7    335.6     35.95569   0.03535   0.14315   0.06232
   2   32711.9    305.7     39.35477   0.05069   0.01347   0.00705
   3   36182.3    276.4     -0.90908   0.05017  -0.06474  -0.03609
   4   37607.6    265.9     72.70186  -0.38443  -0.13159  -0.09750
   5   38344.6    260.8    -57.09718  -0.18366   0.20713   0.17011
   6   38651.5    258.7     -1.78023  -0.09015   0.02201   0.06652
   7   39498.7    253.2    -10.57364  -0.01601  -0.12738  -0.08578
   8   41941.4    238.4    -39.28592   0.05780  -0.16105  -0.22128
   9   42655.3    234.4     23.16689  -0.15714   0.18145   0.21086
  10   43501.3    229.9    -32.36854  -0.03301  -0.29873  -0.15656

-------------------------------------------------------------------
         CD SPECTRUM VIA TRANSITION VELOCITY DIPOLE MOMENTS        
-------------------------------------------------------------------
State  Energy     Wavelength     R         MX        MY        MZ   
       (cm-1)       (nm)     (1e40*cgs)   (au)      (au)      (au)  
-------------------------------------------------------------------
   1   29797.7    335.6    -26.25887   0.03535   0.14315   0.06232
   2   32711.9    305.7    -24.82499   0.05069   0.01347   0.00705
   3   36182.3    276.4      5.12200   0.05017  -0.06474  -0.03609
   4   37607.6    265.9    -58.48117  -0.38443  -0.13159  -0.09750
   5   38344.6    260.8     34.71287  -0.18366   0.20713   0.17011
   6   38651.5    258.7      4.77710  -0.09015   0.02201   0.06652
   7   39498.7    253.2      6.43688  -0.01601  -0.12738  -0.08578
   8   41941.4    238.4      9.57381   0.05780  -0.16105  -0.22128
   9   42655.3    234.4    -25.97448  -0.15714   0.18145   0.21086
  10   43501.3    229.9     12.86369  -0.03301  -0.29873  -0.15656

Total run time:      390.686 sec

           *** ORCA-CIS/TD-DFT FINISHED WITHOUT ERROR ***

Maximum memory used throughout the entire CIS-calculation: 905.4 MB

-----------------------
CIS/TD-DFT TOTAL ENERGY
-----------------------

    E(SCF)  =  -1239.707389433 Eh
    DE(CIS) =      0.135768263 Eh (Root  1)
    ----------------------------- ---------
    E(tot)  =  -1239.571621169 Eh


-------------------------   --------------------
FINAL SINGLE POINT ENERGY     -1239.571621169262
-------------------------   --------------------


                            ***************************************
                            *     ORCA property calculations      *
                            ***************************************

                                    ---------------------
                                    Active property flags
                                    ---------------------
   (+) Dipole Moment


------------------------------------------------------------------------------
                       ORCA ELECTRIC PROPERTIES CALCULATION
------------------------------------------------------------------------------

Dipole Moment Calculation                       ... on
Quadrupole Moment Calculation                   ... off
Polarizability Calculation                      ... off
GBWName                                         ... pbe0-train-4_job2.gbw
Electron density                                ... pbe0-train-4_job2.scfp
The origin for moment calculation is the CENTER OF MASS  = ( 0.278489, -0.002083 -0.007578)

-------------
DIPOLE MOMENT
-------------
                                X             Y             Z
Electronic contribution:      2.96625      -0.47868       0.71101
Nuclear contribution   :     -2.88680       0.79776      -1.16044
                        -----------------------------------------
Total Dipole Moment    :      0.07945       0.31908      -0.44943
                        -----------------------------------------
Magnitude (a.u.)       :      0.55688
Magnitude (Debye)      :      1.41547



--------------------
Rotational spectrum 
--------------------
 
Rotational constants in cm-1:     0.054334     0.008976     0.007807 
Rotational constants in MHz :  1628.879721   269.105197   234.053395 

 Dipole components along the rotational axes: 
x,y,z [a.u.] :    -0.154842    -0.530428    -0.069145 
x,y,z [Debye]:    -0.393577    -1.348241    -0.175753 

 

Timings for individual modules:

Sum of individual times         ...      568.378 sec (=   9.473 min)
GTO integral calculation        ...        3.181 sec (=   0.053 min)   0.6 %
SCF iterations                  ...      173.757 sec (=   2.896 min)  30.6 %
CIS module                      ...      391.440 sec (=   6.524 min)  68.9 %



                             ****ORCA TERMINATED NORMALLY****
TOTAL RUN TIME: 0 days 2 hours 43 minutes 16 seconds 57 msec
