
                                 *****************
                                 * O   R   C   A *
                                 *****************

                                            #,                                       
                                            ###                                      
                                            ####                                     
                                            #####                                    
                                            ######                                   
                                           ########,                                 
                                     ,,################,,,,,                         
                               ,,#################################,,                 
                          ,,##########################################,,             
                       ,#########################################, ''#####,          
                    ,#############################################,,   '####,        
                  ,##################################################,,,,####,       
                ,###########''''           ''''###############################       
              ,#####''   ,,,,##########,,,,          '''####'''          '####       
            ,##' ,,,,###########################,,,                        '##       
           ' ,,###''''                  '''############,,,                           
         ,,##''                                '''############,,,,        ,,,,,,###''
      ,#''                                            '''#######################'''  
     '                                                          ''''####''''         
             ,#######,   #######,   ,#######,      ##                                
            ,#'     '#,  ##    ##  ,#'     '#,    #''#        ######   ,####,        
            ##       ##  ##   ,#'  ##            #'  '#       #        #'  '#        
            ##       ##  #######   ##           ,######,      #####,   #    #        
            '#,     ,#'  ##    ##  '#,     ,#' ,#      #,         ##   #,  ,#        
             '#######'   ##     ##  '#######'  #'      '#     #####' # '####'        



                  #######################################################
                  #                        -***-                        #
                  #          Department of theory and spectroscopy      #
                  #    Directorship and core code : Frank Neese         #
                  #        Max Planck Institute fuer Kohlenforschung    #
                  #                Kaiser Wilhelm Platz 1               #
                  #                 D-45470 Muelheim/Ruhr               #
                  #                      Germany                        #
                  #                                                     #
                  #                  All rights reserved                #
                  #                        -***-                        #
                  #######################################################


                         Program Version 5.0.2 -  RELEASE  -


 With contributions from (in alphabetic order):
   Daniel Aravena         : Magnetic Suceptibility
   Michael Atanasov       : Ab Initio Ligand Field Theory (pilot matlab implementation)
   Alexander A. Auer      : GIAO ZORA, VPT2 properties, NMR spectrum
   Ute Becker             : Parallelization
   Giovanni Bistoni       : ED, misc. LED, open-shell LED, HFLD
   Martin Brehm           : Molecular dynamics
   Dmytro Bykov           : SCF Hessian
   Vijay G. Chilkuri      : MRCI spin determinant printing, contributions to CSF-ICE
   Dipayan Datta          : RHF DLPNO-CCSD density
   Achintya Kumar Dutta   : EOM-CC, STEOM-CC
   Dmitry Ganyushin       : Spin-Orbit,Spin-Spin,Magnetic field MRCI
   Miquel Garcia          : C-PCM and meta-GGA Hessian, CC/C-PCM, Gaussian charge scheme
   Yang Guo               : DLPNO-NEVPT2, F12-NEVPT2, CIM, IAO-localization
   Andreas Hansen         : Spin unrestricted coupled pair/coupled cluster methods
   Benjamin Helmich-Paris : MC-RPA, TRAH-SCF, COSX integrals
   Lee Huntington         : MR-EOM, pCC
   Robert Izsak           : Overlap fitted RIJCOSX, COSX-SCS-MP3, EOM
   Marcus Kettner         : VPT2
   Christian Kollmar      : KDIIS, OOCD, Brueckner-CCSD(T), CCSD density, CASPT2, CASPT2-K
   Simone Kossmann        : Meta GGA functionals, TD-DFT gradient, OOMP2, MP2 Hessian
   Martin Krupicka        : Initial AUTO-CI
   Lucas Lang             : DCDCAS
   Marvin Lechner         : AUTO-CI (C++ implementation), FIC-MRCC
   Dagmar Lenk            : GEPOL surface, SMD
   Dimitrios Liakos       : Extrapolation schemes; Compound Job, initial MDCI parallelization
   Dimitrios Manganas     : Further ROCIS development; embedding schemes
   Dimitrios Pantazis     : SARC Basis sets
   Anastasios Papadopoulos: AUTO-CI, single reference methods and gradients
   Taras Petrenko         : DFT Hessian,TD-DFT gradient, ASA, ECA, R-Raman, ABS, FL, XAS/XES, NRVS
   Peter Pinski           : DLPNO-MP2, DLPNO-MP2 Gradient
   Christoph Reimann      : Effective Core Potentials
   Marius Retegan         : Local ZFS, SOC
   Christoph Riplinger    : Optimizer, TS searches, QM/MM, DLPNO-CCSD(T), (RO)-DLPNO pert. Triples
   Tobias Risthaus        : Range-separated hybrids, TD-DFT gradient, RPA, STAB
   Michael Roemelt        : Original ROCIS implementation
   Masaaki Saitow         : Open-shell DLPNO-CCSD energy and density
   Barbara Sandhoefer     : DKH picture change effects
   Avijit Sen             : IP-ROCIS
   Kantharuban Sivalingam : CASSCF convergence, NEVPT2, FIC-MRCI
   Bernardo de Souza      : ESD, SOC TD-DFT
   Georgi Stoychev        : AutoAux, RI-MP2 NMR, DLPNO-MP2 response
   Willem Van den Heuvel  : Paramagnetic NMR
   Boris Wezisla          : Elementary symmetry handling
   Frank Wennmohs         : Technical directorship


 We gratefully acknowledge several colleagues who have allowed us to
 interface, adapt or use parts of their codes:
   Stefan Grimme, W. Hujo, H. Kruse, P. Pracht,  : VdW corrections, initial TS optimization,
                  C. Bannwarth, S. Ehlert          DFT functionals, gCP, sTDA/sTD-DF
   Ed Valeev, F. Pavosevic, A. Kumar             : LibInt (2-el integral package), F12 methods
   Garnet Chan, S. Sharma, J. Yang, R. Olivares  : DMRG
   Ulf Ekstrom                                   : XCFun DFT Library
   Mihaly Kallay                                 : mrcc  (arbitrary order and MRCC methods)
   Jiri Pittner, Ondrej Demel                    : Mk-CCSD
   Frank Weinhold                                : gennbo (NPA and NBO analysis)
   Christopher J. Cramer and Donald G. Truhlar   : smd solvation model
   Lars Goerigk                                  : TD-DFT with DH, B97 family of functionals
   V. Asgeirsson, H. Jonsson                     : NEB implementation
   FAccTs GmbH                                   : IRC, NEB, NEB-TS, DLPNO-Multilevel, CI-OPT
                                                   MM, QMMM, 2- and 3-layer-ONIOM, Crystal-QMMM,
                                                   LR-CPCM, SF, NACMEs, symmetry and pop. for TD-DFT,
                                                   nearIR, NL-DFT gradient (VV10), updates on ESD,
                                                   ML-optimized integration grids
   S Lehtola, MJT Oliveira, MAL Marques          : LibXC Library
   Liviu Ungur et al                             : ANISO software


 Your calculation uses the libint2 library for the computation of 2-el integrals
 For citations please refer to: http://libint.valeyev.net

 Your ORCA version has been built with support for libXC version: 5.1.0
 For citations please refer to: https://tddft.org/programs/libxc/

 This ORCA versions uses:
   CBLAS   interface :  Fast vector & matrix operations
   LAPACKE interface :  Fast linear algebra routines
   SCALAPACK package :  Parallel linear algebra routines
   Shared memory     :  Shared parallel matrices
   BLAS/LAPACK       :  OpenBLAS 0.3.15  USE64BITINT DYNAMIC_ARCH NO_AFFINITY Sandybridge SINGLE_THREADED
        Core in use  :  Sandybridge
   Copyright (c) 2011-2014, The OpenBLAS Project


Your calculation utilizes the atom-pairwise dispersion correction
with the zero-damping scheme (D30)
Cite in your paper:
S.Grimme, J.Antony, S.Ehrlich and H.Krieg, J.Chem.Phys., 132, (2010), 154104 
   

Your calculation utilizes the SMD solvation module
Please cite in your paper:
A.V. Marenich, C.J. Cramer, D.G. Truhlar J. Phys. Chem. B, 113, (2009), 6378 

XCFun DFT library Copyright 2009-2010 Ulf Ekstrom and contributors.
See http://admol.org/xcfun for more information.
This is free software; see the source code for copying conditions.
There is ABSOLUTELY NO WARRANTY; not even for MERCHANTABILITY or FITNESS FOR A PARTICULAR PURPOSE.
For details see the documentation.
Scientific users of this library should cite U. Ekstrom, L. Visscher, R. Bast, A. J. Thorvaldsen and K. Ruud;
J.Chem.Theor.Comp. 2010, DOI: 10.1021/ct100117s
XCFun Version 0.99 

================================================================================

----- Orbital basis set information -----
Your calculation utilizes the basis: aug-cc-pVTZ 
    H, B-Ne : Obtained from the ccRepo (grant-hill.group.shef.ac.uk/ccrepo) Feb. 2017
              R. A. Kendall, T. H. Dunning, Jr., R. J. Harrison, J. Chem. Phys. 96, 6796 (1992)
         He : Obtained from the ccRepo (grant-hill.group.shef.ac.uk/ccrepo) Feb. 2017
              D. E. Woon, T. H. Dunning, Jr., J. Chem. Phys. 100, 2975 (1994)
  Li-Be, Na : Obtained from the ccRepo (grant-hill.group.shef.ac.uk/ccrepo) Feb. 2017
              B. P. Prascher, D. E. Woon, K. A. Peterson, T. H. Dunning, Jr., A. K. Wilson, Theor. Chem. Acc. 128, 69 (2011)
         Mg : Obtained from the Peterson Research Group Website (tyr0.chem.wsu.edu/~kipeters) Feb. 2017
              B. P. Prascher, D. E. Woon, K. A. Peterson, T. H. Dunning, Jr., A. K. Wilson, Theor. Chem. Acc. 128, 69 (2011)
      Al-Ar : Obtained from the ccRepo (grant-hill.group.shef.ac.uk/ccrepo) Feb. 2017
              D. E. Woon, T. H. Dunning, Jr., J. Chem. Phys. 98, 1358 (1993)
      Sc-Zn : Obtained from the ccRepo (grant-hill.group.shef.ac.uk/ccrepo) Feb. 2017
              N. B. Balabanov, K. A. Peterson, J. Chem. Phys. 123, 064107 (2005)
              N. B. Balabanov, K. A. Peterson, J. Chem. Phys. 125, 074110 (2006)
      Ga-Kr : Obtained from the ccRepo (grant-hill.group.shef.ac.uk/ccrepo) Feb. 2017
              A. K. Wilson, D. E. Woon, K. A. Peterson, T. H. Dunning, Jr., J. Chem. Phys. 110, 7667 (1999)
     Ag, Au : Obtained from the Peterson Research Group Website (tyr0.chem.wsu.edu/~kipeters) Feb. 2017
              K. A. Peterson, C. Puzzarini, Theor. Chem. Acc. 114, 283 (2005)

The basis set includes element-specific modifications.

Your calculation utilizes the basis: cc-pVTZ 
       H, B-Ne : Obtained from the ccRepo (grant-hill.group.shef.ac.uk/ccrepo) Feb. 2017
                 T. H. Dunning, Jr., J. Chem. Phys. 90, 1007 (1989)
            He : Obtained from the ccRepo (grant-hill.group.shef.ac.uk/ccrepo) Feb. 2017
                 D. E. Woon, T. H. Dunning, Jr., J. Chem. Phys. 100, 2975 (1994)
  Li-Be, Na-Mg : Obtained from the ccRepo (grant-hill.group.shef.ac.uk/ccrepo) Feb. 2017
                 B. P. Prascher, D. E. Woon, K. A. Peterson, T. H. Dunning, Jr., A. K. Wilson, Theor. Chem. Acc. 128, 69 (2011)
         Al-Ar : Obtained from the ccRepo (grant-hill.group.shef.ac.uk/ccrepo) Feb. 2017
                 D. E. Woon, T. H. Dunning, Jr., J. Chem. Phys. 98, 1358 (1993)
            Ca : Obtained from the Peterson Research Group Website (tyr0.chem.wsu.edu/~kipeters) Feb. 2017
                 J. Koput, K. A. Peterson, J. Phys. Chem. 106, 9595 (2002)
         Sc-Zn : Obtained from the ccRepo (grant-hill.group.shef.ac.uk/ccrepo) Feb. 2017
                 N. B. Balabanov, K. A. Peterson, J. Chem. Phys. 123, 064107 (2005)
                 N. B. Balabanov, K. A. Peterson, J. Chem. Phys. 125, 074110 (2006)
         Ga-Kr : Obtained from the ccRepo (grant-hill.group.shef.ac.uk/ccrepo) Feb. 2017
                 A. K. Wilson, D. E. Woon, K. A. Peterson, T. H. Dunning, Jr., J. Chem. Phys. 110, 7667 (1999)
             Y : Obtained from the ccRepo (grant-hill.group.shef.ac.uk/ccrepo) Feb. 2017
                 K. A. Peterson, D. Figgen, M. Dolg, H. Stoll, J. Chem. Phys. 126, 124101 (2007)
        Ag, Au : Obtained from the Peterson Research Group Website (tyr0.chem.wsu.edu/~kipeters) Feb. 2017
                 K. A. Peterson, C. Puzzarini, Theor. Chem. Acc. 114, 283 (2005)

----- AuxJ basis set information -----
Your calculation utilizes the auxiliary basis: aug-cc-pVTZ/JK 
  H, B-F, Al-Cl, Ga-Br : Obtained from the TURBOMOLE 7.0 basis set library

The basis set includes element-specific modifications.

Your calculation utilizes the auxiliary basis: cc-pVTZ/JK 
  H, B-F, Al-Cl, Ga-Br : Obtained from the TURBOMOLE 7.0 basis set library

----- AuxC basis set information -----
Your calculation utilizes the auxiliary basis: aug-cc-pVTZ/C 
  H-He, B-F, Al-Ar, Ga-Kr : Obtained from the EMSL Basis Set Exchange (bse.pnl.gov) Feb. 2017
                            F. Weigend, A. Kohn, C. Hattig, J. Chem. Phys. 116, 3175 (2002)
                   Be, Mg : Obtained from the TURBOMOLE 7.0 basis set library
                            C. Haettig, Phys. Chem. Chem. Phys. 7, 59 (2005)
                       Ne : Obtained from the EMSL Basis Set Exchange (bse.pnl.gov) Feb. 2017
                            C. Haettig, Phys. Chem. Chem. Phys. 7, 59 (2005)
                            F. Weigend, A. Kohn, C. Hattig, J. Chem. Phys. 116, 3175 (2002)
                    Sc-Zn : Obtained from the EMSL Basis Set Exchange (bse.pnl.gov) Feb. 2017
                            J. G. Hill, J. A. Platts, J. Chem. Phys. 128, 044104 (2008)

The basis set includes element-specific modifications.

Your calculation utilizes the auxiliary basis: cc-pVTZ/C 
  Obtained from the EMSL Basis Set Exchange (bse.pnl.gov) Feb. 2017
  H-He, B-F, Al-Ar, Ga-Kr : F. Weigend, A. Kohn, C. Hattig, J. Chem. Phys. 116, 3175 (2002)
             Li-Be, Na-Mg : C. Haettig, Phys. Chem. Chem. Phys. 7, 59 (2005)
                       Ne : C. Haettig, Phys. Chem. Chem. Phys. 7, 59 (2005)
                            F. Weigend, A. Kohn, C. Hattig, J. Chem. Phys. 116, 3175 (2002)
                    Sc-Zn : J. G. Hill, J. A. Platts, J. Chem. Phys. 128, 044104 (2008)

================================================================================
                                        WARNINGS
                       Please study these warnings very carefully!
================================================================================


WARNING: Geometry Optimization
  ===> : Switching off AutoStart
         For restart on a previous wavefunction, please use MOREAD

INFO   : the flag for use of the SHARK integral package has been found!



***************************************
The coordinates will be read from file: 
***************************************


Your calculation utilizes the atom-pairwise dispersion correction
with the zero-damping scheme (D30)
Cite in your paper:
S.Grimme, J.Antony, S.Ehrlich and H.Krieg, J.Chem.Phys., 132, (2010), 154104 
   

Your calculation utilizes the SMD solvation module
Please cite in your paper:
A.V. Marenich, C.J. Cramer, D.G. Truhlar J. Phys. Chem. B, 113, (2009), 6378 

XCFun DFT library Copyright 2009-2010 Ulf Ekstrom and contributors.
See http://admol.org/xcfun for more information.
This is free software; see the source code for copying conditions.
There is ABSOLUTELY NO WARRANTY; not even for MERCHANTABILITY or FITNESS FOR A PARTICULAR PURPOSE.
For details see the documentation.
Scientific users of this library should cite U. Ekstrom, L. Visscher, R. Bast, A. J. Thorvaldsen and K. Ruud;
J.Chem.Theor.Comp. 2010, DOI: 10.1021/ct100117s
XCFun Version 0.99 

================================================================================

----- Orbital basis set information -----
Your calculation utilizes the basis: aug-cc-pVTZ 
    H, B-Ne : Obtained from the ccRepo (grant-hill.group.shef.ac.uk/ccrepo) Feb. 2017
              R. A. Kendall, T. H. Dunning, Jr., R. J. Harrison, J. Chem. Phys. 96, 6796 (1992)
         He : Obtained from the ccRepo (grant-hill.group.shef.ac.uk/ccrepo) Feb. 2017
              D. E. Woon, T. H. Dunning, Jr., J. Chem. Phys. 100, 2975 (1994)
  Li-Be, Na : Obtained from the ccRepo (grant-hill.group.shef.ac.uk/ccrepo) Feb. 2017
              B. P. Prascher, D. E. Woon, K. A. Peterson, T. H. Dunning, Jr., A. K. Wilson, Theor. Chem. Acc. 128, 69 (2011)
         Mg : Obtained from the Peterson Research Group Website (tyr0.chem.wsu.edu/~kipeters) Feb. 2017
              B. P. Prascher, D. E. Woon, K. A. Peterson, T. H. Dunning, Jr., A. K. Wilson, Theor. Chem. Acc. 128, 69 (2011)
      Al-Ar : Obtained from the ccRepo (grant-hill.group.shef.ac.uk/ccrepo) Feb. 2017
              D. E. Woon, T. H. Dunning, Jr., J. Chem. Phys. 98, 1358 (1993)
      Sc-Zn : Obtained from the ccRepo (grant-hill.group.shef.ac.uk/ccrepo) Feb. 2017
              N. B. Balabanov, K. A. Peterson, J. Chem. Phys. 123, 064107 (2005)
              N. B. Balabanov, K. A. Peterson, J. Chem. Phys. 125, 074110 (2006)
      Ga-Kr : Obtained from the ccRepo (grant-hill.group.shef.ac.uk/ccrepo) Feb. 2017
              A. K. Wilson, D. E. Woon, K. A. Peterson, T. H. Dunning, Jr., J. Chem. Phys. 110, 7667 (1999)
     Ag, Au : Obtained from the Peterson Research Group Website (tyr0.chem.wsu.edu/~kipeters) Feb. 2017
              K. A. Peterson, C. Puzzarini, Theor. Chem. Acc. 114, 283 (2005)

The basis set includes element-specific modifications.

Your calculation utilizes the basis: cc-pVTZ 
       H, B-Ne : Obtained from the ccRepo (grant-hill.group.shef.ac.uk/ccrepo) Feb. 2017
                 T. H. Dunning, Jr., J. Chem. Phys. 90, 1007 (1989)
            He : Obtained from the ccRepo (grant-hill.group.shef.ac.uk/ccrepo) Feb. 2017
                 D. E. Woon, T. H. Dunning, Jr., J. Chem. Phys. 100, 2975 (1994)
  Li-Be, Na-Mg : Obtained from the ccRepo (grant-hill.group.shef.ac.uk/ccrepo) Feb. 2017
                 B. P. Prascher, D. E. Woon, K. A. Peterson, T. H. Dunning, Jr., A. K. Wilson, Theor. Chem. Acc. 128, 69 (2011)
         Al-Ar : Obtained from the ccRepo (grant-hill.group.shef.ac.uk/ccrepo) Feb. 2017
                 D. E. Woon, T. H. Dunning, Jr., J. Chem. Phys. 98, 1358 (1993)
            Ca : Obtained from the Peterson Research Group Website (tyr0.chem.wsu.edu/~kipeters) Feb. 2017
                 J. Koput, K. A. Peterson, J. Phys. Chem. 106, 9595 (2002)
         Sc-Zn : Obtained from the ccRepo (grant-hill.group.shef.ac.uk/ccrepo) Feb. 2017
                 N. B. Balabanov, K. A. Peterson, J. Chem. Phys. 123, 064107 (2005)
                 N. B. Balabanov, K. A. Peterson, J. Chem. Phys. 125, 074110 (2006)
         Ga-Kr : Obtained from the ccRepo (grant-hill.group.shef.ac.uk/ccrepo) Feb. 2017
                 A. K. Wilson, D. E. Woon, K. A. Peterson, T. H. Dunning, Jr., J. Chem. Phys. 110, 7667 (1999)
             Y : Obtained from the ccRepo (grant-hill.group.shef.ac.uk/ccrepo) Feb. 2017
                 K. A. Peterson, D. Figgen, M. Dolg, H. Stoll, J. Chem. Phys. 126, 124101 (2007)
        Ag, Au : Obtained from the Peterson Research Group Website (tyr0.chem.wsu.edu/~kipeters) Feb. 2017
                 K. A. Peterson, C. Puzzarini, Theor. Chem. Acc. 114, 283 (2005)

----- AuxJ basis set information -----
Your calculation utilizes the auxiliary basis: aug-cc-pVTZ/JK 
  H, B-F, Al-Cl, Ga-Br : Obtained from the TURBOMOLE 7.0 basis set library

The basis set includes element-specific modifications.

Your calculation utilizes the auxiliary basis: cc-pVTZ/JK 
  H, B-F, Al-Cl, Ga-Br : Obtained from the TURBOMOLE 7.0 basis set library

----- AuxC basis set information -----
Your calculation utilizes the auxiliary basis: aug-cc-pVTZ/C 
  H-He, B-F, Al-Ar, Ga-Kr : Obtained from the EMSL Basis Set Exchange (bse.pnl.gov) Feb. 2017
                            F. Weigend, A. Kohn, C. Hattig, J. Chem. Phys. 116, 3175 (2002)
                   Be, Mg : Obtained from the TURBOMOLE 7.0 basis set library
                            C. Haettig, Phys. Chem. Chem. Phys. 7, 59 (2005)
                       Ne : Obtained from the EMSL Basis Set Exchange (bse.pnl.gov) Feb. 2017
                            C. Haettig, Phys. Chem. Chem. Phys. 7, 59 (2005)
                            F. Weigend, A. Kohn, C. Hattig, J. Chem. Phys. 116, 3175 (2002)
                    Sc-Zn : Obtained from the EMSL Basis Set Exchange (bse.pnl.gov) Feb. 2017
                            J. G. Hill, J. A. Platts, J. Chem. Phys. 128, 044104 (2008)

The basis set includes element-specific modifications.

Your calculation utilizes the auxiliary basis: cc-pVTZ/C 
  Obtained from the EMSL Basis Set Exchange (bse.pnl.gov) Feb. 2017
  H-He, B-F, Al-Ar, Ga-Kr : F. Weigend, A. Kohn, C. Hattig, J. Chem. Phys. 116, 3175 (2002)
             Li-Be, Na-Mg : C. Haettig, Phys. Chem. Chem. Phys. 7, 59 (2005)
                       Ne : C. Haettig, Phys. Chem. Chem. Phys. 7, 59 (2005)
                            F. Weigend, A. Kohn, C. Hattig, J. Chem. Phys. 116, 3175 (2002)
                    Sc-Zn : J. G. Hill, J. A. Platts, J. Chem. Phys. 128, 044104 (2008)

================================================================================
                                        WARNINGS
                       Please study these warnings very carefully!
================================================================================

INFO   : Checking CIS options ...

INFO   : the flag for use of the SHARK integral package has been found!

================================================================================
                                       INPUT FILE
================================================================================
NAME = wb97x-d3-train-4.inp
|  1> ! wb97x-d3 aug-cc-PVTZ RIJCOSX Opt
|  2> %maxcore 4000
|  3> %basis
|  4>  AuxJ "aug-cc-PVTZ/JK"
|  5>  AuxC "aug-cc-PVTZ/C"
|  6>  newGTO H "cc-PVTZ" end
|  7>  newAuxJGTO H "cc-PVTZ/JK" end
|  8>  newAuxCGTO H "cc-PVTZ/C" end
|  9> end
| 10> %cpcm
| 11>  SMD true
| 12>  SMDsolvent "acetonitrile"
| 13> end
| 14> %pal nprocs 4 end
| 15> * xyz 0 1
| 16> C         -4.57040       -0.46150        0.41150
| 17> C         -4.02030        0.49180       -0.42940
| 18> C         -2.64950        0.61520       -0.54150
| 19> C         -1.79710       -0.21660        0.18870
| 20> C         -0.35690       -0.10750        0.08880
| 21> P          0.74210       -1.10260        0.96210
| 22> C          2.18870       -0.32020        0.26940
| 23> C          3.50480       -0.67740        0.58050
| 24> C          4.55840       -0.01500       -0.00560
| 25> C          4.32660        1.01730       -0.91390
| 26> C          3.04000        1.38880       -1.23760
| 27> C          1.97300        0.72160       -0.64740
| 28> S          0.31300        1.10370       -0.97940
| 29> C         -2.36710       -1.17440        1.03350
| 30> C         -3.73620       -1.29410        1.14250
| 31> H         -5.64250       -0.55610        0.49770
| 32> H         -4.66370        1.14380       -1.00180
| 33> H         -2.22950        1.36200       -1.20020
| 34> H          3.67680       -1.47810        1.28510
| 35> H          5.57280       -0.29380        0.23730
| 36> H          5.16140        1.52990       -1.36750
| 37> H          2.84950        2.18640       -1.93950
| 38> H         -1.71510       -1.82300        1.60290
| 39> H         -4.15830       -2.03970        1.80010
| 40> *
| 41> 
| 42> 
| 43> $new_job
| 44> ! wb97x-d3 aug-cc-PVTZ RIJCOSX SP
| 45> %maxcore 4000
| 46> %basis
| 47>  AuxJ "aug-cc-PVTZ/JK"
| 48>  AuxC "aug-cc-PVTZ/C"
| 49>  newGTO H "cc-PVTZ" end
| 50>  newAuxJGTO H "cc-PVTZ/JK" end
| 51>  newAuxCGTO H "cc-PVTZ/C" end
| 52> end
| 53> %cpcm
| 54>  SMD true
| 55>  SMDsolvent "acetonitrile"
| 56> end
| 57> %pal nprocs 4 end
| 58> %tddft
| 59>  nroots 10
| 60>  maxdim 7
| 61> end
| 62> * xyzfile 0 1
| 63> 
| 64>                          ****END OF INPUT****
================================================================================


                 $$$$$$$$$$$$$$$$$$$$$$$$$$$$$$$$$$$$$$$$$$$$$$ 
                 $ THERE ARE  2 JOBS TO BE PROCESSED THIS RUN $
                 $$$$$$$$$$$$$$$$$$$$$$$$$$$$$$$$$$$$$$$$$$$$$$ 




                 $$$$$$$$$$$$$$$$  JOB NUMBER  1 $$$$$$$$$$$$$$


                       *****************************
                       * Geometry Optimization Run *
                       *****************************

Geometry optimization settings:
Update method            Update   .... BFGS
Choice of coordinates    CoordSys .... Z-matrix Internals
Initial Hessian          InHess   .... Almoef's Model

Convergence Tolerances:
Energy Change            TolE     ....  5.0000e-06 Eh
Max. Gradient            TolMAXG  ....  3.0000e-04 Eh/bohr
RMS Gradient             TolRMSG  ....  1.0000e-04 Eh/bohr
Max. Displacement        TolMAXD  ....  4.0000e-03 bohr
RMS Displacement         TolRMSD  ....  2.0000e-03 bohr
Strict Convergence                ....  False
------------------------------------------------------------------------------
                        ORCA OPTIMIZATION COORDINATE SETUP
------------------------------------------------------------------------------

The optimization will be done in new redundant internal coordinates
Making redundant internal coordinates   ...  (new redundants) done
Evaluating the initial hessian          ...  (Almloef) done
Evaluating the coordinates              ...  done
Calculating the B-matrix                .... done
Calculating the G-matrix                .... done
Diagonalizing the G-matrix              .... done
Small eigenvalue found = 9.073e-03
The first mode is                       ....   61
The number of degrees of freedom        ....   66

    -----------------------------------------------------------------
                    Redundant Internal Coordinates


    -----------------------------------------------------------------
         Definition                    Initial Value    Approx d2E/dq
    -----------------------------------------------------------------
      1. B(C   1,C   0)                  1.3851         0.636144   
      2. B(C   2,C   1)                  1.3809         0.646035   
      3. B(C   3,C   2)                  1.3970         0.608886   
      4. B(C   4,C   3)                  1.4478         0.505311   
      5. B(P   5,C   4)                  1.7207         0.623279   
      6. B(C   6,P   5)                  1.7846         0.492885   
      7. B(C   7,C   6)                  1.3987         0.605038   
      8. B(C   8,C   7)                  1.3756         0.658664   
      9. B(C   9,C   8)                  1.3944         0.614752   
     10. B(C  10,C   9)                  1.3777         0.653609   
     11. B(C  11,C  10)                  1.3900         0.624895   
     12. B(C  11,C   6)                  1.4044         0.592560   
     13. B(S  12,C  11)                  1.7355         0.473528   
     14. B(S  12,C   4)                  1.7484         0.451584   
     15. B(C  13,C   3)                  1.3986         0.605456   
     16. B(C  14,C  13)                  1.3786         0.651426   
     17. B(C  14,C   0)                  1.3869         0.631968   
     18. B(H  15,C   0)                  1.0797         0.373970   
     19. B(H  16,C   1)                  1.0801         0.373378   
     20. B(H  17,C   2)                  1.0807         0.372562   
     21. B(H  18,C   7)                  1.0804         0.373089   
     22. B(H  19,C   8)                  1.0797         0.373996   
     23. B(H  20,C   9)                  1.0795         0.374209   
     24. B(H  21,C  10)                  1.0794         0.374389   
     25. B(H  22,C  13)                  1.0817         0.371295   
     26. B(H  23,C  14)                  1.0801         0.373495   
     27. A(C   1,C   0,H  15)          120.2070         0.356729   
     28. A(C   1,C   0,C  14)          119.6229         0.437585   
     29. A(C  14,C   0,H  15)          120.1701         0.356330   
     30. A(C   0,C   1,C   2)          120.3339         0.439326   
     31. A(C   2,C   1,H  16)          119.6265         0.357570   
     32. A(C   0,C   1,H  16)          120.0396         0.356633   
     33. A(C   1,C   2,C   3)          120.6675         0.435871   
     34. A(C   3,C   2,H  17)          119.5303         0.353862   
     35. A(C   1,C   2,H  17)          119.8023         0.357437   
     36. A(C   2,C   3,C   4)          121.7374         0.417109   
     37. A(C   2,C   3,C  13)          118.3473         0.430815   
     38. A(C   4,C   3,C  13)          119.9152         0.416690   
     39. A(C   3,C   4,S  12)          118.3927         0.417176   
     40. A(P   5,C   4,S  12)          117.7751         0.462375   
     41. A(C   3,C   4,P   5)          123.8322         0.446873   
     42. A(C   4,P   5,C   6)           93.8526         0.475097   
     43. A(P   5,C   6,C   7)          124.3628         0.442478   
     44. A(C   7,C   6,C  11)          118.6290         0.428665   
     45. A(P   5,C   6,C  11)          117.0082         0.440814   
     46. A(C   6,C   7,H  18)          118.9551         0.353567   
     47. A(C   6,C   7,C   8)          120.1934         0.436894   
     48. A(C   8,C   7,H  18)          120.8516         0.358702   
     49. A(C   9,C   8,H  19)          119.5966         0.354669   
     50. A(C   7,C   8,H  19)          119.9600         0.358850   
     51. A(C   7,C   8,C   9)          120.4434         0.438151   
     52. A(C   8,C   9,C  10)          120.5245         0.437543   
     53. A(C  10,C   9,H  20)          119.6952         0.358415   
     54. A(C   8,C   9,H  20)          119.7803         0.354703   
     55. A(C   9,C  10,C  11)          119.1879         0.438836   
     56. A(C  11,C  10,H  21)          119.6914         0.355718   
     57. A(C   9,C  10,H  21)          121.1207         0.358444   
     58. A(C   6,C  11,C  10)          121.0217         0.431157   
     59. A(C  10,C  11,S  12)          123.1857         0.437056   
     60. A(C   6,C  11,S  12)          115.7926         0.432896   
     61. A(C   4,S  12,C  11)           95.5716         0.435088   
     62. A(C   3,C  13,C  14)          120.7946         0.436080   
     63. A(C  14,C  13,H  22)          120.3261         0.357735   
     64. A(C   3,C  13,H  22)          118.8793         0.353320   
     65. A(C   0,C  14,C  13)          120.2338         0.439463   
     66. A(C  13,C  14,H  23)          119.7479         0.358094   
     67. A(C   0,C  14,H  23)          120.0183         0.356254   
     68. D(H  16,C   1,C   0,C  14)   -179.9971         0.028094   
     69. D(C   2,C   1,C   0,H  15)    179.9903         0.028094   
     70. D(C   2,C   1,C   0,C  14)     -0.0051         0.028094   
     71. D(H  16,C   1,C   0,H  15)     -0.0016         0.028094   
     72. D(H  17,C   2,C   1,C   0)   -179.9991         0.029035   
     73. D(H  17,C   2,C   1,H  16)     -0.0071         0.029035   
     74. D(C   3,C   2,C   1,H  16)    179.9989         0.029035   
     75. D(C   3,C   2,C   1,C   0)      0.0069         0.029035   
     76. D(C  13,C   3,C   2,H  17)   -179.9968         0.025600   
     77. D(C   4,C   3,C   2,H  17)     -0.0015         0.025600   
     78. D(C   4,C   3,C   2,C   1)    179.9925         0.025600   
     79. D(C  13,C   3,C   2,C   1)     -0.0028         0.025600   
     80. D(P   5,C   4,C   3,C  13)     -0.0035         0.017396   
     81. D(P   5,C   4,C   3,C   2)   -179.9987         0.017396   
     82. D(S  12,C   4,C   3,C   2)      0.0039         0.017396   
     83. D(S  12,C   4,C   3,C  13)    179.9991         0.017396   
     84. D(C   6,P   5,C   4,S  12)     -0.0005         0.005993   
     85. D(C   6,P   5,C   4,C   3)   -179.9980         0.005993   
     86. D(C  11,C   6,P   5,C   4)     -0.0021         0.004252   
     87. D(C   7,C   6,P   5,C   4)    179.9985         0.004252   
     88. D(H  18,C   7,C   6,C  11)   -179.9995         0.025259   
     89. D(H  18,C   7,C   6,P   5)     -0.0001         0.025259   
     90. D(C   8,C   7,C   6,C  11)     -0.0025         0.025259   
     91. D(C   8,C   7,C   6,P   5)    179.9968         0.025259   
     92. D(H  19,C   8,C   7,H  18)     -0.0054         0.030264   
     93. D(H  19,C   8,C   7,C   6)    179.9978         0.030264   
     94. D(C   9,C   8,C   7,H  18)   -179.9973         0.030264   
     95. D(C   9,C   8,C   7,C   6)      0.0059         0.030264   
     96. D(H  20,C   9,C   8,C   7)    179.9996         0.026124   
     97. D(C  10,C   9,C   8,H  19)   -179.9954         0.026124   
     98. D(C  10,C   9,C   8,C   7)     -0.0034         0.026124   
     99. D(H  20,C   9,C   8,H  19)      0.0077         0.026124   
    100. D(H  21,C  10,C   9,H  20)      0.0034         0.029768   
    101. D(H  21,C  10,C   9,C   8)   -179.9936         0.029768   
    102. D(C  11,C  10,C   9,H  20)    179.9946         0.029768   
    103. D(C  11,C  10,C   9,C   8)     -0.0024         0.029768   
    104. D(S  12,C  11,C  10,H  21)     -0.0103         0.027047   
    105. D(C   6,C  11,C  10,H  21)    179.9971         0.027047   
    106. D(C   6,C  11,C  10,C   9)      0.0057         0.027047   
    107. D(S  12,C  11,C   6,C   7)   -179.9965         0.024174   
    108. D(S  12,C  11,C   6,P   5)      0.0041         0.024174   
    109. D(S  12,C  11,C  10,C   9)    179.9984         0.027047   
    110. D(C  10,C  11,C   6,C   7)     -0.0033         0.024174   
    111. D(C  10,C  11,C   6,P   5)    179.9973         0.024174   
    112. D(C   4,S  12,C  11,C  10)   -179.9968         0.004806   
    113. D(C   4,S  12,C  11,C   6)     -0.0038         0.004806   
    114. D(C  11,S  12,C   4,P   5)      0.0023         0.004494   
    115. D(C  11,S  12,C   4,C   3)    179.9999         0.004494   
    116. D(H  22,C  13,C   3,C   4)      0.0042         0.025296   
    117. D(H  22,C  13,C   3,C   2)    179.9996         0.025296   
    118. D(C  14,C  13,C   3,C   4)   -179.9984         0.025296   
    119. D(C  14,C  13,C   3,C   2)     -0.0031         0.025296   
    120. D(H  23,C  14,C  13,H  22)     -0.0017         0.029556   
    121. D(C   0,C  14,C  13,H  22)   -179.9978         0.029556   
    122. D(C   0,C  14,C  13,C   3)      0.0048         0.029556   
    123. D(H  23,C  14,C   0,H  15)      0.0076         0.027702   
    124. D(H  23,C  14,C   0,C   1)   -179.9969         0.027702   
    125. D(H  23,C  14,C  13,C   3)   -179.9990         0.029556   
    126. D(C  13,C  14,C   0,H  15)   -179.9962         0.027702   
    127. D(C  13,C  14,C   0,C   1)     -0.0007         0.027702   
    -----------------------------------------------------------------

Number of atoms                         .... 24
Number of degrees of freedom            .... 127

         *************************************************************
         *                GEOMETRY OPTIMIZATION CYCLE   1            *
         *************************************************************
---------------------------------
CARTESIAN COORDINATES (ANGSTROEM)
---------------------------------
  C     -4.570400   -0.461500    0.411500
  C     -4.020300    0.491800   -0.429400
  C     -2.649500    0.615200   -0.541500
  C     -1.797100   -0.216600    0.188700
  C     -0.356900   -0.107500    0.088800
  P      0.742100   -1.102600    0.962100
  C      2.188700   -0.320200    0.269400
  C      3.504800   -0.677400    0.580500
  C      4.558400   -0.015000   -0.005600
  C      4.326600    1.017300   -0.913900
  C      3.040000    1.388800   -1.237600
  C      1.973000    0.721600   -0.647400
  S      0.313000    1.103700   -0.979400
  C     -2.367100   -1.174400    1.033500
  C     -3.736200   -1.294100    1.142500
  H     -5.642500   -0.556100    0.497700
  H     -4.663700    1.143800   -1.001800
  H     -2.229500    1.362000   -1.200200
  H      3.676800   -1.478100    1.285100
  H      5.572800   -0.293800    0.237300
  H      5.161400    1.529900   -1.367500
  H      2.849500    2.186400   -1.939500
  H     -1.715100   -1.823000    1.602900
  H     -4.158300   -2.039700    1.800100

----------------------------
CARTESIAN COORDINATES (A.U.)
----------------------------
  NO LB      ZA    FRAG     MASS         X           Y           Z
   0 C     6.0000    0    12.011   -8.636804   -0.872109    0.777622
   1 C     6.0000    0    12.011   -7.597266    0.929367   -0.811448
   2 C     6.0000    0    12.011   -5.006829    1.162560   -1.023287
   3 C     6.0000    0    12.011   -3.396027   -0.409315    0.356591
   4 C     6.0000    0    12.011   -0.674443   -0.203146    0.167808
   5 P    15.0000    0    30.974    1.402366   -2.083612    1.818106
   6 C     6.0000    0    12.011    4.136044   -0.605090    0.509092
   7 C     6.0000    0    12.011    6.623112   -1.280100    1.096986
   8 C     6.0000    0    12.011    8.614128   -0.028346   -0.010582
   9 C     6.0000    0    12.011    8.176089    1.922418   -1.727021
  10 C     6.0000    0    12.011    5.744767    2.624452   -2.338725
  11 C     6.0000    0    12.011    3.728430    1.363626   -1.223409
  12 S    16.0000    0    32.060    0.591484    2.085691   -1.850798
  13 C     6.0000    0    12.011   -4.473171   -2.219294    1.953032
  14 C     6.0000    0    12.011   -7.060395   -2.445495    2.159012
  15 H     1.0000    0     1.008  -10.662780   -1.050877    0.940517
  16 H     1.0000    0     1.008   -8.813116    2.161469   -1.893128
  17 H     1.0000    0     1.008   -4.213144    2.573807   -2.268049
  18 H     1.0000    0     1.008    6.948145   -2.793204    2.428487
  19 H     1.0000    0     1.008   10.531066   -0.555202    0.448432
  20 H     1.0000    0     1.008    9.753632    2.891092   -2.584200
  21 H     1.0000    0     1.008    5.384775    4.131697   -3.665124
  22 H     1.0000    0     1.008   -3.241069   -3.444971    3.029042
  23 H     1.0000    0     1.008   -7.858048   -3.854474    3.401696

--------------------------------
INTERNAL COORDINATES (ANGSTROEM)
--------------------------------
 C      0   0   0     0.000000000000     0.00000000     0.00000000
 C      1   0   0     1.385100613674     0.00000000     0.00000000
 C      2   1   0     1.380900651749   120.33387166     0.00000000
 C      3   2   1     1.397021488740   120.66745383     0.00000000
 C      4   3   2     1.447777213524   121.73742609   179.99247754
 P      5   4   3     1.720662052816   123.83222498   180.00129550
 C      6   5   4     1.784554457000    93.85256138   180.00203796
 C      7   6   5     1.398747389631   124.36275245   179.99849513
 C      8   7   6     1.375630738970   120.19335617   179.99681574
 C      9   8   7     1.394411495937   120.44343937     0.00000000
 C     10   9   8     1.377727658139   120.52452008     0.00000000
 C     11  10   9     1.389957150419   119.18790131     0.00000000
 S     12  11  10     1.735460863863   123.18568278   179.99839372
 C      4   3   2     1.398559215765   118.34734701     0.00000000
 C     14   4   3     1.378638422502   120.79464432     0.00000000
 H      1   2   3     1.079712003268   120.20703654   179.99033929
 H      2   1   3     1.080143194211   120.03958220   180.00807260
 H      3   2   1     1.080738603919   119.80226112   180.00092985
 H      8   7   6     1.080354409442   118.95508436     0.00000000
 H      9   8   7     1.079693109175   119.95998590   179.99779393
 H     10   9   8     1.079538216091   119.78026958   179.99963503
 H     11  10   9     1.079407068719   121.12065728   180.00641727
 H     14   4   3     1.081666455059   118.87927471   179.99956939
 H     15  14   4     1.080058114177   119.74790299   180.00100506

---------------------------
INTERNAL COORDINATES (A.U.)
---------------------------
 C      0   0   0     0.000000000000     0.00000000     0.00000000
 C      1   0   0     2.617460827770     0.00000000     0.00000000
 C      2   1   0     2.609524049958   120.33387166     0.00000000
 C      3   2   1     2.639988016921   120.66745383     0.00000000
 C      4   3   2     2.735902436492   121.73742609   179.99247754
 P      5   4   3     3.251580048852   123.83222498   180.00129550
 C      6   5   4     3.372319194799    93.85256138   180.00203796
 C      7   6   5     2.643249496940   124.36275245   179.99849513
 C      8   7   6     2.599565358058   120.19335617   179.99681574
 C      9   8   7     2.635055845312   120.44343937     0.00000000
 C     10   9   8     2.603527961011   120.52452008     0.00000000
 C     11  10   9     2.626638352177   119.18790131     0.00000000
 S     12  11  10     3.279545748839   123.18568278   179.99839372
 C      4   3   2     2.642893899867   118.34734701     0.00000000
 C     14   4   3     2.605249056231   120.79464432     0.00000000
 H      1   2   3     2.040359989683   120.20703654   179.99033929
 H      2   1   3     2.041174822477   120.03958220   180.00807260
 H      3   2   1     2.042299983763   119.80226112   180.00092985
 H      8   7   6     2.041573961419   118.95508436     0.00000000
 H      9   8   7     2.040324285023   119.95998590   179.99779393
 H     10   9   8     2.040031579513   119.78026958   179.99963503
 H     11  10   9     2.039783746897   121.12065728   180.00641727
 H     14   4   3     2.044053368311   118.87927471   179.99956939
 H     15  14   4     2.041014044514   119.74790299   180.00100506

---------------------
BASIS SET INFORMATION
---------------------
There are 4 groups of distinct atoms

 Group   1 Type C   : 19s6p3d2f contracted to 5s4p3d2f pattern {88111/3111/111/11}
 Group   2 Type P   : 42s17p3d2f contracted to 6s5p3d2f pattern {131313111/77111/111/11}
 Group   3 Type S   : 42s17p3d2f contracted to 6s5p3d2f pattern {131313111/77111/111/11}
 Group   4 Type H   : 5s2p1d contracted to 3s2p1d pattern {311/11/1}

Atom   0C    basis set group =>   1
Atom   1C    basis set group =>   1
Atom   2C    basis set group =>   1
Atom   3C    basis set group =>   1
Atom   4C    basis set group =>   1
Atom   5P    basis set group =>   2
Atom   6C    basis set group =>   1
Atom   7C    basis set group =>   1
Atom   8C    basis set group =>   1
Atom   9C    basis set group =>   1
Atom  10C    basis set group =>   1
Atom  11C    basis set group =>   1
Atom  12S    basis set group =>   3
Atom  13C    basis set group =>   1
Atom  14C    basis set group =>   1
Atom  15H    basis set group =>   4
Atom  16H    basis set group =>   4
Atom  17H    basis set group =>   4
Atom  18H    basis set group =>   4
Atom  19H    basis set group =>   4
Atom  20H    basis set group =>   4
Atom  21H    basis set group =>   4
Atom  22H    basis set group =>   4
Atom  23H    basis set group =>   4
---------------------------------
AUXILIARY/J BASIS SET INFORMATION
---------------------------------
There are 4 groups of distinct atoms

 Group   1 Type C   : 10s7p5d2f1g contracted to 10s7p5d2f1g pattern {1111111111/1111111/11111/11/1}
 Group   2 Type P   : 13s11p9d3f1g contracted to 13s11p9d3f1g pattern {1111111111111/11111111111/111111111/111/1}
 Group   3 Type S   : 13s11p9d3f1g contracted to 13s11p9d3f1g pattern {1111111111111/11111111111/111111111/111/1}
 Group   4 Type H   : 4s3p2d1f contracted to 4s3p2d1f pattern {1111/111/11/1}

Atom   0C    basis set group =>   1
Atom   1C    basis set group =>   1
Atom   2C    basis set group =>   1
Atom   3C    basis set group =>   1
Atom   4C    basis set group =>   1
Atom   5P    basis set group =>   2
Atom   6C    basis set group =>   1
Atom   7C    basis set group =>   1
Atom   8C    basis set group =>   1
Atom   9C    basis set group =>   1
Atom  10C    basis set group =>   1
Atom  11C    basis set group =>   1
Atom  12S    basis set group =>   3
Atom  13C    basis set group =>   1
Atom  14C    basis set group =>   1
Atom  15H    basis set group =>   4
Atom  16H    basis set group =>   4
Atom  17H    basis set group =>   4
Atom  18H    basis set group =>   4
Atom  19H    basis set group =>   4
Atom  20H    basis set group =>   4
Atom  21H    basis set group =>   4
Atom  22H    basis set group =>   4
Atom  23H    basis set group =>   4
---------------------------------
AUXILIARY/C BASIS SET INFORMATION
---------------------------------
There are 4 groups of distinct atoms

 Group   1 Type C   : 9s7p6d4f2g contracted to 9s7p6d4f2g pattern {111111111/1111111/111111/1111/11}
 Group   2 Type P   : 11s9p8d6f3g contracted to 11s9p8d6f3g pattern {11111111111/111111111/11111111/111111/111}
 Group   3 Type S   : 11s9p8d6f3g contracted to 11s9p8d6f3g pattern {11111111111/111111111/11111111/111111/111}
 Group   4 Type H   : 4s3p2d1f contracted to 4s3p2d1f pattern {1111/111/11/1}

Atom   0C    basis set group =>   1
Atom   1C    basis set group =>   1
Atom   2C    basis set group =>   1
Atom   3C    basis set group =>   1
Atom   4C    basis set group =>   1
Atom   5P    basis set group =>   2
Atom   6C    basis set group =>   1
Atom   7C    basis set group =>   1
Atom   8C    basis set group =>   1
Atom   9C    basis set group =>   1
Atom  10C    basis set group =>   1
Atom  11C    basis set group =>   1
Atom  12S    basis set group =>   3
Atom  13C    basis set group =>   1
Atom  14C    basis set group =>   1
Atom  15H    basis set group =>   4
Atom  16H    basis set group =>   4
Atom  17H    basis set group =>   4
Atom  18H    basis set group =>   4
Atom  19H    basis set group =>   4
Atom  20H    basis set group =>   4
Atom  21H    basis set group =>   4
Atom  22H    basis set group =>   4
Atom  23H    basis set group =>   4


           ************************************************************
           *        Program running with 4 parallel MPI-processes     *
           *              working on a common directory               *
           ************************************************************
------------------------------------------------------------------------------
                           ORCA GTO INTEGRAL CALCULATION
                           -- RI-GTO INTEGRALS CHOSEN --
------------------------------------------------------------------------------
------------------------------------------------------------------------------
                   ___                                                        
                  /   \      - P O W E R E D   B Y -                         
                 /     \                                                     
                 |  |  |   _    _      __       _____    __    __             
                 |  |  |  | |  | |    /  \     |  _  \  |  |  /  |          
                  \  \/   | |  | |   /    \    | | | |  |  | /  /          
                 / \  \   | |__| |  /  /\  \   | |_| |  |  |/  /          
                |  |  |   |  __  | /  /__\  \  |    /   |      \           
                |  |  |   | |  | | |   __   |  |    \   |  |\   \          
                \     /   | |  | | |  |  |  |  | |\  \  |  | \   \       
                 \___/    |_|  |_| |__|  |__|  |_| \__\ |__|  \__/        
                                                                              
                      - O R C A' S   B I G   F R I E N D -                    
                                      &                                       
                       - I N T E G R A L  F E E D E R -                       
                                                                              
 v1 FN, 2020, v2 2021                                                         
------------------------------------------------------------------------------


Reading SHARK input file wb97x-d3-train-4.SHARKINP.tmp ... ok
----------------------
SHARK INTEGRAL PACKAGE
----------------------

Number of atoms                             ...     24
Number of basis functions                   ...    952
Number of shells                            ...    376
Maximum angular momentum                    ...      3
Integral batch strategy                     ... SHARK/LIBINT Hybrid
RI-J (if used) integral strategy            ... SPLIT-RIJ (Revised 2003 algorithm where possible)
Printlevel                                  ...      1
Contraction scheme used                     ... PARTIAL GENERAL contraction
Coulomb Range Separation                    ... NOT USED
Exchange Range Separation                   ... Long Range
   Mu parameter                             ...  0.250000
   Scaling (regular/separated)              ...  0.195728  0.804272
Finite Nucleus Model                        ... NOT USED
Auxiliary Coulomb fitting basis             ... AVAILABLE
   # of basis functions in Aux-J            ...   1539
   # of shells in Aux-J                     ...    489
   Maximum angular momentum in Aux-J        ...      4
Auxiliary J/K fitting basis                 ... NOT available
Auxiliary Correlation fitting basis         ... AVAILABLE
   # of basis functions in Aux-C            ...   1942
   # of shells in Aux-C                     ...    528
   Maximum angular momentum in Aux-C        ...      4
Auxiliary 'external' fitting basis          ... NOT available
Integral threshold                          ...     2.500000e-11
Primitive cut-off                           ...     2.500000e-12
Primitive pair pre-selection threshold      ...     2.500000e-12

Calculating pre-screening integrals         ... done (  0.2 sec) Dimension = 376
Calculating pre-screening integrals (ORCA)  ... done (  0.5 sec) Dimension = 268
Organizing shell pair data                  ... done (  0.6 sec)
Shell pair information
Total number of shell pairs                 ...     70876
Shell pairs after pre-screening             ...     47964
Total number of primitive shell pairs       ...     88476
Primitive shell pairs kept                  ...     55053
          la=0 lb=0:  10711 shell pairs
          la=1 lb=0:  12470 shell pairs
          la=1 lb=1:   3264 shell pairs
          la=2 lb=0:   7878 shell pairs
          la=2 lb=1:   3956 shell pairs
          la=2 lb=2:   1235 shell pairs
          la=3 lb=0:   4441 shell pairs
          la=3 lb=1:   2247 shell pairs
          la=3 lb=2:   1360 shell pairs
          la=3 lb=3:    402 shell pairs

Calculating one electron integrals          ... done (  0.1 sec)
Calculating RI/J V-Matrix + Cholesky decomp.... done (  0.8 sec)
Calculating RI/C V-Matrix + Cholesky decomp.... done (  0.3 sec)
Calculating Nuclear repulsion               ... done (  0.0 sec) ENN=   1078.649719388112 Eh

SHARK setup successfully completed in   5.6 seconds

Maximum memory used throughout the entire GTOINT-calculation: 85.2 MB


           ************************************************************
           *        Program running with 4 parallel MPI-processes     *
           *              working on a common directory               *
           ************************************************************
-------------------------------------------------------------------------------
                                 ORCA SCF
-------------------------------------------------------------------------------

------------
SCF SETTINGS
------------
Hamiltonian:
 Density Functional     Method          .... DFT(GTOs)
 Exchange Functional    Exchange        .... WB97X-D3
 Correlation Functional Correlation     .... WB97X-D3
 Gradients option       PostSCFGGA      .... off
 Hybrid DFT is turned on
   Fraction HF Exchange ScalHFX         ....  0.195728
   Scaling of DF-GGA-X  ScalDFX         ....  0.000000
   Scaling of DF-GGA-C  ScalDFC         ....  1.000000
   Scaling of DF-LDA-C  ScalLDAC        ....  1.000000
   Perturbative correction              ....  0.000000
   Density functional embedding theory  .... OFF
 Long-range corrected/Screened/Range-Separated Hybrid DFT is turned on
   Amount of maximum screened exact exchange              ....  0.804272
   Range separation parameter mu (erf(mu*r12)/r12)        ....  0.250000
 RI-approximation to the Coulomb term is turned on
   Number of AuxJ basis functions       .... 1539
   RIJ-COSX (HFX calculated with COS-X)).... on


General Settings:
 Integral files         IntName         .... wb97x-d3-train-4
 Hartree-Fock type      HFTyp           .... RHF
 Total Charge           Charge          ....    0
 Multiplicity           Mult            ....    1
 Number of Electrons    NEL             ....  118
 Basis Dimension        Dim             ....  824
 Nuclear Repulsion      ENuc            ....   1078.6497193881 Eh

Convergence Acceleration:
 DIIS                   CNVDIIS         .... on
   Start iteration      DIISMaxIt       ....    12
   Startup error        DIISStart       ....  0.200000
   # of expansion vecs  DIISMaxEq       ....     5
   Bias factor          DIISBfac        ....   1.050
   Max. coefficient     DIISMaxC        ....  10.000
 Trust-Rad. Augm. Hess. CNVTRAH         .... auto
   Auto Start mean grad. ratio tolernc. ....  1.125000
   Auto Start start iteration           ....    20
   Auto Start num. interpolation iter.  ....    10
   Max. Number of Micro iterations      ....    16
   Max. Number of Macro iterations      .... Maxiter - #DIIS iter
   Number of Davidson start vectors     ....     2
   Converg. threshold I  (grad. norm)   ....   1.000e-05
   Converg. threshold II (energy diff.) ....   1.000e-08
   Grad. Scal. Fac. for Micro threshold ....   0.100
   Minimum threshold for Micro iter.    ....   0.010
   NR start threshold (gradient norm)   ....   0.001
   Initial trust radius                 ....   0.400
   Minimum AH scaling param. (alpha)    ....   1.000
   Maximum AH scaling param. (alpha)    .... 1000.000
   Orbital update algorithm             .... Taylor
   White noise on init. David. guess    .... on
   Maximum white noise                  ....   0.010
   Quad. conv. algorithm                .... NR
 SOSCF                  CNVSOSCF        .... on
   Start iteration      SOSCFMaxIt      ....   150
   Startup grad/error   SOSCFStart      ....  0.003300
 Level Shifting         CNVShift        .... on
   Level shift para.    LevelShift      ....    0.2500
   Turn off err/grad.   ShiftErr        ....    0.0010
 Zerner damping         CNVZerner       .... off
 Static damping         CNVDamp         .... on
   Fraction old density DampFac         ....    0.7000
   Max. Damping (<1)    DampMax         ....    0.9800
   Min. Damping (>=0)   DampMin         ....    0.0000
   Turn off err/grad.   DampErr         ....    0.1000
 Fernandez-Rico         CNVRico         .... off

SCF Procedure:
 Maximum # iterations   MaxIter         ....   125
 SCF integral mode      SCFMode         .... Direct
   Integral package                     .... SHARK and LIBINT hybrid scheme
 Reset frequency        DirectResetFreq ....    20
 Integral Threshold     Thresh          ....  2.500e-11 Eh
 Primitive CutOff       TCut            ....  2.500e-12 Eh

Convergence Tolerance:
 Convergence Check Mode ConvCheckMode   .... Total+1el-Energy
 Convergence forced     ConvForced      .... 0
 Energy Change          TolE            ....  1.000e-08 Eh
 1-El. energy change                    ....  1.000e-05 Eh
 Orbital Gradient       TolG            ....  1.000e-05
 Orbital Rotation angle TolX            ....  1.000e-05
 DIIS Error             TolErr          ....  5.000e-07


Diagonalization of the overlap matrix:
Smallest eigenvalue                        ... 9.689e-07
Time for diagonalization                   ...    0.229 sec
Threshold for overlap eigenvalues          ... 1.000e-08
Number of eigenvalues below threshold      ... 0
Time for construction of square roots      ...    0.136 sec
Total time needed                          ...    0.369 sec

Time for model grid setup =    0.448 sec

------------------------------
INITIAL GUESS: MODEL POTENTIAL
------------------------------
Loading Hartree-Fock densities                     ... done
Calculating cut-offs                               ... done
Initializing the effective Hamiltonian             ... done
Setting up the integral package (SHARK)            ... done
Starting the Coulomb interaction                   ... done (   1.5 sec)
Reading the grid                                   ... done
Mapping shells                                     ... done
Starting the XC term evaluation                    ... done (   1.3 sec)
  promolecular density results
     # of electrons  =    117.995472245
     EX              =   -116.624389956
     EC              =     -4.118119364
     EX+EC           =   -120.742509320
Transforming the Hamiltonian                       ... done (   0.1 sec)
Diagonalizing the Hamiltonian                      ... done (   0.2 sec)
Back transforming the eigenvectors                 ... done (   0.1 sec)
Now organizing SCF variables                       ... done
                      ------------------
                      INITIAL GUESS DONE (   3.7 sec)
                      ------------------
-------------------
DFT GRID GENERATION
-------------------

General Integration Accuracy     IntAcc      ... 4.388
Radial Grid Type                 RadialGrid  ... OptM3 with GC (2021)
Angular Grid (max. ang.)         AngularGrid ... 4 (Lebedev-302)
Angular grid pruning method      GridPruning ... 4 (adaptive)
Weight generation scheme         WeightScheme... Becke
Basis function cutoff            BFCut       ... 1.0000e-11
Integration weight cutoff        WCut        ... 1.0000e-14
Angular grids for H and He will be reduced by one unit
Partially contracted basis set               ... off
Rotationally invariant grid construction     ... off

Total number of grid points                  ...   125109
Total number of batches                      ...     1965
Average number of points per batch           ...       63
Average number of grid points per atom       ...     5213
Time for grid setup =    1.542 sec

--------------------
COSX GRID GENERATION
--------------------

GRIDX 1
-------
General Integration Accuracy     IntAcc      ... 3.816
Radial Grid Type                 RadialGrid  ... OptM3 with GC (2021)
Angular Grid (max. ang.)         AngularGrid ... 1 (Lebedev-50)
Angular grid pruning method      GridPruning ... 4 (adaptive)
Weight generation scheme         WeightScheme... Becke
Basis function cutoff            BFCut       ... 1.0000e-11
Integration weight cutoff        WCut        ... 1.0000e-14
Angular grids for H and He will be reduced by one unit
Partially contracted basis set               ... on
Rotationally invariant grid construction     ... off

Total number of grid points                  ...    15745
Total number of batches                      ...      257
Average number of points per batch           ...       61
Average number of grid points per atom       ...      656
UseSFitting                                  ... on

GRIDX 2
-------
General Integration Accuracy     IntAcc      ... 4.020
Radial Grid Type                 RadialGrid  ... OptM3 with GC (2021)
Angular Grid (max. ang.)         AngularGrid ... 2 (Lebedev-110)
Angular grid pruning method      GridPruning ... 4 (adaptive)
Weight generation scheme         WeightScheme... Becke
Basis function cutoff            BFCut       ... 1.0000e-11
Integration weight cutoff        WCut        ... 1.0000e-14
Angular grids for H and He will be reduced by one unit
Partially contracted basis set               ... on
Rotationally invariant grid construction     ... off

Total number of grid points                  ...    37919
Total number of batches                      ...      605
Average number of points per batch           ...       62
Average number of grid points per atom       ...     1580
UseSFitting                                  ... on

GRIDX 3
-------
General Integration Accuracy     IntAcc      ... 4.338
Radial Grid Type                 RadialGrid  ... OptM3 with GC (2021)
Angular Grid (max. ang.)         AngularGrid ... 3 (Lebedev-194)
Angular grid pruning method      GridPruning ... 4 (adaptive)
Weight generation scheme         WeightScheme... Becke
Basis function cutoff            BFCut       ... 1.0000e-11
Integration weight cutoff        WCut        ... 1.0000e-14
Angular grids for H and He will be reduced by one unit
Partially contracted basis set               ... on
Rotationally invariant grid construction     ... off

Total number of grid points                  ...    83164
Total number of batches                      ...     1311
Average number of points per batch           ...       63
Average number of grid points per atom       ...     3465
UseSFitting                                  ... on

Time for X-Grid setup             =    4.070 sec


--------------------
CPCM SOLVATION MODEL
--------------------
CPCM parameters:
  Epsilon                                         ...      35.6880
  Refrac                                          ...       1.3442
  Rsolv                                           ...       1.3000
  Surface type                                    ... GAUSSIAN VDW
  Epsilon function type                           ...         CPCM
Solvent:                                     ... ACETONITRILE
SMD-CDS solvent descriptors:
  Soln                                       ...    1.3442
  Soln25                                     ...    1.3416
  Sola                                       ...    0.0700
  Solb                                       ...    0.3200
  Solg                                       ...   41.2500
  Solc                                       ...    0.0000
  Solh                                       ...    0.0000
Radii:
 Radius for C  used is    3.4960 Bohr (=   1.8500 Ang.)
 Radius for P  used is    4.0062 Bohr (=   2.1200 Ang.)
 Radius for S  used is    4.7054 Bohr (=   2.4900 Ang.)
 Radius for H  used is    2.2677 Bohr (=   1.2000 Ang.)
Calculating surface                               ...        done! (  0.0s)
GEPOL surface points                              ...         1337
GEPOL Volume                                      ...    1598.9572
GEPOL Surface-area                                ...     850.5654
Calculating surface distance matrix               ...        done! (  0.0s)
Performing Cholesky decomposition & store         ...        done! (  0.1s)
Overall time for CPCM initialization              ...                 0.1s
 re-compute Schwartz prescreening matrix in partically contracted basis (1) ...done (   0.195 sec)
--------------
SCF ITERATIONS
--------------
ITER       Energy         Delta-E        Max-DP      RMS-DP      [F,P]     Damp
               ***  Starting incremental Fock matrix formation  ***
  0  -1240.0573896869   0.000000000000 0.14068032  0.00124160  0.1402269 0.7000
  1  -1240.1882778064  -0.130888119570 0.10778379  0.00096320  0.0841773 0.7000
                               ***Turning on DIIS***
  2  -1240.2583478312  -0.070070024739 0.23411771  0.00225970  0.0429186 0.0000
  3  -1240.3732043554  -0.114856524219 0.06432626  0.00070748  0.0354897 0.0000
  4  -1240.3909016087  -0.017697253317 0.02940159  0.00030427  0.0057708 0.0000
                      *** Initiating the SOSCF procedure ***
                           *** Shutting down DIIS ***
                      *** Re-Reading the Fockian *** 
                      *** Removing any level shift *** 
ITER      Energy       Delta-E        Grad      Rot      Max-DP    RMS-DP
  5  -1240.39170884  -0.0008072341  0.002493  0.002493  0.021134  0.000139
               *** Restarting incremental Fock matrix formation ***
  6  -1240.39195708  -0.0002482404  0.001537  0.005674  0.061366  0.001053
  7  -1240.39209902  -0.0001419378  0.000886  0.007898  0.029385  0.000507
  8  -1240.39214774  -0.0000487141  0.000397  0.000774  0.026539  0.000451
  9  -1240.39215924  -0.0000115071  0.000153  0.000297  0.001371  0.000022
 10  -1240.39216035  -0.0000011099  0.000079  0.000365  0.001701  0.000024
 11  -1240.39216055  -0.0000001955  0.000021  0.000227  0.001681  0.000017
 12  -1240.39216057  -0.0000000232  0.000009  0.000049  0.001130  0.000014
 13  -1240.39216058  -0.0000000071  0.000005  0.000019  0.001177  0.000015
                  ***Gradient check signals convergence***
              ***Rediagonalizing the Fockian in SOSCF/NRSCF***

               *****************************************************
               *                     SUCCESS                       *
               *           SCF CONVERGED AFTER  14 CYCLES          *
               *****************************************************

Old exchange energy                            =    -35.810707126 Eh
New exchange energy                            =    -35.810620769 Eh
Exchange energy change after final integration =      0.000086357 Eh
Total energy after final integration           =  -1240.392074190 Eh
Final COS-X integration done in                =   124.059 sec

SMD CDS free energy correction energy :                -2.96894     Kcal/mol
Total Energy after SMD CDS correction =             -1240.396805503 Eh

----------------
TOTAL SCF ENERGY
----------------

Total Energy       :        -1240.39680550 Eh          -33752.91304 eV

Components:
Nuclear Repulsion  :         1078.64971939 Eh           29351.55107 eV
Electronic Energy  :        -2319.04652489 Eh          -63104.46411 eV
One Electron Energy:        -3841.81543511 Eh         -104541.11276 eV
Two Electron Energy:         1522.76891022 Eh           41436.64865 eV
Max COSX asymmetry :            0.00002307 Eh               0.00063 eV
CPCM Dielectric    :           -0.01225519 Eh              -0.33348 eV
SMD CDS (Gcds)     :           -0.00473131 Eh              -0.12875 eV

Virial components:
Potential Energy   :        -2476.00348525 Eh          -67375.48014 eV
Kinetic Energy     :         1235.60667975 Eh           33622.56709 eV
Virial Ratio       :            2.00387674


DFT components:
N(Alpha)           :       58.999967210317 electrons
N(Beta)            :       58.999967210317 electrons
N(Total)           :      117.999934420634 electrons
E(XC)              :      -87.033347639187 Eh       
DFET-embed. en.    :        0.000000000000 Eh       
CPCM Solvation Model Properties:
Surface-charge          :           -0.05251588
Charge-correction       :            0.00037001 Eh               0.01007 eV
Free-energy (cav+disp)  :           -0.00473131 Eh              -0.12875 eV

---------------
SCF CONVERGENCE
---------------

  Last Energy change         ...    3.1038e-08  Tolerance :   1.0000e-08
  Last MAX-Density change    ...    2.6645e-15  Tolerance :   1.0000e-07
  Last RMS-Density change    ...    1.6195e-17  Tolerance :   5.0000e-09
  Last Orbital Gradient      ...    1.3288e-06  Tolerance :   1.0000e-05
  Last Orbital Rotation      ...    1.1108e-05  Tolerance :   1.0000e-05

             **** THE GBW FILE WAS UPDATED (wb97x-d3-train-4.gbw) ****
             **** DENSITY wb97x-d3-train-4.scfp WAS UPDATED ****
             **** ENERGY FILE WAS UPDATED (wb97x-d3-train-4.en.tmp) ****
             **** THE GBW FILE WAS UPDATED (wb97x-d3-train-4.gbw) ****
             **** DENSITY wb97x-d3-train-4.scfp WAS UPDATED ****
----------------
ORBITAL ENERGIES
----------------

  NO   OCC          E(Eh)            E(eV) 
   0   2.0000     -89.017991     -2422.3027 
   1   2.0000     -77.172402     -2099.9678 
   2   2.0000     -10.341647      -281.4105 
   3   2.0000     -10.327880      -281.0359 
   4   2.0000     -10.306332      -280.4496 
   5   2.0000     -10.301019      -280.3050 
   6   2.0000     -10.291276      -280.0399 
   7   2.0000     -10.289267      -279.9852 
   8   2.0000     -10.288221      -279.9567 
   9   2.0000     -10.287258      -279.9305 
  10   2.0000     -10.286846      -279.9193 
  11   2.0000     -10.284462      -279.8544 
  12   2.0000     -10.284014      -279.8422 
  13   2.0000     -10.283577      -279.8304 
  14   2.0000     -10.283208      -279.8203 
  15   2.0000      -8.091489      -220.1806 
  16   2.0000      -6.660562      -181.2431 
  17   2.0000      -6.045941      -164.5184 
  18   2.0000      -6.041961      -164.4101 
  19   2.0000      -6.038654      -164.3201 
  20   2.0000      -4.813003      -130.9685 
  21   2.0000      -4.812099      -130.9439 
  22   2.0000      -4.808992      -130.8593 
  23   2.0000      -1.013269       -27.5725 
  24   2.0000      -0.992378       -27.0040 
  25   2.0000      -0.950226       -25.8570 
  26   2.0000      -0.896432       -24.3932 
  27   2.0000      -0.882563       -24.0158 
  28   2.0000      -0.872649       -23.7460 
  29   2.0000      -0.838476       -22.8161 
  30   2.0000      -0.801109       -21.7993 
  31   2.0000      -0.743482       -20.2312 
  32   2.0000      -0.727268       -19.7900 
  33   2.0000      -0.708980       -19.2923 
  34   2.0000      -0.684420       -18.6240 
  35   2.0000      -0.664225       -18.0745 
  36   2.0000      -0.620118       -16.8743 
  37   2.0000      -0.588760       -16.0210 
  38   2.0000      -0.578192       -15.7334 
  39   2.0000      -0.573062       -15.5938 
  40   2.0000      -0.545872       -14.8539 
  41   2.0000      -0.544468       -14.8157 
  42   2.0000      -0.526694       -14.3321 
  43   2.0000      -0.519473       -14.1356 
  44   2.0000      -0.517243       -14.0749 
  45   2.0000      -0.505769       -13.7627 
  46   2.0000      -0.493803       -13.4371 
  47   2.0000      -0.479024       -13.0349 
  48   2.0000      -0.452506       -12.3133 
  49   2.0000      -0.444953       -12.1078 
  50   2.0000      -0.441093       -12.0028 
  51   2.0000      -0.436543       -11.8789 
  52   2.0000      -0.423613       -11.5271 
  53   2.0000      -0.385020       -10.4769 
  54   2.0000      -0.369661       -10.0590 
  55   2.0000      -0.367387        -9.9971 
  56   2.0000      -0.350918        -9.5490 
  57   2.0000      -0.318150        -8.6573 
  58   2.0000      -0.289192        -7.8693 
  59   0.0000      -0.017627        -0.4796 
  60   0.0000       0.046402         1.2627 
  61   0.0000       0.050408         1.3717 
  62   0.0000       0.050908         1.3853 
  63   0.0000       0.052189         1.4201 
  64   0.0000       0.056384         1.5343 
  65   0.0000       0.064996         1.7686 
  66   0.0000       0.066001         1.7960 
  67   0.0000       0.066180         1.8009 
  68   0.0000       0.073824         2.0088 
  69   0.0000       0.078387         2.1330 
  70   0.0000       0.080963         2.2031 
  71   0.0000       0.083536         2.2731 
  72   0.0000       0.090296         2.4571 
  73   0.0000       0.091334         2.4853 
  74   0.0000       0.096482         2.6254 
  75   0.0000       0.097562         2.6548 
  76   0.0000       0.098560         2.6819 
  77   0.0000       0.099949         2.7197 
  78   0.0000       0.101432         2.7601 
  79   0.0000       0.114258         3.1091 
  80   0.0000       0.117475         3.1967 
  81   0.0000       0.118059         3.2126 
  82   0.0000       0.123833         3.3697 
  83   0.0000       0.129726         3.5300 
  84   0.0000       0.137902         3.7525 
  85   0.0000       0.141045         3.8380 
  86   0.0000       0.141329         3.8458 
  87   0.0000       0.143068         3.8931 
  88   0.0000       0.146678         3.9913 
  89   0.0000       0.147707         4.0193 
  90   0.0000       0.154336         4.1997 
  91   0.0000       0.165258         4.4969 
  92   0.0000       0.166605         4.5336 
  93   0.0000       0.167419         4.5557 
  94   0.0000       0.171680         4.6716 
  95   0.0000       0.172297         4.6884 
  96   0.0000       0.173711         4.7269 
  97   0.0000       0.181164         4.9297 
  98   0.0000       0.182219         4.9584 
  99   0.0000       0.184929         5.0322 
 100   0.0000       0.190006         5.1703 
 101   0.0000       0.191258         5.2044 
 102   0.0000       0.193359         5.2616 
 103   0.0000       0.195200         5.3117 
 104   0.0000       0.195869         5.3299 
 105   0.0000       0.202991         5.5237 
 106   0.0000       0.207143         5.6366 
 107   0.0000       0.209202         5.6927 
 108   0.0000       0.209488         5.7005 
 109   0.0000       0.211106         5.7445 
 110   0.0000       0.213438         5.8079 
 111   0.0000       0.215033         5.8513 
 112   0.0000       0.219463         5.9719 
 113   0.0000       0.222111         6.0439 
 114   0.0000       0.227447         6.1892 
 115   0.0000       0.230790         6.2801 
 116   0.0000       0.232881         6.3370 
 117   0.0000       0.233674         6.3586 
 118   0.0000       0.239448         6.5157 
 119   0.0000       0.245547         6.6817 
 120   0.0000       0.247864         6.7447 
 121   0.0000       0.251103         6.8329 
 122   0.0000       0.253968         6.9108 
 123   0.0000       0.258419         7.0319 
 124   0.0000       0.264568         7.1993 
 125   0.0000       0.265427         7.2226 
 126   0.0000       0.276121         7.5136 
 127   0.0000       0.278365         7.5747 
 128   0.0000       0.285295         7.7633 
 129   0.0000       0.286924         7.8076 
 130   0.0000       0.292011         7.9460 
 131   0.0000       0.301543         8.2054 
 132   0.0000       0.307121         8.3572 
 133   0.0000       0.310131         8.4391 
 134   0.0000       0.310176         8.4403 
 135   0.0000       0.313926         8.5424 
 136   0.0000       0.316189         8.6039 
 137   0.0000       0.318068         8.6551 
 138   0.0000       0.319136         8.6841 
 139   0.0000       0.325995         8.8708 
 140   0.0000       0.328107         8.9283 
 141   0.0000       0.339103         9.2275 
 142   0.0000       0.340506         9.2656 
 143   0.0000       0.346302         9.4233 
 144   0.0000       0.347670         9.4606 
 145   0.0000       0.351643         9.5687 
 146   0.0000       0.354919         9.6578 
 147   0.0000       0.357459         9.7270 
 148   0.0000       0.359303         9.7771 
 149   0.0000       0.368496        10.0273 
 150   0.0000       0.369490        10.0543 
 151   0.0000       0.371772        10.1164 
 152   0.0000       0.380897        10.3647 
 153   0.0000       0.382057        10.3963 
 154   0.0000       0.384847        10.4722 
 155   0.0000       0.395236        10.7549 
 156   0.0000       0.397076        10.8050 
 157   0.0000       0.399109        10.8603 
 158   0.0000       0.399492        10.8707 
 159   0.0000       0.407007        11.0752 
 160   0.0000       0.410303        11.1649 
 161   0.0000       0.413669        11.2565 
 162   0.0000       0.415825        11.3152 
 163   0.0000       0.425903        11.5894 
 164   0.0000       0.430088        11.7033 
 165   0.0000       0.434510        11.8236 
 166   0.0000       0.437180        11.8963 
 167   0.0000       0.438942        11.9442 
 168   0.0000       0.442417        12.0388 
 169   0.0000       0.444222        12.0879 
 170   0.0000       0.448849        12.2138 
 171   0.0000       0.449899        12.2424 
 172   0.0000       0.459206        12.4956 
 173   0.0000       0.463811        12.6209 
 174   0.0000       0.466426        12.6921 
 175   0.0000       0.467847        12.7308 
 176   0.0000       0.468545        12.7497 
 177   0.0000       0.469137        12.7659 
 178   0.0000       0.475314        12.9340 
 179   0.0000       0.476739        12.9727 
 180   0.0000       0.481635        13.1059 
 181   0.0000       0.482197        13.1213 
 182   0.0000       0.483789        13.1646 
 183   0.0000       0.487948        13.2777 
 184   0.0000       0.490604        13.3500 
 185   0.0000       0.494153        13.4466 
 186   0.0000       0.497430        13.5358 
 187   0.0000       0.502760        13.6808 
 188   0.0000       0.506857        13.7923 
 189   0.0000       0.508674        13.8417 
 190   0.0000       0.513207        13.9651 
 191   0.0000       0.515775        14.0349 
 192   0.0000       0.521760        14.1978 
 193   0.0000       0.526886        14.3373 
 194   0.0000       0.530981        14.4487 
 195   0.0000       0.536434        14.5971 
 196   0.0000       0.537414        14.6238 
 197   0.0000       0.541802        14.7432 
 198   0.0000       0.547270        14.8920 
 199   0.0000       0.549263        14.9462 
 200   0.0000       0.560363        15.2483 
 201   0.0000       0.561757        15.2862 
 202   0.0000       0.563515        15.3340 
 203   0.0000       0.567391        15.4395 
 204   0.0000       0.570802        15.5323 
 205   0.0000       0.572157        15.5692 
 206   0.0000       0.575821        15.6689 
 207   0.0000       0.582116        15.8402 
 208   0.0000       0.587112        15.9761 
 209   0.0000       0.588907        16.0250 
 210   0.0000       0.595438        16.2027 
 211   0.0000       0.604861        16.4591 
 212   0.0000       0.610048        16.6003 
 213   0.0000       0.618334        16.8257 
 214   0.0000       0.620607        16.8876 
 215   0.0000       0.634509        17.2659 
 216   0.0000       0.635051        17.2806 
 217   0.0000       0.653060        17.7707 
 218   0.0000       0.660083        17.9618 
 219   0.0000       0.662349        18.0234 
 220   0.0000       0.667719        18.1696 
 221   0.0000       0.668766        18.1981 
 222   0.0000       0.684121        18.6159 
 223   0.0000       0.691197        18.8084 
 224   0.0000       0.693675        18.8759 
 225   0.0000       0.705303        19.1923 
 226   0.0000       0.705727        19.2038 
 227   0.0000       0.711177        19.3521 
 228   0.0000       0.713561        19.4170 
 229   0.0000       0.722490        19.6600 
 230   0.0000       0.724486        19.7143 
 231   0.0000       0.724642        19.7185 
 232   0.0000       0.726291        19.7634 
 233   0.0000       0.734266        19.9804 
 234   0.0000       0.736747        20.0479 
 235   0.0000       0.740716        20.1559 
 236   0.0000       0.743950        20.2439 
 237   0.0000       0.746835        20.3224 
 238   0.0000       0.750027        20.4093 
 239   0.0000       0.759573        20.6690 
 240   0.0000       0.763101        20.7650 
 241   0.0000       0.765498        20.8303 
 242   0.0000       0.770510        20.9666 
 243   0.0000       0.776742        21.1362 
 244   0.0000       0.779520        21.2118 
 245   0.0000       0.784461        21.3463 
 246   0.0000       0.785064        21.3627 
 247   0.0000       0.790804        21.5189 
 248   0.0000       0.794079        21.6080 
 249   0.0000       0.795017        21.6335 
 250   0.0000       0.806205        21.9380 
 251   0.0000       0.809445        22.0261 
 252   0.0000       0.814242        22.1567 
 253   0.0000       0.814631        22.1672 
 254   0.0000       0.821709        22.3598 
 255   0.0000       0.828331        22.5400 
 256   0.0000       0.832906        22.6645 
 257   0.0000       0.837851        22.7991 
 258   0.0000       0.838413        22.8144 
 259   0.0000       0.843302        22.9474 
 260   0.0000       0.844020        22.9669 
 261   0.0000       0.845882        23.0176 
 262   0.0000       0.849281        23.1101 
 263   0.0000       0.853589        23.2273 
 264   0.0000       0.858341        23.3566 
 265   0.0000       0.859875        23.3984 
 266   0.0000       0.862458        23.4687 
 267   0.0000       0.870592        23.6900 
 268   0.0000       0.873720        23.7751 
 269   0.0000       0.877575        23.8800 
 270   0.0000       0.884858        24.0782 
 271   0.0000       0.887445        24.1486 
 272   0.0000       0.891408        24.2564 
 273   0.0000       0.899416        24.4743 
 274   0.0000       0.907953        24.7067 
 275   0.0000       0.908354        24.7176 
[...]
   Memory needed                 ...  1165 MB
   Memory available              ...  4000 MB
   Number of vectors per batch   ...   102
   Number of batches             ...     1
   Time for densities:            0.329
   Time for RI-J (Direct):       10.126
   Time for K (COSX):            56.726
   Time for XC-Integration:      24.573
   Time for LR-CPCM terms:       11.217
   Time for Sigma-Completion:     0.240
   Size of expansion space: 30
   Lowest Energy          :     0.162367254211
   Maximum Energy change  :     0.241678416245 (vector 9)
   Maximum residual norm  :     0.015665161992

                       ****Iteration    1****
   Time for densities:            0.113
   Time for RI-J (Direct):        5.924
   Time for K (COSX):            23.754
   Time for XC-Integration:       8.432
   Time for LR-CPCM terms:        5.201
   Time for Sigma-Completion:     0.078
   Size of expansion space: 40
   Lowest Energy          :     0.142804791929
   Maximum Energy change  :     0.019562462282 (vector 0)
   Maximum residual norm  :     0.001275035410

                       ****Iteration    2****
   Time for densities:            0.111
   Time for RI-J (Direct):        5.982
   Time for K (COSX):            23.916
   Time for XC-Integration:       8.545
   Time for LR-CPCM terms:        5.217
   Time for Sigma-Completion:     0.080
   Size of expansion space: 50
   Lowest Energy          :     0.141201193017
   Maximum Energy change  :     0.003917110467 (vector 9)
   Maximum residual norm  :     0.000494143458

                       ****Iteration    3****
   Time for densities:            0.112
   Time for RI-J (Direct):        5.984
   Time for K (COSX):            23.892
   Time for XC-Integration:       8.683
   Time for LR-CPCM terms:        5.241
   Time for Sigma-Completion:     0.079
   Size of expansion space: 60
   Lowest Energy          :     0.141059273334
   Maximum Energy change  :     0.001172281562 (vector 9)
   Maximum residual norm  :     0.000152447013

                       ****Iteration    4****
   Time for densities:            0.111
   Time for RI-J (Direct):        5.995
   Time for K (COSX):            24.099
   Time for XC-Integration:       8.716
   Time for LR-CPCM terms:        5.236
   Time for Sigma-Completion:     0.078
   Size of expansion space: 70
   Lowest Energy          :     0.141042346280
   Maximum Energy change  :     0.000376201286 (vector 9)
   Maximum residual norm  :     0.000053764285
   Rebuilding the expansion space

                       ****Iteration    5****
   Time for densities:            0.217
   Time for RI-J (Direct):        7.941
   Time for K (COSX):            39.329
   Time for XC-Integration:      16.776
   Time for LR-CPCM terms:        8.289
   Time for Sigma-Completion:     0.162
   Size of expansion space: 20
   Lowest Energy          :     0.141041312719
   Maximum Energy change  :     0.000083599584 (vector 9)
   Maximum residual norm  :     0.000013406958

                       ****Iteration    6****
   Time for densities:            0.110
   Time for RI-J (Direct):        6.019
   Time for K (COSX):            23.963
   Time for XC-Integration:       8.733
   Time for LR-CPCM terms:        5.224
   Time for Sigma-Completion:     0.078
   Size of expansion space: 30
   Lowest Energy          :     0.141041167530
   Maximum Energy change  :     0.000032754349 (vector 9)
   Maximum residual norm  :     0.000006052651

                       ****Iteration    7****
   Time for densities:            0.110
   Time for RI-J (Direct):        5.987
   Time for K (COSX):            23.952
   Time for XC-Integration:       8.721
   Time for LR-CPCM terms:        5.259
   Time for Sigma-Completion:     0.083
   Size of expansion space: 40
   Lowest Energy          :     0.141041149666
   Maximum Energy change  :     0.000022588057 (vector 9)
   Maximum residual norm  :     0.000006438027

                       ****Iteration    8****
   Time for densities:            0.112
   Time for RI-J (Direct):        5.992
   Time for K (COSX):            23.984
   Time for XC-Integration:       8.807
   Time for LR-CPCM terms:        5.227
   Time for Sigma-Completion:     0.079
   Size of expansion space: 50
   Lowest Energy          :     0.141041147906
   Maximum Energy change  :     0.000018642531 (vector 9)
   Maximum residual norm  :     0.000002859156

                       ****Iteration    9****
   Time for densities:            0.114
   Time for RI-J (Direct):        6.013
   Time for K (COSX):            23.966
   Time for XC-Integration:       8.815
   Time for LR-CPCM terms:        5.218
   Time for Sigma-Completion:     0.079
   Size of expansion space: 60
   Lowest Energy          :     0.141041147673
   Maximum Energy change  :     0.000008541415 (vector 9)
   Maximum residual norm  :     0.000001538917

                       ****Iteration   10****
   Time for densities:            0.112
   Time for RI-J (Direct):        6.013
   Time for K (COSX):            23.901
   Time for XC-Integration:       8.857
   Time for LR-CPCM terms:        5.230
   Time for Sigma-Completion:     0.079
   Size of expansion space: 70
   Lowest Energy          :     0.141041147659
   Maximum Energy change  :     0.000002777018 (vector 9)
   Maximum residual norm  :     0.000000227788

      *** CONVERGENCE OF RESIDUAL NORM REACHED ***

Storing the converged CI vectors               ... wb97x-d3-train-4_job2.cis1

                 *** DAVIDSON DONE ***

Total time for solving the CIS problem:   574.769sec

------------------------------------
TD-DFT/TDA EXCITED STATES (SINGLETS)
------------------------------------

the weight of the individual excitations are printed if larger than 1.0e-02

STATE  1:  E=   0.141041 au      3.838 eV    30955.0 cm**-1 <S**2> =   0.000000
    57a ->  59a  :     0.012704 (c= -0.11271078)
    58a ->  59a  :     0.921444 (c=  0.95991851)

STATE  2:  E=   0.162007 au      4.408 eV    35556.5 cm**-1 <S**2> =   0.000000
    57a ->  59a  :     0.823352 (c= -0.90738727)
    58a ->  60a  :     0.071479 (c=  0.26735531)

STATE  3:  E=   0.178628 au      4.861 eV    39204.4 cm**-1 <S**2> =   0.000000
    54a ->  59a  :     0.809138 (c= -0.89952115)
    54a ->  72a  :     0.016435 (c=  0.12820017)
    55a ->  59a  :     0.129109 (c=  0.35931791)

STATE  4:  E=   0.182599 au      4.969 eV    40075.8 cm**-1 <S**2> =   0.000000
    55a ->  60a  :     0.021832 (c= -0.14775489)
    55a ->  66a  :     0.011788 (c= -0.10857249)
    56a ->  59a  :     0.549703 (c=  0.74141979)
    56a ->  70a  :     0.044560 (c= -0.21109342)
    57a ->  60a  :     0.033688 (c= -0.18354337)
    57a ->  65a  :     0.011552 (c= -0.10748181)
    57a ->  66a  :     0.020220 (c= -0.14219780)
    58a ->  60a  :     0.119068 (c=  0.34506204)
    58a ->  61a  :     0.018749 (c= -0.13692516)
    58a ->  65a  :     0.030918 (c=  0.17583531)
    58a ->  66a  :     0.051559 (c=  0.22706571)

STATE  5:  E=   0.193211 au      5.258 eV    42404.8 cm**-1 <S**2> =   0.000000
    53a ->  59a  :     0.033416 (c=  0.18280121)
    55a ->  59a  :     0.017489 (c= -0.13224689)
    55a ->  60a  :     0.016091 (c= -0.12684966)
    55a ->  61a  :     0.020162 (c= -0.14199340)
    56a ->  59a  :     0.021462 (c=  0.14649872)
    57a ->  59a  :     0.074283 (c= -0.27254979)
    57a ->  60a  :     0.050825 (c= -0.22544336)
    57a ->  61a  :     0.072422 (c=  0.26911259)
    57a ->  65a  :     0.016892 (c=  0.12996732)
    57a ->  66a  :     0.029364 (c=  0.17135996)
    58a ->  60a  :     0.428580 (c= -0.65466056)
    58a ->  61a  :     0.036308 (c= -0.19054751)
    58a ->  65a  :     0.033182 (c=  0.18215904)
    58a ->  66a  :     0.060050 (c=  0.24505135)

STATE  6:  E=   0.198002 au      5.388 eV    43456.5 cm**-1 <S**2> =   0.000000
    53a ->  73a  :     0.012852 (c= -0.11336669)
    57a ->  62a  :     0.023389 (c= -0.15293484)
    57a ->  73a  :     0.015845 (c=  0.12587774)
    58a ->  62a  :     0.261087 (c= -0.51096687)
    58a ->  63a  :     0.020962 (c= -0.14478278)
    58a ->  64a  :     0.013757 (c=  0.11729038)
    58a ->  65a  :     0.026311 (c= -0.16220680)
    58a ->  66a  :     0.011026 (c=  0.10500589)
    58a ->  68a  :     0.109665 (c= -0.33115656)
    58a ->  69a  :     0.076452 (c= -0.27650044)
    58a ->  73a  :     0.191450 (c=  0.43755020)
    58a ->  74a  :     0.116911 (c= -0.34192299)

STATE  7:  E=   0.200932 au      5.468 eV    44099.6 cm**-1 <S**2> =   0.000000
    55a ->  59a  :     0.015901 (c= -0.12609749)
    56a ->  59a  :     0.038965 (c= -0.19739656)
    57a ->  60a  :     0.064179 (c= -0.25333594)
    57a ->  61a  :     0.084410 (c= -0.29053474)
    58a ->  60a  :     0.013133 (c=  0.11459724)
    58a ->  61a  :     0.680101 (c= -0.82468244)
    58a ->  62a  :     0.011228 (c= -0.10596016)

STATE  8:  E=   0.214537 au      5.838 eV    47085.3 cm**-1 <S**2> =   0.000000
    53a ->  59a  :     0.015126 (c=  0.12298784)
    54a ->  59a  :     0.032951 (c= -0.18152320)
    55a ->  59a  :     0.220504 (c= -0.46957810)
    55a ->  60a  :     0.010313 (c= -0.10155114)
    56a ->  59a  :     0.135287 (c= -0.36781368)
    56a ->  60a  :     0.015382 (c= -0.12402543)
    56a ->  61a  :     0.011278 (c=  0.10619799)
    57a ->  60a  :     0.015437 (c= -0.12424562)
    57a ->  61a  :     0.164141 (c=  0.40514346)
    57a ->  70a  :     0.010093 (c=  0.10046473)
    58a ->  60a  :     0.206411 (c=  0.45432521)
    58a ->  61a  :     0.012382 (c=  0.11127432)
    58a ->  65a  :     0.018791 (c=  0.13707978)
    58a ->  66a  :     0.028563 (c=  0.16900697)

STATE  9:  E=   0.216390 au      5.888 eV    47492.2 cm**-1 <S**2> =   0.000000
    57a ->  62a  :     0.011570 (c= -0.10756372)
    58a ->  62a  :     0.042471 (c= -0.20608538)
    58a ->  63a  :     0.220133 (c= -0.46918301)
    58a ->  65a  :     0.033255 (c= -0.18235864)
    58a ->  66a  :     0.016978 (c=  0.13029896)
    58a ->  68a  :     0.489711 (c=  0.69979326)
    58a ->  69a  :     0.022723 (c= -0.15073989)
    58a ->  71a  :     0.051374 (c= -0.22665892)

STATE 10:  E=   0.216574 au      5.893 eV    47532.6 cm**-1 <S**2> =   0.000000
    53a ->  59a  :     0.073302 (c= -0.27074385)
    53a ->  60a  :     0.019262 (c=  0.13878628)
    53a ->  61a  :     0.016653 (c= -0.12904592)
    54a ->  59a  :     0.055338 (c= -0.23523926)
    55a ->  59a  :     0.340235 (c= -0.58329653)
    55a ->  60a  :     0.031645 (c=  0.17789079)
    55a ->  61a  :     0.020997 (c=  0.14490387)
    57a ->  60a  :     0.038726 (c= -0.19679032)
    57a ->  61a  :     0.182886 (c= -0.42765160)
    58a ->  60a  :     0.038199 (c= -0.19544569)
    58a ->  61a  :     0.066050 (c=  0.25700278)


-----------------------------
TD-DFT/TDA-EXCITATION SPECTRA
-----------------------------

Center of mass = (  0.2826, -0.0033, -0.0143)
Calculating the Dipole integrals                  ... done
Transforming integrals                            ... done
Calculating the Linear Momentum integrals         ... done
Transforming integrals                            ... done
Calculating angular momentum integrals            ... done
Transforming integrals                            ... done

-----------------------------------------------------------------------------
         ABSORPTION SPECTRUM VIA TRANSITION ELECTRIC DIPOLE MOMENTS
-----------------------------------------------------------------------------
State   Energy    Wavelength  fosc         T2        TX        TY        TZ  
        (cm-1)      (nm)                 (au**2)    (au)      (au)      (au) 
-----------------------------------------------------------------------------
   1   30955.0    323.1   0.613512273   6.52482   2.49130  -0.41974   0.37690
   2   35556.5    281.2   0.160173266   1.48302   0.89870   0.60895  -0.55186
   3   39204.4    255.1   0.013213753   0.11096  -0.00678   0.22836   0.24241
   4   40075.8    249.5   0.037904384   0.31137  -0.23739  -0.37815   0.33470
   5   42404.8    235.8   0.314747431   2.44356   1.47013   0.39409  -0.35634
   6   43456.5    230.1   0.000288706   0.00219  -0.00579  -0.01003   0.04531
   7   44099.6    226.8   0.065346850   0.48783  -0.69817   0.01781  -0.00847
   8   47085.3    212.4   0.051476218   0.35991  -0.57348   0.12992  -0.11899
   9   47492.2    210.6   0.011772109   0.08160  -0.07383   0.17547   0.21299
  10   47532.6    210.4   0.202525936   1.40270   1.16394  -0.16048   0.14899

-----------------------------------------------------------------------------
         ABSORPTION SPECTRUM VIA TRANSITION VELOCITY DIPOLE MOMENTS
-----------------------------------------------------------------------------
State   Energy    Wavelength   fosc        P2         PX        PY        PZ  
        (cm-1)      (nm)                 (au**2)     (au)      (au)      (au) 
-----------------------------------------------------------------------------
   1   30955.0    323.1   0.176125238   0.03726  -0.18371  -0.04377   0.03996
   2   35556.5    281.2   0.058193054   0.01414  -0.11776   0.01243  -0.01094
   3   39204.4    255.1   0.000005820   0.00000   0.00049  -0.00048  -0.00105
   4   40075.8    249.5   0.005574875   0.00153   0.03753   0.00820  -0.00714
   5   42404.8    235.8   0.126662790   0.03671  -0.19003  -0.01802   0.01654
   6   43456.5    230.1   0.000271760   0.00008   0.00126   0.00586   0.00670
   7   44099.6    226.8   0.032274138   0.00973   0.09071   0.02923  -0.02539
   8   47085.3    212.4   0.013403881   0.00431   0.06560  -0.00061   0.00302
   9   47492.2    210.6   0.006045692   0.00196   0.01001  -0.02772  -0.03307
  10   47532.6    210.4   0.091738858   0.02980  -0.17252  -0.00530   0.00333

-------------------------------------------------------------------
                             CD SPECTRUM
-------------------------------------------------------------------
State  Energy     Wavelength     R         MX        MY        MZ   
       (cm-1)       (nm)     (1e40*cgs)   (au)      (au)      (au)  
-------------------------------------------------------------------
   1   30955.0    323.1      1.24825   0.00106   0.08740   0.09733
   2   35556.5    281.2      0.79547   0.00320   0.02598   0.03082
   3   39204.4    255.1      0.83091  -0.48752  -0.02252   0.01484
   4   40075.8    249.5      1.14476  -0.00426  -0.02819  -0.02762
   5   42404.8    235.8      0.69228   0.00152   0.15058   0.16870
   6   43456.5    230.1     -0.98786   0.03068   0.04916  -0.03144
   7   44099.6    226.8     -0.41184   0.00090  -0.03829  -0.05141
   8   47085.3    212.4     -3.57358   0.01819  -0.62757  -0.70918
   9   47492.2    210.6      6.42885  -0.32256  -0.06735   0.00769
  10   47532.6    210.4     -5.33156  -0.01028   0.02862   0.03525

-------------------------------------------------------------------
         CD SPECTRUM VIA TRANSITION VELOCITY DIPOLE MOMENTS        
-------------------------------------------------------------------
State  Energy     Wavelength     R         MX        MY        MZ   
       (cm-1)       (nm)     (1e40*cgs)   (au)      (au)      (au)  
-------------------------------------------------------------------
   1   30955.0    323.1     -0.43993   0.00106   0.08740   0.09733
   2   35556.5    281.2     -1.13839   0.00320   0.02598   0.03082
   3   39204.4    255.1     -0.63782  -0.48752  -0.02252   0.01484
   4   40075.8    249.5     -0.50053  -0.00426  -0.02819  -0.02762
   5   42404.8    235.8     -0.52104   0.00152   0.15058   0.16870
   6   43456.5    230.1      0.27614   0.03068   0.04916  -0.03144
   7   44099.6    226.8      0.62864   0.00090  -0.03829  -0.05141
   8   47085.3    212.4     -1.24464   0.01819  -0.62757  -0.70918
   9   47492.2    210.6     -3.52194  -0.32256  -0.06735   0.00769
  10   47532.6    210.4      3.78698  -0.01028   0.02862   0.03525

Total run time:      578.530 sec

           *** ORCA-CIS/TD-DFT FINISHED WITHOUT ERROR ***

Maximum memory used throughout the entire CIS-calculation: 1061.8 MB

-----------------------
CIS/TD-DFT TOTAL ENERGY
-----------------------

    E(SCF)  =  -1240.398390900 Eh
    DE(CIS) =      0.141041148 Eh (Root  1)
    ----------------------------- ---------
    E(tot)  =  -1240.257349752 Eh



-------------------------------------------------------------------------------
                          DFT DISPERSION CORRECTION                            
                                                                               
                              DFTD3 V3.1  Rev 1                                
                              USING zero damping                               
-------------------------------------------------------------------------------
The omegaB97X-D3 functional is recognized. Fit by Chai et al.
Active option DFTDOPT                   ...         3   

molecular C6(AA) [au] = 10833.572355 


            DFT-D V3
 parameters
 s6 scaling factor         :     1.0000 
 rs6 scaling factor        :     1.2810 
 s8 scaling factor         :     1.0000 
 rs8 scaling factor        :     1.0940 
 Damping factor alpha6     :    14.0000 
 Damping factor alpha8     :    16.0000 
 ad hoc parameters k1-k3   :    16.0000     1.3333    -4.0000 

 Edisp/kcal,au: -5.165843904537  -0.008232295395 
 E6   /kcal   :  -2.279447279 
 E8   /kcal   :  -2.886396625 
 % E8         :  55.874638855 

-------------------------   ----------------
Dispersion correction           -0.008232295
-------------------------   ----------------


-------------------------   --------------------
FINAL SINGLE POINT ENERGY     -1240.265582047573
-------------------------   --------------------


                            ***************************************
                            *     ORCA property calculations      *
                            ***************************************

                                    ---------------------
                                    Active property flags
                                    ---------------------
   (+) Dipole Moment


------------------------------------------------------------------------------
                       ORCA ELECTRIC PROPERTIES CALCULATION
------------------------------------------------------------------------------

Dipole Moment Calculation                       ... on
Quadrupole Moment Calculation                   ... off
Polarizability Calculation                      ... off
GBWName                                         ... wb97x-d3-train-4_job2.gbw
Electron density                                ... wb97x-d3-train-4_job2.scfp
The origin for moment calculation is the CENTER OF MASS  = ( 0.282629, -0.003330 -0.014317)

-------------
DIPOLE MOMENT
-------------
                                X             Y             Z
Electronic contribution:      3.05614      -0.66040       0.55167
Nuclear contribution   :     -2.93441       1.03868      -0.88750
                        -----------------------------------------
Total Dipole Moment    :      0.12173       0.37828      -0.33584
                        -----------------------------------------
Magnitude (a.u.)       :      0.52029
Magnitude (Debye)      :      1.32247



--------------------
Rotational spectrum 
--------------------
 
Rotational constants in cm-1:     0.054545     0.009009     0.007732 
Rotational constants in MHz :  1635.203805   270.075663   231.797346 

 Dipole components along the rotational axes: 
x,y,z [a.u.] :     0.192338     0.483431    -0.000070 
x,y,z [Debye]:     0.488886     1.228784    -0.000177 

 

Timings for individual modules:

Sum of individual times         ...      834.106 sec (=  13.902 min)
GTO integral calculation        ...        3.269 sec (=   0.054 min)   0.4 %
SCF iterations                  ...      251.284 sec (=   4.188 min)  30.1 %
CIS module                      ...      579.554 sec (=   9.659 min)  69.5 %



                             ****ORCA TERMINATED NORMALLY****
TOTAL RUN TIME: 0 days 2 hours 21 minutes 29 seconds 302 msec
