
                                 *****************
                                 * O   R   C   A *
                                 *****************

                                            #,                                       
                                            ###                                      
                                            ####                                     
                                            #####                                    
                                            ######                                   
                                           ########,                                 
                                     ,,################,,,,,                         
                               ,,#################################,,                 
                          ,,##########################################,,             
                       ,#########################################, ''#####,          
                    ,#############################################,,   '####,        
                  ,##################################################,,,,####,       
                ,###########''''           ''''###############################       
              ,#####''   ,,,,##########,,,,          '''####'''          '####       
            ,##' ,,,,###########################,,,                        '##       
           ' ,,###''''                  '''############,,,                           
         ,,##''                                '''############,,,,        ,,,,,,###''
      ,#''                                            '''#######################'''  
     '                                                          ''''####''''         
             ,#######,   #######,   ,#######,      ##                                
            ,#'     '#,  ##    ##  ,#'     '#,    #''#        ######   ,####,        
            ##       ##  ##   ,#'  ##            #'  '#       #        #'  '#        
            ##       ##  #######   ##           ,######,      #####,   #    #        
            '#,     ,#'  ##    ##  '#,     ,#' ,#      #,         ##   #,  ,#        
             '#######'   ##     ##  '#######'  #'      '#     #####' # '####'        



                  #######################################################
                  #                        -***-                        #
                  #          Department of theory and spectroscopy      #
                  #    Directorship and core code : Frank Neese         #
                  #        Max Planck Institute fuer Kohlenforschung    #
                  #                Kaiser Wilhelm Platz 1               #
                  #                 D-45470 Muelheim/Ruhr               #
                  #                      Germany                        #
                  #                                                     #
                  #                  All rights reserved                #
                  #                        -***-                        #
                  #######################################################


                         Program Version 5.0.2 -  RELEASE  -


 With contributions from (in alphabetic order):
   Daniel Aravena         : Magnetic Suceptibility
   Michael Atanasov       : Ab Initio Ligand Field Theory (pilot matlab implementation)
   Alexander A. Auer      : GIAO ZORA, VPT2 properties, NMR spectrum
   Ute Becker             : Parallelization
   Giovanni Bistoni       : ED, misc. LED, open-shell LED, HFLD
   Martin Brehm           : Molecular dynamics
   Dmytro Bykov           : SCF Hessian
   Vijay G. Chilkuri      : MRCI spin determinant printing, contributions to CSF-ICE
   Dipayan Datta          : RHF DLPNO-CCSD density
   Achintya Kumar Dutta   : EOM-CC, STEOM-CC
   Dmitry Ganyushin       : Spin-Orbit,Spin-Spin,Magnetic field MRCI
   Miquel Garcia          : C-PCM and meta-GGA Hessian, CC/C-PCM, Gaussian charge scheme
   Yang Guo               : DLPNO-NEVPT2, F12-NEVPT2, CIM, IAO-localization
   Andreas Hansen         : Spin unrestricted coupled pair/coupled cluster methods
   Benjamin Helmich-Paris : MC-RPA, TRAH-SCF, COSX integrals
   Lee Huntington         : MR-EOM, pCC
   Robert Izsak           : Overlap fitted RIJCOSX, COSX-SCS-MP3, EOM
   Marcus Kettner         : VPT2
   Christian Kollmar      : KDIIS, OOCD, Brueckner-CCSD(T), CCSD density, CASPT2, CASPT2-K
   Simone Kossmann        : Meta GGA functionals, TD-DFT gradient, OOMP2, MP2 Hessian
   Martin Krupicka        : Initial AUTO-CI
   Lucas Lang             : DCDCAS
   Marvin Lechner         : AUTO-CI (C++ implementation), FIC-MRCC
   Dagmar Lenk            : GEPOL surface, SMD
   Dimitrios Liakos       : Extrapolation schemes; Compound Job, initial MDCI parallelization
   Dimitrios Manganas     : Further ROCIS development; embedding schemes
   Dimitrios Pantazis     : SARC Basis sets
   Anastasios Papadopoulos: AUTO-CI, single reference methods and gradients
   Taras Petrenko         : DFT Hessian,TD-DFT gradient, ASA, ECA, R-Raman, ABS, FL, XAS/XES, NRVS
   Peter Pinski           : DLPNO-MP2, DLPNO-MP2 Gradient
   Christoph Reimann      : Effective Core Potentials
   Marius Retegan         : Local ZFS, SOC
   Christoph Riplinger    : Optimizer, TS searches, QM/MM, DLPNO-CCSD(T), (RO)-DLPNO pert. Triples
   Tobias Risthaus        : Range-separated hybrids, TD-DFT gradient, RPA, STAB
   Michael Roemelt        : Original ROCIS implementation
   Masaaki Saitow         : Open-shell DLPNO-CCSD energy and density
   Barbara Sandhoefer     : DKH picture change effects
   Avijit Sen             : IP-ROCIS
   Kantharuban Sivalingam : CASSCF convergence, NEVPT2, FIC-MRCI
   Bernardo de Souza      : ESD, SOC TD-DFT
   Georgi Stoychev        : AutoAux, RI-MP2 NMR, DLPNO-MP2 response
   Willem Van den Heuvel  : Paramagnetic NMR
   Boris Wezisla          : Elementary symmetry handling
   Frank Wennmohs         : Technical directorship


 We gratefully acknowledge several colleagues who have allowed us to
 interface, adapt or use parts of their codes:
   Stefan Grimme, W. Hujo, H. Kruse, P. Pracht,  : VdW corrections, initial TS optimization,
                  C. Bannwarth, S. Ehlert          DFT functionals, gCP, sTDA/sTD-DF
   Ed Valeev, F. Pavosevic, A. Kumar             : LibInt (2-el integral package), F12 methods
   Garnet Chan, S. Sharma, J. Yang, R. Olivares  : DMRG
   Ulf Ekstrom                                   : XCFun DFT Library
   Mihaly Kallay                                 : mrcc  (arbitrary order and MRCC methods)
   Jiri Pittner, Ondrej Demel                    : Mk-CCSD
   Frank Weinhold                                : gennbo (NPA and NBO analysis)
   Christopher J. Cramer and Donald G. Truhlar   : smd solvation model
   Lars Goerigk                                  : TD-DFT with DH, B97 family of functionals
   V. Asgeirsson, H. Jonsson                     : NEB implementation
   FAccTs GmbH                                   : IRC, NEB, NEB-TS, DLPNO-Multilevel, CI-OPT
                                                   MM, QMMM, 2- and 3-layer-ONIOM, Crystal-QMMM,
                                                   LR-CPCM, SF, NACMEs, symmetry and pop. for TD-DFT,
                                                   nearIR, NL-DFT gradient (VV10), updates on ESD,
                                                   ML-optimized integration grids
   S Lehtola, MJT Oliveira, MAL Marques          : LibXC Library
   Liviu Ungur et al                             : ANISO software


 Your calculation uses the libint2 library for the computation of 2-el integrals
 For citations please refer to: http://libint.valeyev.net

 Your ORCA version has been built with support for libXC version: 5.1.0
 For citations please refer to: https://tddft.org/programs/libxc/

 This ORCA versions uses:
   CBLAS   interface :  Fast vector & matrix operations
   LAPACKE interface :  Fast linear algebra routines
   SCALAPACK package :  Parallel linear algebra routines
   Shared memory     :  Shared parallel matrices
   BLAS/LAPACK       :  OpenBLAS 0.3.15  USE64BITINT DYNAMIC_ARCH NO_AFFINITY Haswell SINGLE_THREADED
        Core in use  :  Haswell
   Copyright (c) 2011-2014, The OpenBLAS Project


Your calculation utilizes the SMD solvation module
Please cite in your paper:
A.V. Marenich, C.J. Cramer, D.G. Truhlar J. Phys. Chem. B, 113, (2009), 6378 

================================================================================

----- Orbital basis set information -----
Your calculation utilizes the basis: aug-cc-pVTZ 
    H, B-Ne : Obtained from the ccRepo (grant-hill.group.shef.ac.uk/ccrepo) Feb. 2017
              R. A. Kendall, T. H. Dunning, Jr., R. J. Harrison, J. Chem. Phys. 96, 6796 (1992)
         He : Obtained from the ccRepo (grant-hill.group.shef.ac.uk/ccrepo) Feb. 2017
              D. E. Woon, T. H. Dunning, Jr., J. Chem. Phys. 100, 2975 (1994)
  Li-Be, Na : Obtained from the ccRepo (grant-hill.group.shef.ac.uk/ccrepo) Feb. 2017
              B. P. Prascher, D. E. Woon, K. A. Peterson, T. H. Dunning, Jr., A. K. Wilson, Theor. Chem. Acc. 128, 69 (2011)
         Mg : Obtained from the Peterson Research Group Website (tyr0.chem.wsu.edu/~kipeters) Feb. 2017
              B. P. Prascher, D. E. Woon, K. A. Peterson, T. H. Dunning, Jr., A. K. Wilson, Theor. Chem. Acc. 128, 69 (2011)
      Al-Ar : Obtained from the ccRepo (grant-hill.group.shef.ac.uk/ccrepo) Feb. 2017
              D. E. Woon, T. H. Dunning, Jr., J. Chem. Phys. 98, 1358 (1993)
      Sc-Zn : Obtained from the ccRepo (grant-hill.group.shef.ac.uk/ccrepo) Feb. 2017
              N. B. Balabanov, K. A. Peterson, J. Chem. Phys. 123, 064107 (2005)
              N. B. Balabanov, K. A. Peterson, J. Chem. Phys. 125, 074110 (2006)
      Ga-Kr : Obtained from the ccRepo (grant-hill.group.shef.ac.uk/ccrepo) Feb. 2017
              A. K. Wilson, D. E. Woon, K. A. Peterson, T. H. Dunning, Jr., J. Chem. Phys. 110, 7667 (1999)
     Ag, Au : Obtained from the Peterson Research Group Website (tyr0.chem.wsu.edu/~kipeters) Feb. 2017
              K. A. Peterson, C. Puzzarini, Theor. Chem. Acc. 114, 283 (2005)

The basis set includes element-specific modifications.

Your calculation utilizes the basis: cc-pVTZ 
       H, B-Ne : Obtained from the ccRepo (grant-hill.group.shef.ac.uk/ccrepo) Feb. 2017
                 T. H. Dunning, Jr., J. Chem. Phys. 90, 1007 (1989)
            He : Obtained from the ccRepo (grant-hill.group.shef.ac.uk/ccrepo) Feb. 2017
                 D. E. Woon, T. H. Dunning, Jr., J. Chem. Phys. 100, 2975 (1994)
  Li-Be, Na-Mg : Obtained from the ccRepo (grant-hill.group.shef.ac.uk/ccrepo) Feb. 2017
                 B. P. Prascher, D. E. Woon, K. A. Peterson, T. H. Dunning, Jr., A. K. Wilson, Theor. Chem. Acc. 128, 69 (2011)
         Al-Ar : Obtained from the ccRepo (grant-hill.group.shef.ac.uk/ccrepo) Feb. 2017
                 D. E. Woon, T. H. Dunning, Jr., J. Chem. Phys. 98, 1358 (1993)
            Ca : Obtained from the Peterson Research Group Website (tyr0.chem.wsu.edu/~kipeters) Feb. 2017
                 J. Koput, K. A. Peterson, J. Phys. Chem. 106, 9595 (2002)
         Sc-Zn : Obtained from the ccRepo (grant-hill.group.shef.ac.uk/ccrepo) Feb. 2017
                 N. B. Balabanov, K. A. Peterson, J. Chem. Phys. 123, 064107 (2005)
                 N. B. Balabanov, K. A. Peterson, J. Chem. Phys. 125, 074110 (2006)
         Ga-Kr : Obtained from the ccRepo (grant-hill.group.shef.ac.uk/ccrepo) Feb. 2017
                 A. K. Wilson, D. E. Woon, K. A. Peterson, T. H. Dunning, Jr., J. Chem. Phys. 110, 7667 (1999)
             Y : Obtained from the ccRepo (grant-hill.group.shef.ac.uk/ccrepo) Feb. 2017
                 K. A. Peterson, D. Figgen, M. Dolg, H. Stoll, J. Chem. Phys. 126, 124101 (2007)
        Ag, Au : Obtained from the Peterson Research Group Website (tyr0.chem.wsu.edu/~kipeters) Feb. 2017
                 K. A. Peterson, C. Puzzarini, Theor. Chem. Acc. 114, 283 (2005)

----- AuxJ basis set information -----
Your calculation utilizes the auxiliary basis: aug-cc-pVTZ/JK 
  H, B-F, Al-Cl, Ga-Br : Obtained from the TURBOMOLE 7.0 basis set library

The basis set includes element-specific modifications.

Your calculation utilizes the auxiliary basis: cc-pVTZ/JK 
  H, B-F, Al-Cl, Ga-Br : Obtained from the TURBOMOLE 7.0 basis set library

----- AuxC basis set information -----
Your calculation utilizes the auxiliary basis: aug-cc-pVTZ/C 
  H-He, B-F, Al-Ar, Ga-Kr : Obtained from the EMSL Basis Set Exchange (bse.pnl.gov) Feb. 2017
                            F. Weigend, A. Kohn, C. Hattig, J. Chem. Phys. 116, 3175 (2002)
                   Be, Mg : Obtained from the TURBOMOLE 7.0 basis set library
                            C. Haettig, Phys. Chem. Chem. Phys. 7, 59 (2005)
                       Ne : Obtained from the EMSL Basis Set Exchange (bse.pnl.gov) Feb. 2017
                            C. Haettig, Phys. Chem. Chem. Phys. 7, 59 (2005)
                            F. Weigend, A. Kohn, C. Hattig, J. Chem. Phys. 116, 3175 (2002)
                    Sc-Zn : Obtained from the EMSL Basis Set Exchange (bse.pnl.gov) Feb. 2017
                            J. G. Hill, J. A. Platts, J. Chem. Phys. 128, 044104 (2008)

The basis set includes element-specific modifications.

Your calculation utilizes the auxiliary basis: cc-pVTZ/C 
  Obtained from the EMSL Basis Set Exchange (bse.pnl.gov) Feb. 2017
  H-He, B-F, Al-Ar, Ga-Kr : F. Weigend, A. Kohn, C. Hattig, J. Chem. Phys. 116, 3175 (2002)
             Li-Be, Na-Mg : C. Haettig, Phys. Chem. Chem. Phys. 7, 59 (2005)
                       Ne : C. Haettig, Phys. Chem. Chem. Phys. 7, 59 (2005)
                            F. Weigend, A. Kohn, C. Hattig, J. Chem. Phys. 116, 3175 (2002)
                    Sc-Zn : J. G. Hill, J. A. Platts, J. Chem. Phys. 128, 044104 (2008)

================================================================================
                                        WARNINGS
                       Please study these warnings very carefully!
================================================================================


WARNING: Geometry Optimization
  ===> : Switching off AutoStart
         For restart on a previous wavefunction, please use MOREAD

INFO   : the flag for use of the SHARK integral package has been found!



***************************************
The coordinates will be read from file: 
***************************************


Your calculation utilizes the SMD solvation module
Please cite in your paper:
A.V. Marenich, C.J. Cramer, D.G. Truhlar J. Phys. Chem. B, 113, (2009), 6378 

================================================================================

----- Orbital basis set information -----
Your calculation utilizes the basis: aug-cc-pVTZ 
    H, B-Ne : Obtained from the ccRepo (grant-hill.group.shef.ac.uk/ccrepo) Feb. 2017
              R. A. Kendall, T. H. Dunning, Jr., R. J. Harrison, J. Chem. Phys. 96, 6796 (1992)
         He : Obtained from the ccRepo (grant-hill.group.shef.ac.uk/ccrepo) Feb. 2017
              D. E. Woon, T. H. Dunning, Jr., J. Chem. Phys. 100, 2975 (1994)
  Li-Be, Na : Obtained from the ccRepo (grant-hill.group.shef.ac.uk/ccrepo) Feb. 2017
              B. P. Prascher, D. E. Woon, K. A. Peterson, T. H. Dunning, Jr., A. K. Wilson, Theor. Chem. Acc. 128, 69 (2011)
         Mg : Obtained from the Peterson Research Group Website (tyr0.chem.wsu.edu/~kipeters) Feb. 2017
              B. P. Prascher, D. E. Woon, K. A. Peterson, T. H. Dunning, Jr., A. K. Wilson, Theor. Chem. Acc. 128, 69 (2011)
      Al-Ar : Obtained from the ccRepo (grant-hill.group.shef.ac.uk/ccrepo) Feb. 2017
              D. E. Woon, T. H. Dunning, Jr., J. Chem. Phys. 98, 1358 (1993)
      Sc-Zn : Obtained from the ccRepo (grant-hill.group.shef.ac.uk/ccrepo) Feb. 2017
              N. B. Balabanov, K. A. Peterson, J. Chem. Phys. 123, 064107 (2005)
              N. B. Balabanov, K. A. Peterson, J. Chem. Phys. 125, 074110 (2006)
      Ga-Kr : Obtained from the ccRepo (grant-hill.group.shef.ac.uk/ccrepo) Feb. 2017
              A. K. Wilson, D. E. Woon, K. A. Peterson, T. H. Dunning, Jr., J. Chem. Phys. 110, 7667 (1999)
     Ag, Au : Obtained from the Peterson Research Group Website (tyr0.chem.wsu.edu/~kipeters) Feb. 2017
              K. A. Peterson, C. Puzzarini, Theor. Chem. Acc. 114, 283 (2005)

The basis set includes element-specific modifications.

Your calculation utilizes the basis: cc-pVTZ 
       H, B-Ne : Obtained from the ccRepo (grant-hill.group.shef.ac.uk/ccrepo) Feb. 2017
                 T. H. Dunning, Jr., J. Chem. Phys. 90, 1007 (1989)
            He : Obtained from the ccRepo (grant-hill.group.shef.ac.uk/ccrepo) Feb. 2017
                 D. E. Woon, T. H. Dunning, Jr., J. Chem. Phys. 100, 2975 (1994)
  Li-Be, Na-Mg : Obtained from the ccRepo (grant-hill.group.shef.ac.uk/ccrepo) Feb. 2017
                 B. P. Prascher, D. E. Woon, K. A. Peterson, T. H. Dunning, Jr., A. K. Wilson, Theor. Chem. Acc. 128, 69 (2011)
         Al-Ar : Obtained from the ccRepo (grant-hill.group.shef.ac.uk/ccrepo) Feb. 2017
                 D. E. Woon, T. H. Dunning, Jr., J. Chem. Phys. 98, 1358 (1993)
            Ca : Obtained from the Peterson Research Group Website (tyr0.chem.wsu.edu/~kipeters) Feb. 2017
                 J. Koput, K. A. Peterson, J. Phys. Chem. 106, 9595 (2002)
         Sc-Zn : Obtained from the ccRepo (grant-hill.group.shef.ac.uk/ccrepo) Feb. 2017
                 N. B. Balabanov, K. A. Peterson, J. Chem. Phys. 123, 064107 (2005)
                 N. B. Balabanov, K. A. Peterson, J. Chem. Phys. 125, 074110 (2006)
         Ga-Kr : Obtained from the ccRepo (grant-hill.group.shef.ac.uk/ccrepo) Feb. 2017
                 A. K. Wilson, D. E. Woon, K. A. Peterson, T. H. Dunning, Jr., J. Chem. Phys. 110, 7667 (1999)
             Y : Obtained from the ccRepo (grant-hill.group.shef.ac.uk/ccrepo) Feb. 2017
                 K. A. Peterson, D. Figgen, M. Dolg, H. Stoll, J. Chem. Phys. 126, 124101 (2007)
        Ag, Au : Obtained from the Peterson Research Group Website (tyr0.chem.wsu.edu/~kipeters) Feb. 2017
                 K. A. Peterson, C. Puzzarini, Theor. Chem. Acc. 114, 283 (2005)

----- AuxJ basis set information -----
Your calculation utilizes the auxiliary basis: aug-cc-pVTZ/JK 
  H, B-F, Al-Cl, Ga-Br : Obtained from the TURBOMOLE 7.0 basis set library

The basis set includes element-specific modifications.

Your calculation utilizes the auxiliary basis: cc-pVTZ/JK 
  H, B-F, Al-Cl, Ga-Br : Obtained from the TURBOMOLE 7.0 basis set library

----- AuxC basis set information -----
Your calculation utilizes the auxiliary basis: aug-cc-pVTZ/C 
  H-He, B-F, Al-Ar, Ga-Kr : Obtained from the EMSL Basis Set Exchange (bse.pnl.gov) Feb. 2017
                            F. Weigend, A. Kohn, C. Hattig, J. Chem. Phys. 116, 3175 (2002)
                   Be, Mg : Obtained from the TURBOMOLE 7.0 basis set library
                            C. Haettig, Phys. Chem. Chem. Phys. 7, 59 (2005)
                       Ne : Obtained from the EMSL Basis Set Exchange (bse.pnl.gov) Feb. 2017
                            C. Haettig, Phys. Chem. Chem. Phys. 7, 59 (2005)
                            F. Weigend, A. Kohn, C. Hattig, J. Chem. Phys. 116, 3175 (2002)
                    Sc-Zn : Obtained from the EMSL Basis Set Exchange (bse.pnl.gov) Feb. 2017
                            J. G. Hill, J. A. Platts, J. Chem. Phys. 128, 044104 (2008)

The basis set includes element-specific modifications.

Your calculation utilizes the auxiliary basis: cc-pVTZ/C 
  Obtained from the EMSL Basis Set Exchange (bse.pnl.gov) Feb. 2017
  H-He, B-F, Al-Ar, Ga-Kr : F. Weigend, A. Kohn, C. Hattig, J. Chem. Phys. 116, 3175 (2002)
             Li-Be, Na-Mg : C. Haettig, Phys. Chem. Chem. Phys. 7, 59 (2005)
                       Ne : C. Haettig, Phys. Chem. Chem. Phys. 7, 59 (2005)
                            F. Weigend, A. Kohn, C. Hattig, J. Chem. Phys. 116, 3175 (2002)
                    Sc-Zn : J. G. Hill, J. A. Platts, J. Chem. Phys. 128, 044104 (2008)

================================================================================
                                        WARNINGS
                       Please study these warnings very carefully!
================================================================================

INFO   : Checking CIS options ...

INFO   : the flag for use of the SHARK integral package has been found!

================================================================================
                                       INPUT FILE
================================================================================
NAME = x3lyp-train-4.inp
|  1> ! x3lyp aug-cc-PVTZ RIJCOSX Opt
|  2> %maxcore 4000
|  3> %basis
|  4>  AuxJ "aug-cc-PVTZ/JK"
|  5>  AuxC "aug-cc-PVTZ/C"
|  6>  newGTO H "cc-PVTZ" end
|  7>  newAuxJGTO H "cc-PVTZ/JK" end
|  8>  newAuxCGTO H "cc-PVTZ/C" end
|  9> end
| 10> %cpcm
| 11>  SMD true
| 12>  SMDsolvent "acetonitrile"
| 13> end
| 14> %pal nprocs 4 end
| 15> * xyz 0 1
| 16> C         -4.57040       -0.46150        0.41150
| 17> C         -4.02030        0.49180       -0.42940
| 18> C         -2.64950        0.61520       -0.54150
| 19> C         -1.79710       -0.21660        0.18870
| 20> C         -0.35690       -0.10750        0.08880
| 21> P          0.74210       -1.10260        0.96210
| 22> C          2.18870       -0.32020        0.26940
| 23> C          3.50480       -0.67740        0.58050
| 24> C          4.55840       -0.01500       -0.00560
| 25> C          4.32660        1.01730       -0.91390
| 26> C          3.04000        1.38880       -1.23760
| 27> C          1.97300        0.72160       -0.64740
| 28> S          0.31300        1.10370       -0.97940
| 29> C         -2.36710       -1.17440        1.03350
| 30> C         -3.73620       -1.29410        1.14250
| 31> H         -5.64250       -0.55610        0.49770
| 32> H         -4.66370        1.14380       -1.00180
| 33> H         -2.22950        1.36200       -1.20020
| 34> H          3.67680       -1.47810        1.28510
| 35> H          5.57280       -0.29380        0.23730
| 36> H          5.16140        1.52990       -1.36750
| 37> H          2.84950        2.18640       -1.93950
| 38> H         -1.71510       -1.82300        1.60290
| 39> H         -4.15830       -2.03970        1.80010
| 40> *
| 41> 
| 42> 
| 43> $new_job
| 44> ! x3lyp aug-cc-PVTZ RIJCOSX SP
| 45> %maxcore 4000
| 46> %basis
| 47>  AuxJ "aug-cc-PVTZ/JK"
| 48>  AuxC "aug-cc-PVTZ/C"
| 49>  newGTO H "cc-PVTZ" end
| 50>  newAuxJGTO H "cc-PVTZ/JK" end
| 51>  newAuxCGTO H "cc-PVTZ/C" end
| 52> end
| 53> %cpcm
| 54>  SMD true
| 55>  SMDsolvent "acetonitrile"
| 56> end
| 57> %pal nprocs 4 end
| 58> %tddft
| 59>  nroots 10
| 60>  maxdim 7
| 61> end
| 62> * xyzfile 0 1
| 63> 
| 64>                          ****END OF INPUT****
================================================================================


                 $$$$$$$$$$$$$$$$$$$$$$$$$$$$$$$$$$$$$$$$$$$$$$ 
                 $ THERE ARE  2 JOBS TO BE PROCESSED THIS RUN $
                 $$$$$$$$$$$$$$$$$$$$$$$$$$$$$$$$$$$$$$$$$$$$$$ 




                 $$$$$$$$$$$$$$$$  JOB NUMBER  1 $$$$$$$$$$$$$$


                       *****************************
                       * Geometry Optimization Run *
                       *****************************

Geometry optimization settings:
Update method            Update   .... BFGS
Choice of coordinates    CoordSys .... Z-matrix Internals
Initial Hessian          InHess   .... Almoef's Model

Convergence Tolerances:
Energy Change            TolE     ....  5.0000e-06 Eh
Max. Gradient            TolMAXG  ....  3.0000e-04 Eh/bohr
RMS Gradient             TolRMSG  ....  1.0000e-04 Eh/bohr
Max. Displacement        TolMAXD  ....  4.0000e-03 bohr
RMS Displacement         TolRMSD  ....  2.0000e-03 bohr
Strict Convergence                ....  False
------------------------------------------------------------------------------
                        ORCA OPTIMIZATION COORDINATE SETUP
------------------------------------------------------------------------------

The optimization will be done in new redundant internal coordinates
Making redundant internal coordinates   ...  (new redundants) done
Evaluating the initial hessian          ...  (Almloef) done
Evaluating the coordinates              ...  done
Calculating the B-matrix                .... done
Calculating the G-matrix                .... done
Diagonalizing the G-matrix              .... done
Small eigenvalue found = 9.073e-03
The first mode is                       ....   61
The number of degrees of freedom        ....   66

    -----------------------------------------------------------------
                    Redundant Internal Coordinates


    -----------------------------------------------------------------
         Definition                    Initial Value    Approx d2E/dq
    -----------------------------------------------------------------
      1. B(C   1,C   0)                  1.3851         0.636144   
      2. B(C   2,C   1)                  1.3809         0.646035   
      3. B(C   3,C   2)                  1.3970         0.608886   
      4. B(C   4,C   3)                  1.4478         0.505311   
      5. B(P   5,C   4)                  1.7207         0.623279   
      6. B(C   6,P   5)                  1.7846         0.492885   
      7. B(C   7,C   6)                  1.3987         0.605038   
      8. B(C   8,C   7)                  1.3756         0.658664   
      9. B(C   9,C   8)                  1.3944         0.614752   
     10. B(C  10,C   9)                  1.3777         0.653609   
     11. B(C  11,C  10)                  1.3900         0.624895   
     12. B(C  11,C   6)                  1.4044         0.592560   
     13. B(S  12,C  11)                  1.7355         0.473528   
     14. B(S  12,C   4)                  1.7484         0.451584   
     15. B(C  13,C   3)                  1.3986         0.605456   
     16. B(C  14,C  13)                  1.3786         0.651426   
     17. B(C  14,C   0)                  1.3869         0.631968   
     18. B(H  15,C   0)                  1.0797         0.373970   
     19. B(H  16,C   1)                  1.0801         0.373378   
     20. B(H  17,C   2)                  1.0807         0.372562   
     21. B(H  18,C   7)                  1.0804         0.373089   
     22. B(H  19,C   8)                  1.0797         0.373996   
     23. B(H  20,C   9)                  1.0795         0.374209   
     24. B(H  21,C  10)                  1.0794         0.374389   
     25. B(H  22,C  13)                  1.0817         0.371295   
     26. B(H  23,C  14)                  1.0801         0.373495   
     27. A(C   1,C   0,H  15)          120.2070         0.356729   
     28. A(C   1,C   0,C  14)          119.6229         0.437585   
     29. A(C  14,C   0,H  15)          120.1701         0.356330   
     30. A(C   0,C   1,C   2)          120.3339         0.439326   
     31. A(C   2,C   1,H  16)          119.6265         0.357570   
     32. A(C   0,C   1,H  16)          120.0396         0.356633   
     33. A(C   1,C   2,C   3)          120.6675         0.435871   
     34. A(C   3,C   2,H  17)          119.5303         0.353862   
     35. A(C   1,C   2,H  17)          119.8023         0.357437   
     36. A(C   2,C   3,C   4)          121.7374         0.417109   
     37. A(C   2,C   3,C  13)          118.3473         0.430815   
     38. A(C   4,C   3,C  13)          119.9152         0.416690   
     39. A(C   3,C   4,S  12)          118.3927         0.417176   
     40. A(P   5,C   4,S  12)          117.7751         0.462375   
     41. A(C   3,C   4,P   5)          123.8322         0.446873   
     42. A(C   4,P   5,C   6)           93.8526         0.475097   
     43. A(P   5,C   6,C   7)          124.3628         0.442478   
     44. A(C   7,C   6,C  11)          118.6290         0.428665   
     45. A(P   5,C   6,C  11)          117.0082         0.440814   
     46. A(C   6,C   7,H  18)          118.9551         0.353567   
     47. A(C   6,C   7,C   8)          120.1934         0.436894   
     48. A(C   8,C   7,H  18)          120.8516         0.358702   
     49. A(C   9,C   8,H  19)          119.5966         0.354669   
     50. A(C   7,C   8,H  19)          119.9600         0.358850   
     51. A(C   7,C   8,C   9)          120.4434         0.438151   
     52. A(C   8,C   9,C  10)          120.5245         0.437543   
     53. A(C  10,C   9,H  20)          119.6952         0.358415   
     54. A(C   8,C   9,H  20)          119.7803         0.354703   
     55. A(C   9,C  10,C  11)          119.1879         0.438836   
     56. A(C  11,C  10,H  21)          119.6914         0.355718   
     57. A(C   9,C  10,H  21)          121.1207         0.358444   
     58. A(C   6,C  11,C  10)          121.0217         0.431157   
     59. A(C  10,C  11,S  12)          123.1857         0.437056   
     60. A(C   6,C  11,S  12)          115.7926         0.432896   
     61. A(C   4,S  12,C  11)           95.5716         0.435088   
     62. A(C   3,C  13,C  14)          120.7946         0.436080   
     63. A(C  14,C  13,H  22)          120.3261         0.357735   
     64. A(C   3,C  13,H  22)          118.8793         0.353320   
     65. A(C   0,C  14,C  13)          120.2338         0.439463   
     66. A(C  13,C  14,H  23)          119.7479         0.358094   
     67. A(C   0,C  14,H  23)          120.0183         0.356254   
     68. D(H  16,C   1,C   0,C  14)   -179.9971         0.028094   
     69. D(C   2,C   1,C   0,H  15)    179.9903         0.028094   
     70. D(C   2,C   1,C   0,C  14)     -0.0051         0.028094   
     71. D(H  16,C   1,C   0,H  15)     -0.0016         0.028094   
     72. D(H  17,C   2,C   1,C   0)   -179.9991         0.029035   
     73. D(H  17,C   2,C   1,H  16)     -0.0071         0.029035   
     74. D(C   3,C   2,C   1,H  16)    179.9989         0.029035   
     75. D(C   3,C   2,C   1,C   0)      0.0069         0.029035   
     76. D(C  13,C   3,C   2,H  17)   -179.9968         0.025600   
     77. D(C   4,C   3,C   2,H  17)     -0.0015         0.025600   
     78. D(C   4,C   3,C   2,C   1)    179.9925         0.025600   
     79. D(C  13,C   3,C   2,C   1)     -0.0028         0.025600   
     80. D(P   5,C   4,C   3,C  13)     -0.0035         0.017396   
     81. D(P   5,C   4,C   3,C   2)   -179.9987         0.017396   
     82. D(S  12,C   4,C   3,C   2)      0.0039         0.017396   
     83. D(S  12,C   4,C   3,C  13)    179.9991         0.017396   
     84. D(C   6,P   5,C   4,S  12)     -0.0005         0.005993   
     85. D(C   6,P   5,C   4,C   3)   -179.9980         0.005993   
     86. D(C  11,C   6,P   5,C   4)     -0.0021         0.004252   
     87. D(C   7,C   6,P   5,C   4)    179.9985         0.004252   
     88. D(H  18,C   7,C   6,C  11)   -179.9995         0.025259   
     89. D(H  18,C   7,C   6,P   5)     -0.0001         0.025259   
     90. D(C   8,C   7,C   6,C  11)     -0.0025         0.025259   
     91. D(C   8,C   7,C   6,P   5)    179.9968         0.025259   
     92. D(H  19,C   8,C   7,H  18)     -0.0054         0.030264   
     93. D(H  19,C   8,C   7,C   6)    179.9978         0.030264   
     94. D(C   9,C   8,C   7,H  18)   -179.9973         0.030264   
     95. D(C   9,C   8,C   7,C   6)      0.0059         0.030264   
     96. D(H  20,C   9,C   8,C   7)    179.9996         0.026124   
     97. D(C  10,C   9,C   8,H  19)   -179.9954         0.026124   
     98. D(C  10,C   9,C   8,C   7)     -0.0034         0.026124   
     99. D(H  20,C   9,C   8,H  19)      0.0077         0.026124   
    100. D(H  21,C  10,C   9,H  20)      0.0034         0.029768   
    101. D(H  21,C  10,C   9,C   8)   -179.9936         0.029768   
    102. D(C  11,C  10,C   9,H  20)    179.9946         0.029768   
    103. D(C  11,C  10,C   9,C   8)     -0.0024         0.029768   
    104. D(S  12,C  11,C  10,H  21)     -0.0103         0.027047   
    105. D(C   6,C  11,C  10,H  21)    179.9971         0.027047   
    106. D(C   6,C  11,C  10,C   9)      0.0057         0.027047   
    107. D(S  12,C  11,C   6,C   7)   -179.9965         0.024174   
    108. D(S  12,C  11,C   6,P   5)      0.0041         0.024174   
    109. D(S  12,C  11,C  10,C   9)    179.9984         0.027047   
    110. D(C  10,C  11,C   6,C   7)     -0.0033         0.024174   
    111. D(C  10,C  11,C   6,P   5)    179.9973         0.024174   
    112. D(C   4,S  12,C  11,C  10)   -179.9968         0.004806   
    113. D(C   4,S  12,C  11,C   6)     -0.0038         0.004806   
    114. D(C  11,S  12,C   4,P   5)      0.0023         0.004494   
    115. D(C  11,S  12,C   4,C   3)    179.9999         0.004494   
    116. D(H  22,C  13,C   3,C   4)      0.0042         0.025296   
    117. D(H  22,C  13,C   3,C   2)    179.9996         0.025296   
    118. D(C  14,C  13,C   3,C   4)   -179.9984         0.025296   
    119. D(C  14,C  13,C   3,C   2)     -0.0031         0.025296   
    120. D(H  23,C  14,C  13,H  22)     -0.0017         0.029556   
    121. D(C   0,C  14,C  13,H  22)   -179.9978         0.029556   
    122. D(C   0,C  14,C  13,C   3)      0.0048         0.029556   
    123. D(H  23,C  14,C   0,H  15)      0.0076         0.027702   
    124. D(H  23,C  14,C   0,C   1)   -179.9969         0.027702   
    125. D(H  23,C  14,C  13,C   3)   -179.9990         0.029556   
    126. D(C  13,C  14,C   0,H  15)   -179.9962         0.027702   
    127. D(C  13,C  14,C   0,C   1)     -0.0007         0.027702   
    -----------------------------------------------------------------

Number of atoms                         .... 24
Number of degrees of freedom            .... 127

         *************************************************************
         *                GEOMETRY OPTIMIZATION CYCLE   1            *
         *************************************************************
---------------------------------
CARTESIAN COORDINATES (ANGSTROEM)
---------------------------------
  C     -4.570400   -0.461500    0.411500
  C     -4.020300    0.491800   -0.429400
  C     -2.649500    0.615200   -0.541500
  C     -1.797100   -0.216600    0.188700
  C     -0.356900   -0.107500    0.088800
  P      0.742100   -1.102600    0.962100
  C      2.188700   -0.320200    0.269400
  C      3.504800   -0.677400    0.580500
  C      4.558400   -0.015000   -0.005600
  C      4.326600    1.017300   -0.913900
  C      3.040000    1.388800   -1.237600
  C      1.973000    0.721600   -0.647400
  S      0.313000    1.103700   -0.979400
  C     -2.367100   -1.174400    1.033500
  C     -3.736200   -1.294100    1.142500
  H     -5.642500   -0.556100    0.497700
  H     -4.663700    1.143800   -1.001800
  H     -2.229500    1.362000   -1.200200
  H      3.676800   -1.478100    1.285100
  H      5.572800   -0.293800    0.237300
  H      5.161400    1.529900   -1.367500
  H      2.849500    2.186400   -1.939500
  H     -1.715100   -1.823000    1.602900
  H     -4.158300   -2.039700    1.800100

----------------------------
CARTESIAN COORDINATES (A.U.)
----------------------------
  NO LB      ZA    FRAG     MASS         X           Y           Z
   0 C     6.0000    0    12.011   -8.636804   -0.872109    0.777622
   1 C     6.0000    0    12.011   -7.597266    0.929367   -0.811448
   2 C     6.0000    0    12.011   -5.006829    1.162560   -1.023287
   3 C     6.0000    0    12.011   -3.396027   -0.409315    0.356591
   4 C     6.0000    0    12.011   -0.674443   -0.203146    0.167808
   5 P    15.0000    0    30.974    1.402366   -2.083612    1.818106
   6 C     6.0000    0    12.011    4.136044   -0.605090    0.509092
   7 C     6.0000    0    12.011    6.623112   -1.280100    1.096986
   8 C     6.0000    0    12.011    8.614128   -0.028346   -0.010582
   9 C     6.0000    0    12.011    8.176089    1.922418   -1.727021
  10 C     6.0000    0    12.011    5.744767    2.624452   -2.338725
  11 C     6.0000    0    12.011    3.728430    1.363626   -1.223409
  12 S    16.0000    0    32.060    0.591484    2.085691   -1.850798
  13 C     6.0000    0    12.011   -4.473171   -2.219294    1.953032
  14 C     6.0000    0    12.011   -7.060395   -2.445495    2.159012
  15 H     1.0000    0     1.008  -10.662780   -1.050877    0.940517
  16 H     1.0000    0     1.008   -8.813116    2.161469   -1.893128
  17 H     1.0000    0     1.008   -4.213144    2.573807   -2.268049
  18 H     1.0000    0     1.008    6.948145   -2.793204    2.428487
  19 H     1.0000    0     1.008   10.531066   -0.555202    0.448432
  20 H     1.0000    0     1.008    9.753632    2.891092   -2.584200
  21 H     1.0000    0     1.008    5.384775    4.131697   -3.665124
  22 H     1.0000    0     1.008   -3.241069   -3.444971    3.029042
  23 H     1.0000    0     1.008   -7.858048   -3.854474    3.401696

--------------------------------
INTERNAL COORDINATES (ANGSTROEM)
--------------------------------
 C      0   0   0     0.000000000000     0.00000000     0.00000000
 C      1   0   0     1.385100613674     0.00000000     0.00000000
 C      2   1   0     1.380900651749   120.33387166     0.00000000
 C      3   2   1     1.397021488740   120.66745383     0.00000000
 C      4   3   2     1.447777213524   121.73742609   179.99247754
 P      5   4   3     1.720662052816   123.83222498   180.00129550
 C      6   5   4     1.784554457000    93.85256138   180.00203796
 C      7   6   5     1.398747389631   124.36275245   179.99849513
 C      8   7   6     1.375630738970   120.19335617   179.99681574
 C      9   8   7     1.394411495937   120.44343937     0.00000000
 C     10   9   8     1.377727658139   120.52452008     0.00000000
 C     11  10   9     1.389957150419   119.18790131     0.00000000
 S     12  11  10     1.735460863863   123.18568278   179.99839372
 C      4   3   2     1.398559215765   118.34734701     0.00000000
 C     14   4   3     1.378638422502   120.79464432     0.00000000
 H      1   2   3     1.079712003268   120.20703654   179.99033929
 H      2   1   3     1.080143194211   120.03958220   180.00807260
 H      3   2   1     1.080738603919   119.80226112   180.00092985
 H      8   7   6     1.080354409442   118.95508436     0.00000000
 H      9   8   7     1.079693109175   119.95998590   179.99779393
 H     10   9   8     1.079538216091   119.78026958   179.99963503
 H     11  10   9     1.079407068719   121.12065728   180.00641727
 H     14   4   3     1.081666455059   118.87927471   179.99956939
 H     15  14   4     1.080058114177   119.74790299   180.00100506

---------------------------
INTERNAL COORDINATES (A.U.)
---------------------------
 C      0   0   0     0.000000000000     0.00000000     0.00000000
 C      1   0   0     2.617460827770     0.00000000     0.00000000
 C      2   1   0     2.609524049958   120.33387166     0.00000000
 C      3   2   1     2.639988016921   120.66745383     0.00000000
 C      4   3   2     2.735902436492   121.73742609   179.99247754
 P      5   4   3     3.251580048852   123.83222498   180.00129550
 C      6   5   4     3.372319194799    93.85256138   180.00203796
 C      7   6   5     2.643249496940   124.36275245   179.99849513
 C      8   7   6     2.599565358058   120.19335617   179.99681574
 C      9   8   7     2.635055845312   120.44343937     0.00000000
 C     10   9   8     2.603527961011   120.52452008     0.00000000
 C     11  10   9     2.626638352177   119.18790131     0.00000000
 S     12  11  10     3.279545748839   123.18568278   179.99839372
 C      4   3   2     2.642893899867   118.34734701     0.00000000
 C     14   4   3     2.605249056231   120.79464432     0.00000000
 H      1   2   3     2.040359989683   120.20703654   179.99033929
 H      2   1   3     2.041174822477   120.03958220   180.00807260
 H      3   2   1     2.042299983763   119.80226112   180.00092985
 H      8   7   6     2.041573961419   118.95508436     0.00000000
 H      9   8   7     2.040324285023   119.95998590   179.99779393
 H     10   9   8     2.040031579513   119.78026958   179.99963503
 H     11  10   9     2.039783746897   121.12065728   180.00641727
 H     14   4   3     2.044053368311   118.87927471   179.99956939
 H     15  14   4     2.041014044514   119.74790299   180.00100506

---------------------
BASIS SET INFORMATION
---------------------
There are 4 groups of distinct atoms

 Group   1 Type C   : 19s6p3d2f contracted to 5s4p3d2f pattern {88111/3111/111/11}
 Group   2 Type P   : 42s17p3d2f contracted to 6s5p3d2f pattern {131313111/77111/111/11}
 Group   3 Type S   : 42s17p3d2f contracted to 6s5p3d2f pattern {131313111/77111/111/11}
 Group   4 Type H   : 5s2p1d contracted to 3s2p1d pattern {311/11/1}

Atom   0C    basis set group =>   1
Atom   1C    basis set group =>   1
Atom   2C    basis set group =>   1
Atom   3C    basis set group =>   1
Atom   4C    basis set group =>   1
Atom   5P    basis set group =>   2
Atom   6C    basis set group =>   1
Atom   7C    basis set group =>   1
Atom   8C    basis set group =>   1
Atom   9C    basis set group =>   1
Atom  10C    basis set group =>   1
Atom  11C    basis set group =>   1
Atom  12S    basis set group =>   3
Atom  13C    basis set group =>   1
Atom  14C    basis set group =>   1
Atom  15H    basis set group =>   4
Atom  16H    basis set group =>   4
Atom  17H    basis set group =>   4
Atom  18H    basis set group =>   4
Atom  19H    basis set group =>   4
Atom  20H    basis set group =>   4
Atom  21H    basis set group =>   4
Atom  22H    basis set group =>   4
Atom  23H    basis set group =>   4
---------------------------------
AUXILIARY/J BASIS SET INFORMATION
---------------------------------
There are 4 groups of distinct atoms

 Group   1 Type C   : 10s7p5d2f1g contracted to 10s7p5d2f1g pattern {1111111111/1111111/11111/11/1}
 Group   2 Type P   : 13s11p9d3f1g contracted to 13s11p9d3f1g pattern {1111111111111/11111111111/111111111/111/1}
 Group   3 Type S   : 13s11p9d3f1g contracted to 13s11p9d3f1g pattern {1111111111111/11111111111/111111111/111/1}
 Group   4 Type H   : 4s3p2d1f contracted to 4s3p2d1f pattern {1111/111/11/1}

Atom   0C    basis set group =>   1
Atom   1C    basis set group =>   1
Atom   2C    basis set group =>   1
Atom   3C    basis set group =>   1
Atom   4C    basis set group =>   1
Atom   5P    basis set group =>   2
Atom   6C    basis set group =>   1
Atom   7C    basis set group =>   1
Atom   8C    basis set group =>   1
Atom   9C    basis set group =>   1
Atom  10C    basis set group =>   1
Atom  11C    basis set group =>   1
Atom  12S    basis set group =>   3
Atom  13C    basis set group =>   1
Atom  14C    basis set group =>   1
Atom  15H    basis set group =>   4
Atom  16H    basis set group =>   4
Atom  17H    basis set group =>   4
Atom  18H    basis set group =>   4
Atom  19H    basis set group =>   4
Atom  20H    basis set group =>   4
Atom  21H    basis set group =>   4
Atom  22H    basis set group =>   4
Atom  23H    basis set group =>   4
---------------------------------
AUXILIARY/C BASIS SET INFORMATION
---------------------------------
There are 4 groups of distinct atoms

 Group   1 Type C   : 9s7p6d4f2g contracted to 9s7p6d4f2g pattern {111111111/1111111/111111/1111/11}
 Group   2 Type P   : 11s9p8d6f3g contracted to 11s9p8d6f3g pattern {11111111111/111111111/11111111/111111/111}
 Group   3 Type S   : 11s9p8d6f3g contracted to 11s9p8d6f3g pattern {11111111111/111111111/11111111/111111/111}
 Group   4 Type H   : 4s3p2d1f contracted to 4s3p2d1f pattern {1111/111/11/1}

Atom   0C    basis set group =>   1
Atom   1C    basis set group =>   1
Atom   2C    basis set group =>   1
Atom   3C    basis set group =>   1
Atom   4C    basis set group =>   1
Atom   5P    basis set group =>   2
Atom   6C    basis set group =>   1
Atom   7C    basis set group =>   1
Atom   8C    basis set group =>   1
Atom   9C    basis set group =>   1
Atom  10C    basis set group =>   1
Atom  11C    basis set group =>   1
Atom  12S    basis set group =>   3
Atom  13C    basis set group =>   1
Atom  14C    basis set group =>   1
Atom  15H    basis set group =>   4
Atom  16H    basis set group =>   4
Atom  17H    basis set group =>   4
Atom  18H    basis set group =>   4
Atom  19H    basis set group =>   4
Atom  20H    basis set group =>   4
Atom  21H    basis set group =>   4
Atom  22H    basis set group =>   4
Atom  23H    basis set group =>   4


           ************************************************************
           *        Program running with 4 parallel MPI-processes     *
           *              working on a common directory               *
           ************************************************************
------------------------------------------------------------------------------
                           ORCA GTO INTEGRAL CALCULATION
                           -- RI-GTO INTEGRALS CHOSEN --
------------------------------------------------------------------------------
------------------------------------------------------------------------------
                   ___                                                        
                  /   \      - P O W E R E D   B Y -                         
                 /     \                                                     
                 |  |  |   _    _      __       _____    __    __             
                 |  |  |  | |  | |    /  \     |  _  \  |  |  /  |          
                  \  \/   | |  | |   /    \    | | | |  |  | /  /          
                 / \  \   | |__| |  /  /\  \   | |_| |  |  |/  /          
                |  |  |   |  __  | /  /__\  \  |    /   |      \           
                |  |  |   | |  | | |   __   |  |    \   |  |\   \          
                \     /   | |  | | |  |  |  |  | |\  \  |  | \   \       
                 \___/    |_|  |_| |__|  |__|  |_| \__\ |__|  \__/        
                                                                              
                      - O R C A' S   B I G   F R I E N D -                    
                                      &                                       
                       - I N T E G R A L  F E E D E R -                       
                                                                              
 v1 FN, 2020, v2 2021                                                         
------------------------------------------------------------------------------


Reading SHARK input file x3lyp-train-4.SHARKINP.tmp ... ok
----------------------
SHARK INTEGRAL PACKAGE
----------------------

Number of atoms                             ...     24
Number of basis functions                   ...    952
Number of shells                            ...    376
Maximum angular momentum                    ...      3
Integral batch strategy                     ... SHARK/LIBINT Hybrid
RI-J (if used) integral strategy            ... SPLIT-RIJ (Revised 2003 algorithm where possible)
Printlevel                                  ...      1
Contraction scheme used                     ... PARTIAL GENERAL contraction
Coulomb Range Separation                    ... NOT USED
Exchange Range Separation                   ... NOT USED
Finite Nucleus Model                        ... NOT USED
Auxiliary Coulomb fitting basis             ... AVAILABLE
   # of basis functions in Aux-J            ...   1539
   # of shells in Aux-J                     ...    489
   Maximum angular momentum in Aux-J        ...      4
Auxiliary J/K fitting basis                 ... NOT available
Auxiliary Correlation fitting basis         ... AVAILABLE
   # of basis functions in Aux-C            ...   1942
   # of shells in Aux-C                     ...    528
   Maximum angular momentum in Aux-C        ...      4
Auxiliary 'external' fitting basis          ... NOT available
Integral threshold                          ...     2.500000e-11
Primitive cut-off                           ...     2.500000e-12
Primitive pair pre-selection threshold      ...     2.500000e-12

Calculating pre-screening integrals         ... done (  0.1 sec) Dimension = 376
Calculating pre-screening integrals (ORCA)  ... done (  0.4 sec) Dimension = 268
Organizing shell pair data                  ... done (  0.6 sec)
Shell pair information
Total number of shell pairs                 ...     70876
Shell pairs after pre-screening             ...     47964
Total number of primitive shell pairs       ...     88476
Primitive shell pairs kept                  ...     55053
          la=0 lb=0:  10711 shell pairs
          la=1 lb=0:  12470 shell pairs
          la=1 lb=1:   3264 shell pairs
          la=2 lb=0:   7878 shell pairs
          la=2 lb=1:   3956 shell pairs
          la=2 lb=2:   1235 shell pairs
          la=3 lb=0:   4441 shell pairs
          la=3 lb=1:   2247 shell pairs
          la=3 lb=2:   1360 shell pairs
          la=3 lb=3:    402 shell pairs

Calculating one electron integrals          ... done (  0.1 sec)
Calculating RI/J V-Matrix + Cholesky decomp.... done (  0.7 sec)
Calculating RI/C V-Matrix + Cholesky decomp.... done (  0.3 sec)
Calculating Nuclear repulsion               ... done (  0.0 sec) ENN=   1078.649719388112 Eh

SHARK setup successfully completed in   4.3 seconds

Maximum memory used throughout the entire GTOINT-calculation: 85.2 MB


           ************************************************************
           *        Program running with 4 parallel MPI-processes     *
           *              working on a common directory               *
           ************************************************************
-------------------------------------------------------------------------------
                                 ORCA SCF
-------------------------------------------------------------------------------

------------
SCF SETTINGS
------------
Hamiltonian:
 Density Functional     Method          .... DFT(GTOs)
 Exchange Functional    Exchange        .... X
 Correlation Functional Correlation     .... LYP
 LDA part of GGA corr.  LDAOpt          .... VWN-5
 Gradients option       PostSCFGGA      .... off
 Hybrid DFT is turned on
   Fraction HF Exchange ScalHFX         ....  0.218000
   Scaling of DF-GGA-X  ScalDFX         ....  0.709000
   Scaling of DF-GGA-C  ScalDFC         ....  0.871000
   Scaling of DF-LDA-C  ScalLDAC        ....  1.000000
   Perturbative correction              ....  0.000000
   Density functional embedding theory  .... OFF
 RI-approximation to the Coulomb term is turned on
   Number of AuxJ basis functions       .... 1539
   RIJ-COSX (HFX calculated with COS-X)).... on


General Settings:
 Integral files         IntName         .... x3lyp-train-4
 Hartree-Fock type      HFTyp           .... RHF
 Total Charge           Charge          ....    0
 Multiplicity           Mult            ....    1
 Number of Electrons    NEL             ....  118
 Basis Dimension        Dim             ....  824
 Nuclear Repulsion      ENuc            ....   1078.6497193881 Eh

Convergence Acceleration:
 DIIS                   CNVDIIS         .... on
   Start iteration      DIISMaxIt       ....    12
   Startup error        DIISStart       ....  0.200000
   # of expansion vecs  DIISMaxEq       ....     5
   Bias factor          DIISBfac        ....   1.050
   Max. coefficient     DIISMaxC        ....  10.000
 Trust-Rad. Augm. Hess. CNVTRAH         .... auto
   Auto Start mean grad. ratio tolernc. ....  1.125000
   Auto Start start iteration           ....    20
   Auto Start num. interpolation iter.  ....    10
   Max. Number of Micro iterations      ....    16
   Max. Number of Macro iterations      .... Maxiter - #DIIS iter
   Number of Davidson start vectors     ....     2
   Converg. threshold I  (grad. norm)   ....   1.000e-05
   Converg. threshold II (energy diff.) ....   1.000e-08
   Grad. Scal. Fac. for Micro threshold ....   0.100
   Minimum threshold for Micro iter.    ....   0.010
   NR start threshold (gradient norm)   ....   0.001
   Initial trust radius                 ....   0.400
   Minimum AH scaling param. (alpha)    ....   1.000
   Maximum AH scaling param. (alpha)    .... 1000.000
   Orbital update algorithm             .... Taylor
   White noise on init. David. guess    .... on
   Maximum white noise                  ....   0.010
   Quad. conv. algorithm                .... NR
 SOSCF                  CNVSOSCF        .... on
   Start iteration      SOSCFMaxIt      ....   150
   Startup grad/error   SOSCFStart      ....  0.003300
 Level Shifting         CNVShift        .... on
   Level shift para.    LevelShift      ....    0.2500
   Turn off err/grad.   ShiftErr        ....    0.0010
 Zerner damping         CNVZerner       .... off
 Static damping         CNVDamp         .... on
   Fraction old density DampFac         ....    0.7000
   Max. Damping (<1)    DampMax         ....    0.9800
   Min. Damping (>=0)   DampMin         ....    0.0000
   Turn off err/grad.   DampErr         ....    0.1000
 Fernandez-Rico         CNVRico         .... off

SCF Procedure:
 Maximum # iterations   MaxIter         ....   125
 SCF integral mode      SCFMode         .... Direct
   Integral package                     .... SHARK and LIBINT hybrid scheme
 Reset frequency        DirectResetFreq ....    20
 Integral Threshold     Thresh          ....  2.500e-11 Eh
 Primitive CutOff       TCut            ....  2.500e-12 Eh

Convergence Tolerance:
 Convergence Check Mode ConvCheckMode   .... Total+1el-Energy
 Convergence forced     ConvForced      .... 0
 Energy Change          TolE            ....  1.000e-08 Eh
 1-El. energy change                    ....  1.000e-05 Eh
 Orbital Gradient       TolG            ....  1.000e-05
 Orbital Rotation angle TolX            ....  1.000e-05
 DIIS Error             TolErr          ....  5.000e-07


Diagonalization of the overlap matrix:
Smallest eigenvalue                        ... 9.689e-07
Time for diagonalization                   ...    0.204 sec
Threshold for overlap eigenvalues          ... 1.000e-08
Number of eigenvalues below threshold      ... 0
Time for construction of square roots      ...    0.107 sec
Total time needed                          ...    0.315 sec

Time for model grid setup =    0.401 sec

------------------------------
INITIAL GUESS: MODEL POTENTIAL
------------------------------
Loading Hartree-Fock densities                     ... done
Calculating cut-offs                               ... done
Initializing the effective Hamiltonian             ... done
Setting up the integral package (SHARK)            ... done
Starting the Coulomb interaction                   ... done (   1.4 sec)
Reading the grid                                   ... done
Mapping shells                                     ... done
Starting the XC term evaluation                    ... done (   1.3 sec)
  promolecular density results
     # of electrons  =    117.995472245
     EX              =   -117.917300239
     EC              =     -4.207902558
     EX+EC           =   -122.125202797
Transforming the Hamiltonian                       ... done (   0.1 sec)
Diagonalizing the Hamiltonian                      ... done (   0.2 sec)
Back transforming the eigenvectors                 ... done (   0.0 sec)
Now organizing SCF variables                       ... done
                      ------------------
                      INITIAL GUESS DONE (   3.4 sec)
                      ------------------
-------------------
DFT GRID GENERATION
-------------------

General Integration Accuracy     IntAcc      ... 4.388
Radial Grid Type                 RadialGrid  ... OptM3 with GC (2021)
Angular Grid (max. ang.)         AngularGrid ... 4 (Lebedev-302)
Angular grid pruning method      GridPruning ... 4 (adaptive)
Weight generation scheme         WeightScheme... Becke
Basis function cutoff            BFCut       ... 1.0000e-11
Integration weight cutoff        WCut        ... 1.0000e-14
Angular grids for H and He will be reduced by one unit
Partially contracted basis set               ... off
Rotationally invariant grid construction     ... off

Total number of grid points                  ...   125109
Total number of batches                      ...     1965
Average number of points per batch           ...       63
Average number of grid points per atom       ...     5213
Time for grid setup =    1.471 sec

--------------------
COSX GRID GENERATION
--------------------

GRIDX 1
-------
General Integration Accuracy     IntAcc      ... 3.816
Radial Grid Type                 RadialGrid  ... OptM3 with GC (2021)
Angular Grid (max. ang.)         AngularGrid ... 1 (Lebedev-50)
Angular grid pruning method      GridPruning ... 4 (adaptive)
Weight generation scheme         WeightScheme... Becke
Basis function cutoff            BFCut       ... 1.0000e-11
Integration weight cutoff        WCut        ... 1.0000e-14
Angular grids for H and He will be reduced by one unit
Partially contracted basis set               ... on
Rotationally invariant grid construction     ... off

Total number of grid points                  ...    15745
Total number of batches                      ...      257
Average number of points per batch           ...       61
Average number of grid points per atom       ...      656
UseSFitting                                  ... on

GRIDX 2
-------
General Integration Accuracy     IntAcc      ... 4.020
Radial Grid Type                 RadialGrid  ... OptM3 with GC (2021)
Angular Grid (max. ang.)         AngularGrid ... 2 (Lebedev-110)
Angular grid pruning method      GridPruning ... 4 (adaptive)
Weight generation scheme         WeightScheme... Becke
Basis function cutoff            BFCut       ... 1.0000e-11
Integration weight cutoff        WCut        ... 1.0000e-14
Angular grids for H and He will be reduced by one unit
Partially contracted basis set               ... on
Rotationally invariant grid construction     ... off

Total number of grid points                  ...    37919
Total number of batches                      ...      605
Average number of points per batch           ...       62
Average number of grid points per atom       ...     1580
UseSFitting                                  ... on

GRIDX 3
-------
General Integration Accuracy     IntAcc      ... 4.338
Radial Grid Type                 RadialGrid  ... OptM3 with GC (2021)
Angular Grid (max. ang.)         AngularGrid ... 3 (Lebedev-194)
Angular grid pruning method      GridPruning ... 4 (adaptive)
Weight generation scheme         WeightScheme... Becke
Basis function cutoff            BFCut       ... 1.0000e-11
Integration weight cutoff        WCut        ... 1.0000e-14
Angular grids for H and He will be reduced by one unit
Partially contracted basis set               ... on
Rotationally invariant grid construction     ... off

Total number of grid points                  ...    83164
Total number of batches                      ...     1311
Average number of points per batch           ...       63
Average number of grid points per atom       ...     3465
UseSFitting                                  ... on

Time for X-Grid setup             =    3.275 sec


--------------------
CPCM SOLVATION MODEL
--------------------
CPCM parameters:
  Epsilon                                         ...      35.6880
  Refrac                                          ...       1.3442
  Rsolv                                           ...       1.3000
  Surface type                                    ... GAUSSIAN VDW
  Epsilon function type                           ...         CPCM
Solvent:                                     ... ACETONITRILE
SMD-CDS solvent descriptors:
  Soln                                       ...    1.3442
  Soln25                                     ...    1.3416
  Sola                                       ...    0.0700
  Solb                                       ...    0.3200
  Solg                                       ...   41.2500
  Solc                                       ...    0.0000
  Solh                                       ...    0.0000
Radii:
 Radius for C  used is    3.4960 Bohr (=   1.8500 Ang.)
 Radius for P  used is    4.0062 Bohr (=   2.1200 Ang.)
 Radius for S  used is    4.7054 Bohr (=   2.4900 Ang.)
 Radius for H  used is    2.2677 Bohr (=   1.2000 Ang.)
Calculating surface                               ...        done! (  0.0s)
GEPOL surface points                              ...         1337
GEPOL Volume                                      ...    1598.9572
GEPOL Surface-area                                ...     850.5654
Calculating surface distance matrix               ...        done! (  0.0s)
Performing Cholesky decomposition & store         ...        done! (  0.1s)
Overall time for CPCM initialization              ...                 0.1s
 re-compute Schwartz prescreening matrix in partically contracted basis (1) ...done (   0.171 sec)
--------------
SCF ITERATIONS
--------------
ITER       Energy         Delta-E        Max-DP      RMS-DP      [F,P]     Damp
               ***  Starting incremental Fock matrix formation  ***
  0  -1239.5782026592   0.000000000000 0.22745213  0.00132315  0.1534714 0.7000
  1  -1239.7555471518  -0.177344492577 0.15921204  0.00094347  0.0801750 0.7000
                               ***Turning on DIIS***
  2  -1239.8312056156  -0.075658463864 0.33001573  0.00195422  0.0338703 0.0000
  3  -1239.9356993592  -0.104493743563 0.05145438  0.00039900  0.0473530 0.0000
  4  -1239.9677541106  -0.032054751400 0.01923962  0.00018068  0.0101720 0.0000
                      *** Initiating the SOSCF procedure ***
                           *** Shutting down DIIS ***
                      *** Re-Reading the Fockian *** 
                      *** Removing any level shift *** 
ITER      Energy       Delta-E        Grad      Rot      Max-DP    RMS-DP
  5  -1239.96922793  -0.0014738226  0.000726  0.000726  0.006791  0.000064
               *** Restarting incremental Fock matrix formation ***
  6  -1239.96933701  -0.0001090802  0.000672  0.003297  0.019022  0.000364
  7  -1239.96933939  -0.0000023797  0.000534  0.001044  0.003781  0.000075
  8  -1239.96936459  -0.0000251931  0.000113  0.000464  0.003853  0.000081
  9  -1239.96936441   0.0000001727  0.000124  0.000395  0.001199  0.000011
 10  -1239.96936587  -0.0000014520  0.000038  0.000230  0.002191  0.000022
 11  -1239.96936582   0.0000000420  0.000036  0.000084  0.000696  0.000008
 12  -1239.96936592  -0.0000000932  0.000005  0.000028  0.001492  0.000021
 13  -1239.96936597  -0.0000000488  0.000005  0.000021  0.000584  0.000008
                  ***Gradient check signals convergence***
              ***Rediagonalizing the Fockian in SOSCF/NRSCF***

               *****************************************************
               *                     SUCCESS                       *
               *           SCF CONVERGED AFTER  14 CYCLES          *
               *****************************************************

Old exchange energy                            =    -25.796797826 Eh
New exchange energy                            =    -25.796702734 Eh
Exchange energy change after final integration =      0.000095092 Eh
Total energy after final integration           =  -1239.969270892 Eh
Final COS-X integration done in                =    72.443 sec

SMD CDS free energy correction energy :                -2.96894     Kcal/mol
Total Energy after SMD CDS correction =             -1239.974002205 Eh

----------------
TOTAL SCF ENERGY
----------------

Total Energy       :        -1239.97400220 Eh          -33741.40798 eV

Components:
Nuclear Repulsion  :         1078.64971939 Eh           29351.55107 eV
Electronic Energy  :        -2318.62372159 Eh          -63092.95905 eV
One Electron Energy:        -3841.66539137 Eh         -104537.02986 eV
Two Electron Energy:         1523.04166978 Eh           41444.07081 eV
Max COSX asymmetry :            0.00002459 Eh               0.00067 eV
CPCM Dielectric    :           -0.01080253 Eh              -0.29395 eV
SMD CDS (Gcds)     :           -0.00473131 Eh              -0.12875 eV

Virial components:
Potential Energy   :        -2475.41224167 Eh          -67359.39158 eV
Kinetic Energy     :         1235.43823946 Eh           33617.98360 eV
Virial Ratio       :            2.00367138


DFT components:
N(Alpha)           :       58.999972020608 electrons
N(Beta)            :       58.999972020608 electrons
N(Total)           :      117.999944041216 electrons
E(X)               :      -91.889741738878 Eh       
E(C)               :       -4.719810108899 Eh       
E(XC)              :      -96.609551847777 Eh       
DFET-embed. en.    :        0.000000000000 Eh       
CPCM Solvation Model Properties:
Surface-charge          :           -0.05830929
Charge-correction       :            0.00046595 Eh               0.01268 eV
Free-energy (cav+disp)  :           -0.00473131 Eh              -0.12875 eV

---------------
SCF CONVERGENCE
---------------

  Last Energy change         ...   -1.9238e-08  Tolerance :   1.0000e-08
  Last MAX-Density change    ...    3.1086e-15  Tolerance :   1.0000e-07
  Last RMS-Density change    ...    1.4912e-17  Tolerance :   5.0000e-09
  Last Orbital Gradient      ...    1.3407e-06  Tolerance :   1.0000e-05
  Last Orbital Rotation      ...    5.4424e-06  Tolerance :   1.0000e-05

             **** THE GBW FILE WAS UPDATED (x3lyp-train-4.gbw) ****
             **** DENSITY x3lyp-train-4.scfp WAS UPDATED ****
             **** ENERGY FILE WAS UPDATED (x3lyp-train-4.en.tmp) ****
             **** THE GBW FILE WAS UPDATED (x3lyp-train-4.gbw) ****
             **** DENSITY x3lyp-train-4.scfp WAS UPDATED ****
----------------
ORBITAL ENERGIES
----------------

  NO   OCC          E(Eh)            E(eV) 
   0   2.0000     -88.992394     -2421.6062 
   1   2.0000     -77.139635     -2099.0762 
   2   2.0000     -10.248378      -278.8726 
   3   2.0000     -10.238801      -278.6119 
   4   2.0000     -10.219498      -278.0867 
   5   2.0000     -10.212852      -277.9058 
   6   2.0000     -10.205272      -277.6996 
   7   2.0000     -10.202559      -277.6257 
   8   2.0000     -10.201789      -277.6048 
   9   2.0000     -10.200769      -277.5770 
  10   2.0000     -10.200535      -277.5707 
  11   2.0000     -10.198806      -277.5236 
  12   2.0000     -10.198410      -277.5129 
  13   2.0000     -10.197830      -277.4971 
  14   2.0000     -10.197284      -277.4822 
  15   2.0000      -7.997110      -217.6124 
  16   2.0000      -6.562101      -178.5638 
  17   2.0000      -5.954634      -162.0338 
  18   2.0000      -5.951049      -161.9363 
  19   2.0000      -5.948168      -161.8579 
  20   2.0000      -4.718130      -128.3868 
  21   2.0000      -4.717418      -128.3675 
  22   2.0000      -4.714572      -128.2900 
  23   2.0000      -0.896926       -24.4066 
  24   2.0000      -0.876775       -23.8582 
  25   2.0000      -0.835484       -22.7347 
  26   2.0000      -0.782845       -21.3023 
  27   2.0000      -0.769157       -20.9298 
  28   2.0000      -0.760086       -20.6830 
  29   2.0000      -0.727357       -19.7924 
  30   2.0000      -0.690160       -18.7802 
  31   2.0000      -0.635763       -17.3000 
  32   2.0000      -0.620534       -16.8856 
  33   2.0000      -0.603089       -16.4109 
  34   2.0000      -0.579777       -15.7765 
  35   2.0000      -0.559582       -15.2270 
  36   2.0000      -0.517935       -14.0937 
  37   2.0000      -0.488068       -13.2810 
  38   2.0000      -0.479136       -13.0380 
  39   2.0000      -0.474504       -12.9119 
  40   2.0000      -0.448683       -12.2093 
  41   2.0000      -0.447076       -12.1656 
  42   2.0000      -0.431148       -11.7321 
  43   2.0000      -0.423035       -11.5114 
  44   2.0000      -0.414099       -11.2682 
  45   2.0000      -0.411188       -11.1890 
  46   2.0000      -0.390081       -10.6146 
  47   2.0000      -0.386425       -10.5151 
  48   2.0000      -0.362371        -9.8606 
  49   2.0000      -0.354956        -9.6589 
  50   2.0000      -0.347663        -9.4604 
  51   2.0000      -0.342807        -9.3282 
  52   2.0000      -0.335496        -9.1293 
  53   2.0000      -0.294858        -8.0235 
  54   2.0000      -0.281461        -7.6590 
  55   2.0000      -0.281003        -7.6465 
  56   2.0000      -0.265943        -7.2367 
  57   2.0000      -0.238167        -6.4809 
  58   2.0000      -0.213612        -5.8127 
  59   0.0000      -0.077484        -2.1084 
  60   0.0000      -0.021154        -0.5756 
  61   0.0000      -0.017017        -0.4630 
  62   0.0000      -0.006068        -0.1651 
  63   0.0000      -0.003034        -0.0826 
  64   0.0000       0.003087         0.0840 
  65   0.0000       0.014465         0.3936 
  66   0.0000       0.016255         0.4423 
  67   0.0000       0.016270         0.4427 
  68   0.0000       0.020114         0.5473 
  69   0.0000       0.024453         0.6654 
  70   0.0000       0.032815         0.8929 
  71   0.0000       0.036758         1.0002 
  72   0.0000       0.042815         1.1650 
  73   0.0000       0.043856         1.1934 
  74   0.0000       0.046531         1.2662 
  75   0.0000       0.051486         1.4010 
  76   0.0000       0.053547         1.4571 
  77   0.0000       0.055605         1.5131 
  78   0.0000       0.062585         1.7030 
  79   0.0000       0.067136         1.8269 
  80   0.0000       0.073864         2.0099 
  81   0.0000       0.075482         2.0540 
  82   0.0000       0.077210         2.1010 
  83   0.0000       0.082863         2.2548 
  84   0.0000       0.095630         2.6022 
  85   0.0000       0.095952         2.6110 
  86   0.0000       0.098736         2.6867 
  87   0.0000       0.099419         2.7053 
  88   0.0000       0.102870         2.7992 
  89   0.0000       0.105719         2.8768 
  90   0.0000       0.108061         2.9405 
  91   0.0000       0.114717         3.1216 
  92   0.0000       0.121405         3.3036 
  93   0.0000       0.124564         3.3896 
  94   0.0000       0.125334         3.4105 
  95   0.0000       0.128177         3.4879 
  96   0.0000       0.128630         3.5002 
  97   0.0000       0.132697         3.6109 
  98   0.0000       0.135990         3.7005 
  99   0.0000       0.139318         3.7910 
 100   0.0000       0.140902         3.8341 
 101   0.0000       0.142087         3.8664 
 102   0.0000       0.142280         3.8716 
 103   0.0000       0.147556         4.0152 
 104   0.0000       0.147937         4.0256 
 105   0.0000       0.149545         4.0693 
 106   0.0000       0.154238         4.1970 
 107   0.0000       0.159290         4.3345 
 108   0.0000       0.161718         4.4006 
 109   0.0000       0.166012         4.5174 
 110   0.0000       0.167876         4.5682 
 111   0.0000       0.168940         4.5971 
 112   0.0000       0.168952         4.5974 
 113   0.0000       0.172169         4.6850 
 114   0.0000       0.173879         4.7315 
 115   0.0000       0.178820         4.8660 
 116   0.0000       0.182840         4.9753 
 117   0.0000       0.183508         4.9935 
 118   0.0000       0.183530         4.9941 
 119   0.0000       0.192254         5.2315 
 120   0.0000       0.192610         5.2412 
 121   0.0000       0.202193         5.5020 
 122   0.0000       0.202816         5.5189 
 123   0.0000       0.204416         5.5625 
 124   0.0000       0.207022         5.6333 
 125   0.0000       0.214538         5.8379 
 126   0.0000       0.218061         5.9337 
 127   0.0000       0.219795         5.9809 
 128   0.0000       0.226245         6.1564 
 129   0.0000       0.232525         6.3273 
 130   0.0000       0.235073         6.3966 
 131   0.0000       0.240027         6.5315 
 132   0.0000       0.242270         6.5925 
 133   0.0000       0.249639         6.7930 
 134   0.0000       0.250124         6.8062 
 135   0.0000       0.250419         6.8143 
 136   0.0000       0.253899         6.9089 
 137   0.0000       0.257144         6.9972 
 138   0.0000       0.260049         7.0763 
 139   0.0000       0.261885         7.1263 
 140   0.0000       0.266674         7.2566 
 141   0.0000       0.273663         7.4468 
 142   0.0000       0.278303         7.5730 
 143   0.0000       0.283004         7.7009 
 144   0.0000       0.284496         7.7415 
 145   0.0000       0.285602         7.7716 
 146   0.0000       0.287806         7.8316 
 147   0.0000       0.289679         7.8826 
 148   0.0000       0.292462         7.9583 
 149   0.0000       0.296347         8.0640 
 150   0.0000       0.300088         8.1658 
 151   0.0000       0.307909         8.3786 
 152   0.0000       0.309416         8.4196 
 153   0.0000       0.314906         8.5690 
 154   0.0000       0.321705         8.7540 
 155   0.0000       0.325350         8.8532 
 156   0.0000       0.326246         8.8776 
 157   0.0000       0.330807         9.0017 
 158   0.0000       0.335370         9.1259 
 159   0.0000       0.336432         9.1548 
 160   0.0000       0.341770         9.3000 
 161   0.0000       0.345415         9.3992 
 162   0.0000       0.345978         9.4145 
 163   0.0000       0.353947         9.6314 
 164   0.0000       0.363514         9.8917 
 165   0.0000       0.365295         9.9402 
 166   0.0000       0.368931        10.0391 
 167   0.0000       0.370273        10.0756 
 168   0.0000       0.373996        10.1769 
 169   0.0000       0.380166        10.3448 
 170   0.0000       0.383112        10.4250 
 171   0.0000       0.389897        10.6096 
 172   0.0000       0.391486        10.6529 
 173   0.0000       0.391618        10.6565 
 174   0.0000       0.393392        10.7047 
 175   0.0000       0.400000        10.8845 
 176   0.0000       0.401824        10.9342 
 177   0.0000       0.403040        10.9673 
 178   0.0000       0.403510        10.9801 
 179   0.0000       0.407092        11.0775 
 180   0.0000       0.409611        11.1461 
 181   0.0000       0.413068        11.2401 
 182   0.0000       0.417416        11.3585 
 183   0.0000       0.420232        11.4351 
 184   0.0000       0.422209        11.4889 
 185   0.0000       0.422912        11.5080 
 186   0.0000       0.426323        11.6008 
 187   0.0000       0.433516        11.7966 
 188   0.0000       0.436074        11.8662 
 189   0.0000       0.437413        11.9026 
 190   0.0000       0.441113        12.0033 
 191   0.0000       0.444493        12.0953 
 192   0.0000       0.444852        12.1050 
 193   0.0000       0.455693        12.4000 
 194   0.0000       0.459430        12.5017 
 195   0.0000       0.459771        12.5110 
 196   0.0000       0.466243        12.6871 
 197   0.0000       0.468178        12.7398 
 198   0.0000       0.472889        12.8680 
 199   0.0000       0.477142        12.9837 
 200   0.0000       0.486222        13.2308 
 201   0.0000       0.486534        13.2393 
 202   0.0000       0.489831        13.3290 
 203   0.0000       0.494156        13.4467 
 204   0.0000       0.496803        13.5187 
 205   0.0000       0.498369        13.5613 
 206   0.0000       0.503483        13.7005 
 207   0.0000       0.507021        13.7967 
 208   0.0000       0.511041        13.9061 
 209   0.0000       0.514602        14.0030 
 210   0.0000       0.521793        14.1987 
 211   0.0000       0.530345        14.4314 
 212   0.0000       0.530951        14.4479 
 213   0.0000       0.543318        14.7844 
 214   0.0000       0.543710        14.7951 
 215   0.0000       0.556976        15.1561 
 216   0.0000       0.558420        15.1954 
 217   0.0000       0.576504        15.6875 
 218   0.0000       0.582639        15.8544 
 219   0.0000       0.583506        15.8780 
 220   0.0000       0.589393        16.0382 
 221   0.0000       0.589707        16.0468 
 222   0.0000       0.603571        16.4240 
 223   0.0000       0.611046        16.6274 
 224   0.0000       0.615121        16.7383 
 225   0.0000       0.624259        16.9870 
 226   0.0000       0.625972        17.0336 
 227   0.0000       0.631307        17.1787 
 228   0.0000       0.634648        17.2697 
 229   0.0000       0.641566        17.4579 
 230   0.0000       0.646386        17.5890 
 231   0.0000       0.647026        17.6065 
 232   0.0000       0.648607        17.6495 
 233   0.0000       0.651892        17.7389 
 234   0.0000       0.656097        17.8533 
 235   0.0000       0.663464        18.0538 
 236   0.0000       0.664433        18.0801 
 237   0.0000       0.668622        18.1941 
 238   0.0000       0.672461        18.2986 
 239   0.0000       0.680741        18.5239 
 240   0.0000       0.684792        18.6341 
 241   0.0000       0.688774        18.7425 
 242   0.0000       0.688818        18.7437 
 243   0.0000       0.696645        18.9567 
 244   0.0000       0.701220        19.0812 
 245   0.0000       0.703302        19.1378 
 246   0.0000       0.708398        19.2765 
 247   0.0000       0.711570        19.3628 
 248   0.0000       0.713643        19.4192 
 249   0.0000       0.717286        19.5183 
 250   0.0000       0.725898        19.7527 
 251   0.0000       0.731776        19.9126 
 252   0.0000       0.735632        20.0176 
 253   0.0000       0.736512        20.0415 
 254   0.0000       0.741726        20.1834 
 255   0.0000       0.750708        20.4278 
 256   0.0000       0.754893        20.5417 
 257   0.0000       0.755838        20.5674 
 258   0.0000       0.759797        20.6751 
 259   0.0000       0.762182        20.7400 
 260   0.0000       0.765378        20.8270 
 261   0.0000       0.766012        20.8442 
 262   0.0000       0.771877        21.0038 
 263   0.0000       0.774924        21.0867 
 264   0.0000       0.777848        21.1663 
 265   0.0000       0.780261        21.2320 
 266   0.0000       0.785684        21.3796 
 267   0.0000       0.791302        21.5324 
 268   0.0000       0.796405        21.6713 
 269   0.0000       0.796625        21.6773 
 270   0.0000       0.803131        21.8543 
 271   0.0000       0.807131        21.9632 
 272   0.0000       0.810763        22.0620 
 273   0.0000       0.819336        22.2953 
 274   0.0000       0.828575        22.5467 
 275   0.0000       0.831929        22.6379 
 276   0.0000       0.837656        22.7938 
 277   0.0000       0.838635        22.8204 
 278   0.0000       0.839731        22.8503 
 279   0.0000       0.846372        23.0309 
 280   0.0000       0.849042        23.1036 
 281   0.0000       0.852771        23.2051 
 282   0.0000       0.863902        23.5080 
 283   0.0000       0.873462        23.7681 
 284   0.0000       0.876688        23.8559 
 285   0.0000       0.877935        23.8898 
 286   0.0000       0.881332        23.9823 
 287   0.0000       0.885786        24.1035 
 288   0.0000       0.887868        24.1601 
 289   0.0000       0.888341        24.1730 
 290   0.0000       0.894381        24.3374 
 291   0.0000       0.900687        24.5089 
 292   0.0000       0.902536        24.5593 
 293   0.0000       0.908388        24.7185 
 294   0.0000       0.915288        24.9063 
 295   0.0000       0.924336        25.1525 
 296   0.0000       0.927280        25.2326 
 297   0.0000       0.929536        25.2940 
 298   0.0000       0.931714        25.3532 
 299   0.0000       0.935601        25.4590 
 300   0.0000       0.939889        25.5757 
 301   0.0000       0.940631        25.5959 
 302   0.0000       0.951751        25.8985 
 303   0.0000       0.956559        26.0293 
 304   0.0000       0.961223        26.1562 
 305   0.0000       0.966935        26.3116 
 306   0.0000       0.971223        26.4283 
 307   0.0000       0.980286        26.6750 
 308   0.0000       0.982384        26.7320 
 309   0.0000       0.987216        26.8635 
 310   0.0000       0.995890        27.0995 
 311   0.0000       1.002911        27.2906 
[...]
------------------------------------------------------------------------------
                        ORCA TD-DFT/TDA CALCULATION
------------------------------------------------------------------------------

Input orbitals are from        ... x3lyp-train-4_job2.gbw
CI-vector output               ... x3lyp-train-4_job2.cis
Tamm-Dancoff approximation     ... operative
CIS-Integral strategy          ... AO-integrals
Integral handling              ... AO integral Direct
Max. core memory used          ... 4000 MB
Reference state                ... RHF
Generation of triplets         ... off
Follow IRoot                   ... off
Number of operators            ... 1
Orbital ranges used for CIS calculation:
 Operator 0:  Orbitals  23... 58  to  59...823
XAS localization array:
 Operator 0:  Orbitals  -1... -1

-------------------
XC-INTEGRATION GRID
-------------------

General Integration Accuracy     IntAcc      ... 3.467
Radial Grid Type                 RadialGrid  ... OptM3 with GC (2021)
Angular Grid (max. ang.)         AngularGrid ... 1 (Lebedev-50)
Angular grid pruning method      GridPruning ... 4 (adaptive)
Weight generation scheme         WeightScheme... Becke
Basis function cutoff            BFCut       ... 1.0000e-11
Integration weight cutoff        WCut        ... 1.0000e-14
Angular grids for H and He will be reduced by one unit
Partially contracted basis set               ... off
Rotationally invariant grid construction     ... off

Total number of grid points                  ...    18839
Total number of batches                      ...      306
Average number of points per batch           ...       61
Average number of grid points per atom       ...      785

---------------------
COSX-INTEGRATION GRID
---------------------

General Integration Accuracy     IntAcc      ... 3.067
Radial Grid Type                 RadialGrid  ... OptM3 with GC (2021)
Angular Grid (max. ang.)         AngularGrid ... 1 (Lebedev-50)
Angular grid pruning method      GridPruning ... 4 (adaptive)
Weight generation scheme         WeightScheme... Becke
Basis function cutoff            BFCut       ... 1.0000e-11
Integration weight cutoff        WCut        ... 1.0000e-14
Angular grids for H and He will be reduced by one unit
Partially contracted basis set               ... on
Rotationally invariant grid construction     ... off

Total number of grid points                  ...     8531
Total number of batches                      ...      145
Average number of points per batch           ...       58
Average number of grid points per atom       ...      355

---------------
TD-DFT XC SETUP
---------------

DFT calculation                         ... on
Name of the grid file                   ... x3lyp-train-4_job2.grid_cis.tmp
Exchange functional (TD-DFT)            ... X
Correlation functional (TD-DFT)         ... LYP
 LDA part of GGA corr.  LDAOpt (TD-DFT) ... VWN-5
Hybrid DFT                              ... on
   Exchange mixing (TD-DFT)             ...  0.218
   GGA exch. scaling (TD-DFT)           ...  0.709
   GGA corr. scaling (TD-DFT)           ...  0.871

Building densities             ... done
Calculating rho(r) on the grid ... done
Building xc-kernel on the grid ... done
                    *** TD-DFT CALCULATION INITIALIZED ***

---------------------------------
    LR-CPCM (non-equilibrium)
---------------------------------

Setting up LR-CPCM             ... done

------------------------
DAVIDSON-DIAGONALIZATION
------------------------

Dimension of the eigenvalue problem            ...  27540
Number of roots to be determined               ...     10
Maximum size of the expansion space            ...     70
Maximum number of iterations                   ...    100
Convergence tolerance for the residual         ...    1.000e-06
Convergence tolerance for the energies         ...    1.000e-06
Orthogonality tolerance                        ...    1.000e-14
Level Shift                                    ...    0.000e+00
Constructing the preconditioner                ... o.k.
Building the initial guess                     ... o.k.
Number of trial vectors determined             ...     70


                       ****Iteration    0****

   Memory handling for direct AO based CIS:
   Memory per vector needed      ...    31 MB
   Memory needed                 ...   932 MB
   Memory available              ...  4000 MB
   Number of vectors per batch   ...   128
   Number of batches             ...     1
   Time for densities:            0.373
   Time for RI-J (Direct):       10.673
   Time for K (COSX):            65.002
   Time for XC-Integration:      30.502
   Time for LR-CPCM terms:       12.074
   Time for Sigma-Completion:     0.249
   Size of expansion space: 30
   Lowest Energy          :     0.148212617116
   Maximum Energy change  :     0.193240045357 (vector 9)
   Maximum residual norm  :     0.009698703717

                       ****Iteration    1****
   Time for densities:            0.119
   Time for RI-J (Direct):        6.085
   Time for K (COSX):            22.905
   Time for XC-Integration:      10.541
   Time for LR-CPCM terms:        5.572
   Time for Sigma-Completion:     0.083
   Size of expansion space: 40
   Lowest Energy          :     0.133378300080
   Maximum Energy change  :     0.014834317036 (vector 0)
   Maximum residual norm  :     0.000353147057

                       ****Iteration    2****
   Time for densities:            0.106
   Time for RI-J (Direct):        6.092
   Time for K (COSX):            23.586
   Time for XC-Integration:      10.941
   Time for LR-CPCM terms:        5.561
   Time for Sigma-Completion:     0.087
   Size of expansion space: 50
   Lowest Energy          :     0.132985137033
   Maximum Energy change  :     0.000943468169 (vector 7)
   Maximum residual norm  :     0.000103431113

                       ****Iteration    3****
   Time for densities:            0.124
   Time for RI-J (Direct):        6.172
   Time for K (COSX):            23.690
   Time for XC-Integration:      11.044
   Time for LR-CPCM terms:        5.616
   Time for Sigma-Completion:     0.087
   Size of expansion space: 60
   Lowest Energy          :     0.132960148233
   Maximum Energy change  :     0.000540009686 (vector 9)
   Maximum residual norm  :     0.000039895007

                       ****Iteration    4****
   Time for densities:            0.120
   Time for RI-J (Direct):        6.128
   Time for K (COSX):            23.752
   Time for XC-Integration:      11.021
   Time for LR-CPCM terms:        5.607
   Time for Sigma-Completion:     0.088
   Size of expansion space: 70
   Lowest Energy          :     0.132959213019
   Maximum Energy change  :     0.000086106919 (vector 9)
   Maximum residual norm  :     0.000004692959
   Rebuilding the expansion space

                       ****Iteration    5****
   Time for densities:            0.239
   Time for RI-J (Direct):        8.150
   Time for K (COSX):            43.418
   Time for XC-Integration:      20.806
   Time for LR-CPCM terms:        8.880
   Time for Sigma-Completion:     0.158
   Size of expansion space: 20
   Lowest Energy          :     0.132958657374
   Maximum Energy change  :     0.000007092654 (vector 9)
   Maximum residual norm  :     0.000000568719

      *** CONVERGENCE OF RESIDUAL NORM REACHED ***

Storing the converged CI vectors               ... x3lyp-train-4_job2.cis1

                 *** DAVIDSON DONE ***

Total time for solving the CIS problem:   387.044sec

------------------------------------
TD-DFT/TDA EXCITED STATES (SINGLETS)
------------------------------------

the weight of the individual excitations are printed if larger than 1.0e-02

STATE  1:  E=   0.132959 au      3.618 eV    29181.1 cm**-1 <S**2> =   0.000000
    58a ->  59a  :     0.933723 (c=  0.96629360)

STATE  2:  E=   0.145359 au      3.955 eV    31902.6 cm**-1 <S**2> =   0.000000
    57a ->  59a  :     0.924113 (c=  0.96130820)
    58a ->  60a  :     0.019362 (c= -0.13914596)
    58a ->  62a  :     0.020371 (c=  0.14272749)

STATE  3:  E=   0.160211 au      4.360 eV    35162.3 cm**-1 <S**2> =   0.000000
    56a ->  59a  :     0.490783 (c= -0.70055897)
    57a ->  60a  :     0.013201 (c= -0.11489712)
    58a ->  60a  :     0.419987 (c= -0.64806404)
    58a ->  61a  :     0.029401 (c=  0.17146583)
    58a ->  62a  :     0.015068 (c= -0.12275170)

STATE  4:  E=   0.167786 au      4.566 eV    36824.9 cm**-1 <S**2> =   0.000000
    54a ->  59a  :     0.137671 (c= -0.37104031)
    55a ->  59a  :     0.110864 (c=  0.33296281)
    56a ->  59a  :     0.266036 (c= -0.51578717)
    57a ->  60a  :     0.024641 (c= -0.15697370)
    58a ->  60a  :     0.354295 (c=  0.59522721)
    58a ->  61a  :     0.010520 (c=  0.10256939)
    58a ->  63a  :     0.040324 (c= -0.20080875)

STATE  5:  E=   0.170415 au      4.637 eV    37401.8 cm**-1 <S**2> =   0.000000
    53a ->  59a  :     0.028860 (c= -0.16988154)
    56a ->  59a  :     0.032572 (c=  0.18047739)
    57a ->  62a  :     0.031980 (c=  0.17882984)
    58a ->  61a  :     0.819537 (c=  0.90528280)
    58a ->  62a  :     0.023680 (c= -0.15388372)
    58a ->  63a  :     0.015567 (c=  0.12476649)

STATE  6:  E=   0.171013 au      4.653 eV    37532.9 cm**-1 <S**2> =   0.000000
    54a ->  59a  :     0.452161 (c=  0.67242948)
    55a ->  59a  :     0.248861 (c= -0.49885925)
    56a ->  59a  :     0.077305 (c= -0.27803741)
    57a ->  60a  :     0.014784 (c= -0.12158820)
    58a ->  60a  :     0.096115 (c=  0.31002497)
    58a ->  62a  :     0.019309 (c=  0.13895603)
    58a ->  63a  :     0.049850 (c= -0.22327104)
    58a ->  66a  :     0.010863 (c=  0.10422736)

STATE  7:  E=   0.174651 au      4.752 eV    38331.4 cm**-1 <S**2> =   0.000000
    54a ->  59a  :     0.206767 (c=  0.45471681)
    55a ->  59a  :     0.160754 (c=  0.40094139)
    57a ->  59a  :     0.010119 (c=  0.10059349)
    57a ->  61a  :     0.023133 (c=  0.15209568)
    58a ->  61a  :     0.045766 (c= -0.21392950)
    58a ->  62a  :     0.517832 (c= -0.71960559)

STATE  8:  E=   0.185152 au      5.038 eV    40636.2 cm**-1 <S**2> =   0.000000
    54a ->  59a  :     0.068746 (c=  0.26219416)
    55a ->  59a  :     0.268636 (c=  0.51830151)
    56a ->  59a  :     0.021207 (c=  0.14562786)
    57a ->  60a  :     0.047276 (c= -0.21743116)
    57a ->  61a  :     0.042113 (c= -0.20521415)
    57a ->  62a  :     0.013548 (c= -0.11639567)
    58a ->  60a  :     0.041714 (c= -0.20424105)
    58a ->  62a  :     0.100833 (c=  0.31754277)
    58a ->  63a  :     0.215469 (c= -0.46418663)
    58a ->  65a  :     0.064080 (c= -0.25314057)
    58a ->  66a  :     0.026318 (c=  0.16222753)

STATE  9:  E=   0.187063 au      5.090 eV    41055.5 cm**-1 <S**2> =   0.000000
    53a ->  59a  :     0.088286 (c=  0.29712986)
    54a ->  59a  :     0.042857 (c= -0.20701878)
    55a ->  59a  :     0.042973 (c= -0.20729994)
    56a ->  59a  :     0.023989 (c=  0.15488520)
    57a ->  61a  :     0.035533 (c=  0.18850139)
    57a ->  62a  :     0.019997 (c=  0.14140935)
    58a ->  60a  :     0.020080 (c= -0.14170328)
    58a ->  62a  :     0.061235 (c= -0.24745672)
    58a ->  63a  :     0.417857 (c= -0.64641873)
    58a ->  64a  :     0.070395 (c= -0.26532113)
    58a ->  65a  :     0.083255 (c=  0.28853969)
    58a ->  66a  :     0.031493 (c=  0.17746271)
    58a ->  67a  :     0.013110 (c= -0.11449998)

STATE 10:  E=   0.191053 au      5.199 eV    41931.3 cm**-1 <S**2> =   0.000000
    53a ->  59a  :     0.112542 (c= -0.33547232)
    56a ->  59a  :     0.020040 (c= -0.14156424)
    56a ->  65a  :     0.010224 (c=  0.10111325)
    57a ->  60a  :     0.472794 (c=  0.68759997)
    57a ->  61a  :     0.043321 (c= -0.20813772)
    57a ->  63a  :     0.046237 (c= -0.21502850)
    58a ->  63a  :     0.014160 (c= -0.11899649)
    58a ->  64a  :     0.102711 (c= -0.32048606)
    58a ->  65a  :     0.107766 (c= -0.32827687)
    58a ->  66a  :     0.019389 (c=  0.13924363)


-----------------------------
TD-DFT/TDA-EXCITATION SPECTRA
-----------------------------

Center of mass = (  0.2802,  0.0009, -0.0080)
Calculating the Dipole integrals                  ... done
Transforming integrals                            ... done
Calculating the Linear Momentum integrals         ... done
Transforming integrals                            ... done
Calculating angular momentum integrals            ... done
Transforming integrals                            ... done

-----------------------------------------------------------------------------
         ABSORPTION SPECTRUM VIA TRANSITION ELECTRIC DIPOLE MOMENTS
-----------------------------------------------------------------------------
State   Energy    Wavelength  fosc         T2        TX        TY        TZ  
        (cm-1)      (nm)                 (au**2)    (au)      (au)      (au) 
-----------------------------------------------------------------------------
   1   29181.1    342.7   0.478687644   5.40041   2.23857  -0.25757   0.56822
   2   31902.6    313.5   0.307893686   3.17724   1.66646   0.38009  -0.50564
   3   35162.3    284.4   0.017187220   0.16092  -0.27974  -0.25868   0.12549
   4   36824.9    271.6   0.053774598   0.48074   0.63202  -0.27249  -0.08390
   5   37401.8    267.4   0.019909374   0.17524   0.25369   0.25877  -0.20958
   6   37532.9    266.4   0.005196839   0.04558   0.13527   0.04407   0.15919
   7   38331.4    260.9   0.114142440   0.98032   0.97228   0.15156  -0.10968
   8   40636.2    246.1   0.042596940   0.34510  -0.52662  -0.03728   0.25764
   9   41055.5    243.6   0.044039111   0.35314   0.30225   0.30060  -0.41403
  10   41931.3    238.5   0.024396844   0.19154  -0.36931  -0.23194   0.03685

-----------------------------------------------------------------------------
         ABSORPTION SPECTRUM VIA TRANSITION VELOCITY DIPOLE MOMENTS
-----------------------------------------------------------------------------
State   Energy    Wavelength   fosc        P2         PX        PY        PZ  
        (cm-1)      (nm)                 (au**2)     (au)      (au)      (au) 
-----------------------------------------------------------------------------
   1   29181.1    342.7   0.109960132   0.02193  -0.12471  -0.04723   0.06440
   2   31902.6    313.5   0.108168395   0.02358  -0.15270   0.00350  -0.01596
   3   35162.3    284.4   0.004002406   0.00096   0.03091  -0.00155   0.00197
   4   36824.9    271.6   0.014976637   0.00377  -0.06049  -0.01029   0.00223
   5   37401.8    267.4   0.005152757   0.00132  -0.02973   0.00963  -0.01845
   6   37532.9    266.4   0.000492225   0.00013  -0.01111   0.00136   0.00097
   7   38331.4    260.9   0.042412277   0.01111  -0.10339  -0.01492   0.01411
   8   40636.2    246.1   0.011328711   0.00315   0.05030   0.01945  -0.01544
   9   41055.5    243.6   0.006466826   0.00181  -0.03324   0.00962   0.02484
  10   41931.3    238.5   0.007657337   0.00219   0.04629   0.00720  -0.00040

-------------------------------------------------------------------
                             CD SPECTRUM
-------------------------------------------------------------------
State  Energy     Wavelength     R         MX        MY        MZ   
       (cm-1)       (nm)     (1e40*cgs)   (au)      (au)      (au)  
-------------------------------------------------------------------
   1   29181.1    342.7     37.79455   0.03621   0.15874   0.07037
   2   31902.6    313.5     42.72244   0.05251   0.01740   0.00692
   3   35162.3    284.4      0.94223   0.03588  -0.06691  -0.04202
   4   36824.9    271.6     43.65921   0.24502   0.18085   0.15460
   5   37401.8    267.4      5.16560  -0.03816   0.12528   0.05621
   6   37532.9    266.4    -11.44899  -0.34495   0.10366   0.11186
   7   38331.4    260.9    -34.71332  -0.06810  -0.09068  -0.05764
   8   40636.2    246.1    -42.62429   0.07734  -0.15984  -0.21596
   9   41055.5    243.6     37.27239   0.18162  -0.09941  -0.13054
  10   41931.3    238.5    -35.38926   0.04391   0.27995   0.16512

-------------------------------------------------------------------
         CD SPECTRUM VIA TRANSITION VELOCITY DIPOLE MOMENTS        
-------------------------------------------------------------------
State  Energy     Wavelength     R         MX        MY        MZ   
       (cm-1)       (nm)     (1e40*cgs)   (au)      (au)      (au)  
-------------------------------------------------------------------
   1   29181.1    342.7    -26.52997   0.03621   0.15874   0.07037
   2   31902.6    313.5    -26.16631   0.05251   0.01740   0.00692
   3   35162.3    284.4      3.32476   0.03588  -0.06691  -0.04202
   4   36824.9    271.6    -45.90350   0.24502   0.18085   0.15460
   5   37401.8    267.4      3.61012  -0.03816   0.12528   0.05621
   6   37532.9    266.4     11.25499  -0.34495   0.10366   0.11186
   7   38331.4    260.9     20.46195  -0.06810  -0.09068  -0.05764
   8   40636.2    246.1     10.47935   0.07734  -0.15984  -0.21596
   9   41055.5    243.6    -25.79846   0.18162  -0.09941  -0.13054
  10   41931.3    238.5      9.82416   0.04391   0.27995   0.16512

Total run time:      390.798 sec

           *** ORCA-CIS/TD-DFT FINISHED WITHOUT ERROR ***

Maximum memory used throughout the entire CIS-calculation: 904.8 MB

-----------------------
CIS/TD-DFT TOTAL ENERGY
-----------------------

    E(SCF)  =  -1239.976254201 Eh
    DE(CIS) =      0.132958657 Eh (Root  1)
    ----------------------------- ---------
    E(tot)  =  -1239.843295544 Eh


-------------------------   --------------------
FINAL SINGLE POINT ENERGY     -1239.843295544079
-------------------------   --------------------


                            ***************************************
                            *     ORCA property calculations      *
                            ***************************************

                                    ---------------------
                                    Active property flags
                                    ---------------------
   (+) Dipole Moment


------------------------------------------------------------------------------
                       ORCA ELECTRIC PROPERTIES CALCULATION
------------------------------------------------------------------------------

Dipole Moment Calculation                       ... on
Quadrupole Moment Calculation                   ... off
Polarizability Calculation                      ... off
GBWName                                         ... x3lyp-train-4_job2.gbw
Electron density                                ... x3lyp-train-4_job2.scfp
The origin for moment calculation is the CENTER OF MASS  = ( 0.280198,  0.000858 -0.007951)

-------------
DIPOLE MOMENT
-------------
                                X             Y             Z
Electronic contribution:      2.96929      -0.46625       0.75771
Nuclear contribution   :     -2.90579       0.75055      -1.17890
                        -----------------------------------------
Total Dipole Moment    :      0.06350       0.28430      -0.42118
                        -----------------------------------------
Magnitude (a.u.)       :      0.51211
Magnitude (Debye)      :      1.30168



--------------------
Rotational spectrum 
--------------------
 
Rotational constants in cm-1:     0.054050     0.008889     0.007752 
Rotational constants in MHz :  1620.363848   266.478207   232.388674 

 Dipole components along the rotational axes: 
x,y,z [a.u.] :    -0.132868    -0.489548    -0.070318 
x,y,z [Debye]:    -0.337725    -1.244332    -0.178735 

 

Timings for individual modules:

Sum of individual times         ...      564.926 sec (=   9.415 min)
GTO integral calculation        ...        3.391 sec (=   0.057 min)   0.6 %
SCF iterations                  ...      169.828 sec (=   2.830 min)  30.1 %
CIS module                      ...      391.707 sec (=   6.528 min)  69.3 %



                             ****ORCA TERMINATED NORMALLY****
TOTAL RUN TIME: 0 days 2 hours 32 minutes 59 seconds 276 msec
