
                                 *****************
                                 * O   R   C   A *
                                 *****************

                                            #,                                       
                                            ###                                      
                                            ####                                     
                                            #####                                    
                                            ######                                   
                                           ########,                                 
                                     ,,################,,,,,                         
                               ,,#################################,,                 
                          ,,##########################################,,             
                       ,#########################################, ''#####,          
                    ,#############################################,,   '####,        
                  ,##################################################,,,,####,       
                ,###########''''           ''''###############################       
              ,#####''   ,,,,##########,,,,          '''####'''          '####       
            ,##' ,,,,###########################,,,                        '##       
           ' ,,###''''                  '''############,,,                           
         ,,##''                                '''############,,,,        ,,,,,,###''
      ,#''                                            '''#######################'''  
     '                                                          ''''####''''         
             ,#######,   #######,   ,#######,      ##                                
            ,#'     '#,  ##    ##  ,#'     '#,    #''#        ######   ,####,        
            ##       ##  ##   ,#'  ##            #'  '#       #        #'  '#        
            ##       ##  #######   ##           ,######,      #####,   #    #        
            '#,     ,#'  ##    ##  '#,     ,#' ,#      #,         ##   #,  ,#        
             '#######'   ##     ##  '#######'  #'      '#     #####' # '####'        



                  #######################################################
                  #                        -***-                        #
                  #          Department of theory and spectroscopy      #
                  #    Directorship and core code : Frank Neese         #
                  #        Max Planck Institute fuer Kohlenforschung    #
                  #                Kaiser Wilhelm Platz 1               #
                  #                 D-45470 Muelheim/Ruhr               #
                  #                      Germany                        #
                  #                                                     #
                  #                  All rights reserved                #
                  #                        -***-                        #
                  #######################################################


                         Program Version 5.0.2 -  RELEASE  -


 With contributions from (in alphabetic order):
   Daniel Aravena         : Magnetic Suceptibility
   Michael Atanasov       : Ab Initio Ligand Field Theory (pilot matlab implementation)
   Alexander A. Auer      : GIAO ZORA, VPT2 properties, NMR spectrum
   Ute Becker             : Parallelization
   Giovanni Bistoni       : ED, misc. LED, open-shell LED, HFLD
   Martin Brehm           : Molecular dynamics
   Dmytro Bykov           : SCF Hessian
   Vijay G. Chilkuri      : MRCI spin determinant printing, contributions to CSF-ICE
   Dipayan Datta          : RHF DLPNO-CCSD density
   Achintya Kumar Dutta   : EOM-CC, STEOM-CC
   Dmitry Ganyushin       : Spin-Orbit,Spin-Spin,Magnetic field MRCI
   Miquel Garcia          : C-PCM and meta-GGA Hessian, CC/C-PCM, Gaussian charge scheme
   Yang Guo               : DLPNO-NEVPT2, F12-NEVPT2, CIM, IAO-localization
   Andreas Hansen         : Spin unrestricted coupled pair/coupled cluster methods
   Benjamin Helmich-Paris : MC-RPA, TRAH-SCF, COSX integrals
   Lee Huntington         : MR-EOM, pCC
   Robert Izsak           : Overlap fitted RIJCOSX, COSX-SCS-MP3, EOM
   Marcus Kettner         : VPT2
   Christian Kollmar      : KDIIS, OOCD, Brueckner-CCSD(T), CCSD density, CASPT2, CASPT2-K
   Simone Kossmann        : Meta GGA functionals, TD-DFT gradient, OOMP2, MP2 Hessian
   Martin Krupicka        : Initial AUTO-CI
   Lucas Lang             : DCDCAS
   Marvin Lechner         : AUTO-CI (C++ implementation), FIC-MRCC
   Dagmar Lenk            : GEPOL surface, SMD
   Dimitrios Liakos       : Extrapolation schemes; Compound Job, initial MDCI parallelization
   Dimitrios Manganas     : Further ROCIS development; embedding schemes
   Dimitrios Pantazis     : SARC Basis sets
   Anastasios Papadopoulos: AUTO-CI, single reference methods and gradients
   Taras Petrenko         : DFT Hessian,TD-DFT gradient, ASA, ECA, R-Raman, ABS, FL, XAS/XES, NRVS
   Peter Pinski           : DLPNO-MP2, DLPNO-MP2 Gradient
   Christoph Reimann      : Effective Core Potentials
   Marius Retegan         : Local ZFS, SOC
   Christoph Riplinger    : Optimizer, TS searches, QM/MM, DLPNO-CCSD(T), (RO)-DLPNO pert. Triples
   Tobias Risthaus        : Range-separated hybrids, TD-DFT gradient, RPA, STAB
   Michael Roemelt        : Original ROCIS implementation
   Masaaki Saitow         : Open-shell DLPNO-CCSD energy and density
   Barbara Sandhoefer     : DKH picture change effects
   Avijit Sen             : IP-ROCIS
   Kantharuban Sivalingam : CASSCF convergence, NEVPT2, FIC-MRCI
   Bernardo de Souza      : ESD, SOC TD-DFT
   Georgi Stoychev        : AutoAux, RI-MP2 NMR, DLPNO-MP2 response
   Willem Van den Heuvel  : Paramagnetic NMR
   Boris Wezisla          : Elementary symmetry handling
   Frank Wennmohs         : Technical directorship


 We gratefully acknowledge several colleagues who have allowed us to
 interface, adapt or use parts of their codes:
   Stefan Grimme, W. Hujo, H. Kruse, P. Pracht,  : VdW corrections, initial TS optimization,
                  C. Bannwarth, S. Ehlert          DFT functionals, gCP, sTDA/sTD-DF
   Ed Valeev, F. Pavosevic, A. Kumar             : LibInt (2-el integral package), F12 methods
   Garnet Chan, S. Sharma, J. Yang, R. Olivares  : DMRG
   Ulf Ekstrom                                   : XCFun DFT Library
   Mihaly Kallay                                 : mrcc  (arbitrary order and MRCC methods)
   Jiri Pittner, Ondrej Demel                    : Mk-CCSD
   Frank Weinhold                                : gennbo (NPA and NBO analysis)
   Christopher J. Cramer and Donald G. Truhlar   : smd solvation model
   Lars Goerigk                                  : TD-DFT with DH, B97 family of functionals
   V. Asgeirsson, H. Jonsson                     : NEB implementation
   FAccTs GmbH                                   : IRC, NEB, NEB-TS, DLPNO-Multilevel, CI-OPT
                                                   MM, QMMM, 2- and 3-layer-ONIOM, Crystal-QMMM,
                                                   LR-CPCM, SF, NACMEs, symmetry and pop. for TD-DFT,
                                                   nearIR, NL-DFT gradient (VV10), updates on ESD,
                                                   ML-optimized integration grids
   S Lehtola, MJT Oliveira, MAL Marques          : LibXC Library
   Liviu Ungur et al                             : ANISO software


 Your calculation uses the libint2 library for the computation of 2-el integrals
 For citations please refer to: http://libint.valeyev.net

 Your ORCA version has been built with support for libXC version: 5.1.0
 For citations please refer to: https://tddft.org/programs/libxc/

 This ORCA versions uses:
   CBLAS   interface :  Fast vector & matrix operations
   LAPACKE interface :  Fast linear algebra routines
   SCALAPACK package :  Parallel linear algebra routines
   Shared memory     :  Shared parallel matrices
   BLAS/LAPACK       :  OpenBLAS 0.3.15  USE64BITINT DYNAMIC_ARCH NO_AFFINITY Haswell SINGLE_THREADED
        Core in use  :  Haswell
   Copyright (c) 2011-2014, The OpenBLAS Project


Your calculation utilizes the atom-pairwise dispersion correction
with the Becke-Johnson damping scheme (D3BJ)
Cite in your paper:
S.Grimme, S.Ehrlich, L.Goerigk, J Comput Chem, (2011), 32, 1456–1465 
S.Grimme, J.Antony, S.Ehrlich and H.Krieg, J.Chem.Phys., 132, (2010), 154104 
   

Your calculation utilizes the SMD solvation module
Please cite in your paper:
A.V. Marenich, C.J. Cramer, D.G. Truhlar J. Phys. Chem. B, 113, (2009), 6378 

================================================================================

----- Orbital basis set information -----
Your calculation utilizes the basis: aug-cc-pVTZ 
    H, B-Ne : Obtained from the ccRepo (grant-hill.group.shef.ac.uk/ccrepo) Feb. 2017
              R. A. Kendall, T. H. Dunning, Jr., R. J. Harrison, J. Chem. Phys. 96, 6796 (1992)
         He : Obtained from the ccRepo (grant-hill.group.shef.ac.uk/ccrepo) Feb. 2017
              D. E. Woon, T. H. Dunning, Jr., J. Chem. Phys. 100, 2975 (1994)
  Li-Be, Na : Obtained from the ccRepo (grant-hill.group.shef.ac.uk/ccrepo) Feb. 2017
              B. P. Prascher, D. E. Woon, K. A. Peterson, T. H. Dunning, Jr., A. K. Wilson, Theor. Chem. Acc. 128, 69 (2011)
         Mg : Obtained from the Peterson Research Group Website (tyr0.chem.wsu.edu/~kipeters) Feb. 2017
              B. P. Prascher, D. E. Woon, K. A. Peterson, T. H. Dunning, Jr., A. K. Wilson, Theor. Chem. Acc. 128, 69 (2011)
      Al-Ar : Obtained from the ccRepo (grant-hill.group.shef.ac.uk/ccrepo) Feb. 2017
              D. E. Woon, T. H. Dunning, Jr., J. Chem. Phys. 98, 1358 (1993)
      Sc-Zn : Obtained from the ccRepo (grant-hill.group.shef.ac.uk/ccrepo) Feb. 2017
              N. B. Balabanov, K. A. Peterson, J. Chem. Phys. 123, 064107 (2005)
              N. B. Balabanov, K. A. Peterson, J. Chem. Phys. 125, 074110 (2006)
      Ga-Kr : Obtained from the ccRepo (grant-hill.group.shef.ac.uk/ccrepo) Feb. 2017
              A. K. Wilson, D. E. Woon, K. A. Peterson, T. H. Dunning, Jr., J. Chem. Phys. 110, 7667 (1999)
     Ag, Au : Obtained from the Peterson Research Group Website (tyr0.chem.wsu.edu/~kipeters) Feb. 2017
              K. A. Peterson, C. Puzzarini, Theor. Chem. Acc. 114, 283 (2005)

The basis set includes element-specific modifications.

Your calculation utilizes the basis: cc-pVTZ 
       H, B-Ne : Obtained from the ccRepo (grant-hill.group.shef.ac.uk/ccrepo) Feb. 2017
                 T. H. Dunning, Jr., J. Chem. Phys. 90, 1007 (1989)
            He : Obtained from the ccRepo (grant-hill.group.shef.ac.uk/ccrepo) Feb. 2017
                 D. E. Woon, T. H. Dunning, Jr., J. Chem. Phys. 100, 2975 (1994)
  Li-Be, Na-Mg : Obtained from the ccRepo (grant-hill.group.shef.ac.uk/ccrepo) Feb. 2017
                 B. P. Prascher, D. E. Woon, K. A. Peterson, T. H. Dunning, Jr., A. K. Wilson, Theor. Chem. Acc. 128, 69 (2011)
         Al-Ar : Obtained from the ccRepo (grant-hill.group.shef.ac.uk/ccrepo) Feb. 2017
                 D. E. Woon, T. H. Dunning, Jr., J. Chem. Phys. 98, 1358 (1993)
            Ca : Obtained from the Peterson Research Group Website (tyr0.chem.wsu.edu/~kipeters) Feb. 2017
                 J. Koput, K. A. Peterson, J. Phys. Chem. 106, 9595 (2002)
         Sc-Zn : Obtained from the ccRepo (grant-hill.group.shef.ac.uk/ccrepo) Feb. 2017
                 N. B. Balabanov, K. A. Peterson, J. Chem. Phys. 123, 064107 (2005)
                 N. B. Balabanov, K. A. Peterson, J. Chem. Phys. 125, 074110 (2006)
         Ga-Kr : Obtained from the ccRepo (grant-hill.group.shef.ac.uk/ccrepo) Feb. 2017
                 A. K. Wilson, D. E. Woon, K. A. Peterson, T. H. Dunning, Jr., J. Chem. Phys. 110, 7667 (1999)
             Y : Obtained from the ccRepo (grant-hill.group.shef.ac.uk/ccrepo) Feb. 2017
                 K. A. Peterson, D. Figgen, M. Dolg, H. Stoll, J. Chem. Phys. 126, 124101 (2007)
        Ag, Au : Obtained from the Peterson Research Group Website (tyr0.chem.wsu.edu/~kipeters) Feb. 2017
                 K. A. Peterson, C. Puzzarini, Theor. Chem. Acc. 114, 283 (2005)

----- AuxJ basis set information -----
Your calculation utilizes the auxiliary basis: aug-cc-pVTZ/JK 
  H, B-F, Al-Cl, Ga-Br : Obtained from the TURBOMOLE 7.0 basis set library

The basis set includes element-specific modifications.

Your calculation utilizes the auxiliary basis: cc-pVTZ/JK 
  H, B-F, Al-Cl, Ga-Br : Obtained from the TURBOMOLE 7.0 basis set library

----- AuxC basis set information -----
Your calculation utilizes the auxiliary basis: aug-cc-pVTZ/C 
  H-He, B-F, Al-Ar, Ga-Kr : Obtained from the EMSL Basis Set Exchange (bse.pnl.gov) Feb. 2017
                            F. Weigend, A. Kohn, C. Hattig, J. Chem. Phys. 116, 3175 (2002)
                   Be, Mg : Obtained from the TURBOMOLE 7.0 basis set library
                            C. Haettig, Phys. Chem. Chem. Phys. 7, 59 (2005)
                       Ne : Obtained from the EMSL Basis Set Exchange (bse.pnl.gov) Feb. 2017
                            C. Haettig, Phys. Chem. Chem. Phys. 7, 59 (2005)
                            F. Weigend, A. Kohn, C. Hattig, J. Chem. Phys. 116, 3175 (2002)
                    Sc-Zn : Obtained from the EMSL Basis Set Exchange (bse.pnl.gov) Feb. 2017
                            J. G. Hill, J. A. Platts, J. Chem. Phys. 128, 044104 (2008)

The basis set includes element-specific modifications.

Your calculation utilizes the auxiliary basis: cc-pVTZ/C 
  Obtained from the EMSL Basis Set Exchange (bse.pnl.gov) Feb. 2017
  H-He, B-F, Al-Ar, Ga-Kr : F. Weigend, A. Kohn, C. Hattig, J. Chem. Phys. 116, 3175 (2002)
             Li-Be, Na-Mg : C. Haettig, Phys. Chem. Chem. Phys. 7, 59 (2005)
                       Ne : C. Haettig, Phys. Chem. Chem. Phys. 7, 59 (2005)
                            F. Weigend, A. Kohn, C. Hattig, J. Chem. Phys. 116, 3175 (2002)
                    Sc-Zn : J. G. Hill, J. A. Platts, J. Chem. Phys. 128, 044104 (2008)

================================================================================
                                        WARNINGS
                       Please study these warnings very carefully!
================================================================================


WARNING: Geometry Optimization
  ===> : Switching off AutoStart
         For restart on a previous wavefunction, please use MOREAD

INFO   : the flag for use of the SHARK integral package has been found!



***************************************
The coordinates will be read from file: 
***************************************


Your calculation utilizes the atom-pairwise dispersion correction
with the Becke-Johnson damping scheme (D3BJ)
Cite in your paper:
S.Grimme, S.Ehrlich, L.Goerigk, J Comput Chem, (2011), 32, 1456–1465 
S.Grimme, J.Antony, S.Ehrlich and H.Krieg, J.Chem.Phys., 132, (2010), 154104 
   

Your calculation utilizes the SMD solvation module
Please cite in your paper:
A.V. Marenich, C.J. Cramer, D.G. Truhlar J. Phys. Chem. B, 113, (2009), 6378 

================================================================================

----- Orbital basis set information -----
Your calculation utilizes the basis: aug-cc-pVTZ 
    H, B-Ne : Obtained from the ccRepo (grant-hill.group.shef.ac.uk/ccrepo) Feb. 2017
              R. A. Kendall, T. H. Dunning, Jr., R. J. Harrison, J. Chem. Phys. 96, 6796 (1992)
         He : Obtained from the ccRepo (grant-hill.group.shef.ac.uk/ccrepo) Feb. 2017
              D. E. Woon, T. H. Dunning, Jr., J. Chem. Phys. 100, 2975 (1994)
  Li-Be, Na : Obtained from the ccRepo (grant-hill.group.shef.ac.uk/ccrepo) Feb. 2017
              B. P. Prascher, D. E. Woon, K. A. Peterson, T. H. Dunning, Jr., A. K. Wilson, Theor. Chem. Acc. 128, 69 (2011)
         Mg : Obtained from the Peterson Research Group Website (tyr0.chem.wsu.edu/~kipeters) Feb. 2017
              B. P. Prascher, D. E. Woon, K. A. Peterson, T. H. Dunning, Jr., A. K. Wilson, Theor. Chem. Acc. 128, 69 (2011)
      Al-Ar : Obtained from the ccRepo (grant-hill.group.shef.ac.uk/ccrepo) Feb. 2017
              D. E. Woon, T. H. Dunning, Jr., J. Chem. Phys. 98, 1358 (1993)
      Sc-Zn : Obtained from the ccRepo (grant-hill.group.shef.ac.uk/ccrepo) Feb. 2017
              N. B. Balabanov, K. A. Peterson, J. Chem. Phys. 123, 064107 (2005)
              N. B. Balabanov, K. A. Peterson, J. Chem. Phys. 125, 074110 (2006)
      Ga-Kr : Obtained from the ccRepo (grant-hill.group.shef.ac.uk/ccrepo) Feb. 2017
              A. K. Wilson, D. E. Woon, K. A. Peterson, T. H. Dunning, Jr., J. Chem. Phys. 110, 7667 (1999)
     Ag, Au : Obtained from the Peterson Research Group Website (tyr0.chem.wsu.edu/~kipeters) Feb. 2017
              K. A. Peterson, C. Puzzarini, Theor. Chem. Acc. 114, 283 (2005)

The basis set includes element-specific modifications.

Your calculation utilizes the basis: cc-pVTZ 
       H, B-Ne : Obtained from the ccRepo (grant-hill.group.shef.ac.uk/ccrepo) Feb. 2017
                 T. H. Dunning, Jr., J. Chem. Phys. 90, 1007 (1989)
            He : Obtained from the ccRepo (grant-hill.group.shef.ac.uk/ccrepo) Feb. 2017
                 D. E. Woon, T. H. Dunning, Jr., J. Chem. Phys. 100, 2975 (1994)
  Li-Be, Na-Mg : Obtained from the ccRepo (grant-hill.group.shef.ac.uk/ccrepo) Feb. 2017
                 B. P. Prascher, D. E. Woon, K. A. Peterson, T. H. Dunning, Jr., A. K. Wilson, Theor. Chem. Acc. 128, 69 (2011)
         Al-Ar : Obtained from the ccRepo (grant-hill.group.shef.ac.uk/ccrepo) Feb. 2017
                 D. E. Woon, T. H. Dunning, Jr., J. Chem. Phys. 98, 1358 (1993)
            Ca : Obtained from the Peterson Research Group Website (tyr0.chem.wsu.edu/~kipeters) Feb. 2017
                 J. Koput, K. A. Peterson, J. Phys. Chem. 106, 9595 (2002)
         Sc-Zn : Obtained from the ccRepo (grant-hill.group.shef.ac.uk/ccrepo) Feb. 2017
                 N. B. Balabanov, K. A. Peterson, J. Chem. Phys. 123, 064107 (2005)
                 N. B. Balabanov, K. A. Peterson, J. Chem. Phys. 125, 074110 (2006)
         Ga-Kr : Obtained from the ccRepo (grant-hill.group.shef.ac.uk/ccrepo) Feb. 2017
                 A. K. Wilson, D. E. Woon, K. A. Peterson, T. H. Dunning, Jr., J. Chem. Phys. 110, 7667 (1999)
             Y : Obtained from the ccRepo (grant-hill.group.shef.ac.uk/ccrepo) Feb. 2017
                 K. A. Peterson, D. Figgen, M. Dolg, H. Stoll, J. Chem. Phys. 126, 124101 (2007)
        Ag, Au : Obtained from the Peterson Research Group Website (tyr0.chem.wsu.edu/~kipeters) Feb. 2017
                 K. A. Peterson, C. Puzzarini, Theor. Chem. Acc. 114, 283 (2005)

----- AuxJ basis set information -----
Your calculation utilizes the auxiliary basis: aug-cc-pVTZ/JK 
  H, B-F, Al-Cl, Ga-Br : Obtained from the TURBOMOLE 7.0 basis set library

The basis set includes element-specific modifications.

Your calculation utilizes the auxiliary basis: cc-pVTZ/JK 
  H, B-F, Al-Cl, Ga-Br : Obtained from the TURBOMOLE 7.0 basis set library

----- AuxC basis set information -----
Your calculation utilizes the auxiliary basis: aug-cc-pVTZ/C 
  H-He, B-F, Al-Ar, Ga-Kr : Obtained from the EMSL Basis Set Exchange (bse.pnl.gov) Feb. 2017
                            F. Weigend, A. Kohn, C. Hattig, J. Chem. Phys. 116, 3175 (2002)
                   Be, Mg : Obtained from the TURBOMOLE 7.0 basis set library
                            C. Haettig, Phys. Chem. Chem. Phys. 7, 59 (2005)
                       Ne : Obtained from the EMSL Basis Set Exchange (bse.pnl.gov) Feb. 2017
                            C. Haettig, Phys. Chem. Chem. Phys. 7, 59 (2005)
                            F. Weigend, A. Kohn, C. Hattig, J. Chem. Phys. 116, 3175 (2002)
                    Sc-Zn : Obtained from the EMSL Basis Set Exchange (bse.pnl.gov) Feb. 2017
                            J. G. Hill, J. A. Platts, J. Chem. Phys. 128, 044104 (2008)

The basis set includes element-specific modifications.

Your calculation utilizes the auxiliary basis: cc-pVTZ/C 
  Obtained from the EMSL Basis Set Exchange (bse.pnl.gov) Feb. 2017
  H-He, B-F, Al-Ar, Ga-Kr : F. Weigend, A. Kohn, C. Hattig, J. Chem. Phys. 116, 3175 (2002)
             Li-Be, Na-Mg : C. Haettig, Phys. Chem. Chem. Phys. 7, 59 (2005)
                       Ne : C. Haettig, Phys. Chem. Chem. Phys. 7, 59 (2005)
                            F. Weigend, A. Kohn, C. Hattig, J. Chem. Phys. 116, 3175 (2002)
                    Sc-Zn : J. G. Hill, J. A. Platts, J. Chem. Phys. 128, 044104 (2008)

================================================================================
                                        WARNINGS
                       Please study these warnings very carefully!
================================================================================

INFO   : Checking CIS options ...
  ===> : (D) CORRECTION FOUND - SETTING MODE=3
  ===> : JK MODE FOUND - ACTIVATING RI-MP2 CODE
  ===> : MP2 AND CIS FOUND - CHECKING
WARNING: CIS(D) and MP2 runs must have the same orbital window
  ===> : adjusting orbital windows

WARNING: No MP2 level density has been requested!
         To caclulate MP2 level properties use
         %mp2 Density relaxed end
         or
         %mp2 Density unrelaxed end
         Otherwise for double-hybrid DFT only the energy is correct!

WARNING: The frozen-core approximation is turned on by default for 
         the MP2 part of double-hybrid DFT.

INFO   : the flag for use of the SHARK integral package has been found!

================================================================================
                                       INPUT FILE
================================================================================
NAME = optpbed3-b2plyp-train-16.inp
|  1> ! pbe0 d3bj aug-cc-PVTZ RIJCOSX Opt
|  2> %maxcore 4000
|  3> %basis
|  4>  AuxJ "aug-cc-PVTZ/JK"
|  5>  AuxC "aug-cc-PVTZ/C"
|  6>  newGTO H "cc-PVTZ" end
|  7>  newAuxJGTO H "cc-PVTZ/JK" end
|  8>  newAuxCGTO H "cc-PVTZ/C" end
|  9> end
| 10> %cpcm
| 11>  SMD true
| 12>  SMDsolvent "dichloromethane"
| 13> end
| 14> %pal nprocs 4 end
| 15> * xyz 0 1
| 16> C         -2.42590        2.44530        1.32870
| 17> C         -1.53060        1.40970        0.75600
| 18> N         -0.22420        1.39910        0.85070
| 19> C          0.23760        0.30770        0.18880
| 20> C          1.66070        0.03280        0.11160
| 21> C          2.22290       -0.69570       -0.93590
| 22> C          3.58340       -0.93750       -0.96820
| 23> C          4.40530       -0.45170        0.03490
| 24> C          3.85890        0.29320        1.06810
| 25> C          2.50060        0.53550        1.10660
| 26> C         -0.84840       -0.40410       -0.32620
| 27> C         -1.04630       -1.61470       -1.01420
| 28> C         -2.30990       -2.01210       -1.33370
| 29> C         -3.42320       -1.21070       -0.97010
| 30> C         -3.24010       -0.05980       -0.28070
| 31> N         -1.97810        0.33520        0.05040
| 32> H         -3.12110        2.00510        2.04440
| 33> H         -1.81580        3.18530        1.83680
| 34> H         -3.00160        2.93770        0.54440
| 35> H          1.59870       -1.04840       -1.74300
| 36> H          4.00740       -1.50310       -1.78600
| 37> H          5.46780       -0.64500        0.00630
| 38> H          4.49780        0.68450        1.84690
| 39> H          2.06160        1.11650        1.90270
| 40> H         -0.19020       -2.21980       -1.26340
| 41> H         -2.47940       -2.93840       -1.85910
| 42> H         -4.41940       -1.52640       -1.23400
| 43> H         -4.04840        0.57990        0.03740
| 44> *
| 45> 
| 46> 
| 47> $new_job
| 48> ! b2plyp aug-cc-PVTZ RIJCOSX SP
| 49> %maxcore 4000
| 50> %basis
| 51>  AuxJ "aug-cc-PVTZ/JK"
| 52>  AuxC "aug-cc-PVTZ/C"
| 53>  newGTO H "cc-PVTZ" end
| 54>  newAuxJGTO H "cc-PVTZ/JK" end
| 55>  newAuxCGTO H "cc-PVTZ/C" end
| 56> end
| 57> %cpcm
| 58>  SMD true
| 59>  SMDsolvent "dichloromethane"
| 60> end
| 61> %pal nprocs 4 end
| 62> %tddft
| 63>  nroots 10
| 64>  maxdim 7
| 65> end
| 66> * xyzfile 0 1
| 67> 
| 68>                          ****END OF INPUT****
================================================================================


                 $$$$$$$$$$$$$$$$$$$$$$$$$$$$$$$$$$$$$$$$$$$$$$ 
                 $ THERE ARE  2 JOBS TO BE PROCESSED THIS RUN $
                 $$$$$$$$$$$$$$$$$$$$$$$$$$$$$$$$$$$$$$$$$$$$$$ 




                 $$$$$$$$$$$$$$$$  JOB NUMBER  1 $$$$$$$$$$$$$$


                       *****************************
                       * Geometry Optimization Run *
                       *****************************

Geometry optimization settings:
Update method            Update   .... BFGS
Choice of coordinates    CoordSys .... Z-matrix Internals
Initial Hessian          InHess   .... Almoef's Model

Convergence Tolerances:
Energy Change            TolE     ....  5.0000e-06 Eh
Max. Gradient            TolMAXG  ....  3.0000e-04 Eh/bohr
RMS Gradient             TolRMSG  ....  1.0000e-04 Eh/bohr
Max. Displacement        TolMAXD  ....  4.0000e-03 bohr
RMS Displacement         TolRMSD  ....  2.0000e-03 bohr
Strict Convergence                ....  False
------------------------------------------------------------------------------
                        ORCA OPTIMIZATION COORDINATE SETUP
------------------------------------------------------------------------------

The optimization will be done in new redundant internal coordinates
Making redundant internal coordinates   ...  (new redundants) done
Evaluating the initial hessian          ...  (Almloef) done
Evaluating the coordinates              ...  done
Calculating the B-matrix                .... done
Calculating the G-matrix                .... done
Diagonalizing the G-matrix              .... done
Small eigenvalue found = 7.428e-03
Small eigenvalue found = 2.903e-02
The first mode is                       ....   71
The number of degrees of freedom        ....   78

    -----------------------------------------------------------------
                    Redundant Internal Coordinates


    -----------------------------------------------------------------
         Definition                    Initial Value    Approx d2E/dq
    -----------------------------------------------------------------
      1. B(C   1,C   0)                  1.4839         0.442484   
      2. B(N   2,C   1)                  1.3099         0.751133   
      3. B(C   3,N   2)                  1.3574         0.630801   
      4. B(C   4,C   3)                  1.4515         0.498516   
      5. B(C   5,C   4)                  1.3943         0.615033   
      6. B(C   6,C   5)                  1.3822         0.642964   
      7. B(C   7,C   6)                  1.3848         0.636796   
      8. B(C   8,C   7)                  1.3860         0.634100   
      9. B(C   9,C   8)                  1.3803         0.647512   
     10. B(C   9,C   4)                  1.3958         0.611700   
     11. B(C  10,C   3)                  1.3969         0.609198   
     12. B(C  11,C  10)                  1.4064         0.588189   
     13. B(C  12,C  11)                  1.3626         0.690949   
     14. B(C  13,C  12)                  1.4191         0.561422   
     15. B(C  14,C  13)                  1.3540         0.713088   
     16. B(N  15,C  14)                  1.3632         0.617510   
     17. B(N  15,C  10)                  1.4016         0.536159   
     18. B(N  15,C   1)                  1.3611         0.622206   
     19. B(H  16,C   0)                  1.0906         0.359369   
     20. B(H  17,C   0)                  1.0854         0.366302   
     21. B(H  18,C   0)                  1.0904         0.359545   
     22. B(H  19,C   5)                  1.0796         0.374190   
     23. B(H  20,C   6)                  1.0810         0.372259   
     24. B(H  21,C   7)                  1.0803         0.373137   
     25. B(H  22,C   8)                  1.0807         0.372662   
     26. B(H  23,C   9)                  1.0789         0.375067   
     27. B(H  24,C  11)                  1.0776         0.376927   
     28. B(H  25,C  12)                  1.0783         0.375866   
     29. B(H  26,C  13)                  1.0778         0.376560   
     30. B(H  27,C  14)                  1.0788         0.375262   
     31. A(C   1,C   0,H  16)          110.8665         0.333398   
     32. A(H  16,C   0,H  17)          109.0455         0.291528   
     33. A(H  17,C   0,H  18)          109.0028         0.291550   
     34. A(H  16,C   0,H  18)          108.5267         0.290676   
     35. A(C   1,C   0,H  18)          110.8602         0.333425   
     36. A(C   1,C   0,H  17)          108.5025         0.334457   
     37. A(C   0,C   1,N   2)          125.4141         0.420143   
     38. A(C   0,C   1,N  15)          123.5475         0.406326   
     39. A(N   2,C   1,N  15)          111.0382         0.443759   
     40. A(C   1,N   2,C   3)          108.0931         0.444863   
     41. A(C   4,C   3,C  10)          130.2509         0.416143   
     42. A(N   2,C   3,C   4)          120.7824         0.416020   
     43. A(N   2,C   3,C  10)          108.9650         0.431203   
     44. A(C   5,C   4,C   9)          118.7579         0.432389   
     45. A(C   3,C   4,C   5)          122.2933         0.416849   
     46. A(C   3,C   4,C   9)          118.9379         0.416446   
     47. A(C   6,C   5,H  19)          119.6368         0.357412   
     48. A(C   4,C   5,C   6)          120.3876         0.436285   
     49. A(C   4,C   5,H  19)          119.9495         0.354727   
     50. A(C   5,C   6,C   7)          120.3906         0.439029   
     51. A(C   7,C   6,H  20)          119.9182         0.356513   
     52. A(C   5,C   6,H  20)          119.6896         0.357098   
     53. A(C   6,C   7,C   8)          119.6395         0.437931   
     54. A(C   8,C   7,H  21)          120.2407         0.356399   
     55. A(C   6,C   7,H  21)          120.1173         0.356656   
     56. A(C   7,C   8,C   9)          120.2051         0.439252   
     57. A(C   9,C   8,H  22)          119.8764         0.357592   
     58. A(C   7,C   8,H  22)          119.9184         0.356322   
     59. A(C   4,C   9,C   8)          120.6011         0.436412   
     60. A(C   8,C   9,H  23)          121.0325         0.357983   
     61. A(C   4,C   9,H  23)          118.3664         0.354541   
     62. A(C   3,C  10,C  11)          136.7487         0.428623   
     63. A(C   3,C  10,N  15)          104.9976         0.418841   
     64. A(C  11,C  10,N  15)          118.1663         0.416231   
     65. A(C  10,C  11,C  12)          119.7506         0.438442   
     66. A(C  12,C  11,H  24)          121.2485         0.362271   
     67. A(C  10,C  11,H  24)          118.9921         0.352491   
     68. A(C  13,C  12,H  25)          119.1188         0.349562   
     69. A(C  11,C  12,H  25)          120.6997         0.362097   
     70. A(C  11,C  12,C  13)          120.1806         0.434777   
     71. A(C  14,C  13,H  26)          119.9081         0.364168   
     72. A(C  12,C  13,H  26)          119.7982         0.349671   
     73. A(C  12,C  13,C  14)          120.2896         0.437255   
     74. A(N  15,C  14,H  27)          116.7572         0.352951   
     75. A(C  13,C  14,H  27)          123.5624         0.363953   
     76. A(C  13,C  14,N  15)          119.6795         0.441914   
     77. A(C  10,N  15,C  14)          121.8742         0.417132   
     78. A(C   1,N  15,C  14)          131.2250         0.428374   
     79. A(C   1,N  15,C  10)          106.8987         0.417695   
     80. D(N   2,C   1,C   0,H  18)    119.5743         0.014445   
     81. D(N   2,C   1,C   0,H  17)     -0.0936         0.014445   
     82. D(N  15,C   1,C   0,H  18)    -60.2250         0.014445   
     83. D(N   2,C   1,C   0,H  16)   -119.8177         0.014445   
     84. D(N  15,C   1,C   0,H  16)     60.3831         0.014445   
     85. D(N  15,C   1,C   0,H  17)   -179.8928         0.014445   
     86. D(C   3,N   2,C   1,N  15)      0.6115         0.042865   
     87. D(C   3,N   2,C   1,C   0)   -179.2092         0.042865   
     88. D(C  10,C   3,N   2,C   1)     -0.8911         0.029269   
     89. D(C   4,C   3,N   2,C   1)    179.5369         0.029269   
     90. D(C   5,C   4,C   3,C  10)     26.9820         0.016926   
     91. D(C   5,C   4,C   3,N   2)   -153.5482         0.016926   
     92. D(C   9,C   4,C   3,N   2)     25.2341         0.016926   
     93. D(C   9,C   4,C   3,C  10)   -154.2356         0.016926   
     94. D(C   6,C   5,C   4,C   3)   -179.8256         0.026150   
     95. D(H  19,C   5,C   4,C   9)   -176.7464         0.026150   
     96. D(H  19,C   5,C   4,C   3)      2.0380         0.026150   
     97. D(C   6,C   5,C   4,C   9)      1.3900         0.026150   
     98. D(H  20,C   6,C   5,H  19)     -1.8208         0.028741   
     99. D(H  20,C   6,C   5,C   4)   -179.9631         0.028741   
    100. D(C   7,C   6,C   5,H  19)    177.7238         0.028741   
    101. D(C   7,C   6,C   5,C   4)     -0.4185         0.028741   
    102. D(H  21,C   7,C   6,H  20)     -0.5793         0.028155   
    103. D(H  21,C   7,C   6,C   5)    179.8772         0.028155   
    104. D(C   8,C   7,C   6,H  20)    178.8467         0.028155   
    105. D(C   8,C   7,C   6,C   5)     -0.6969         0.028155   
    106. D(H  22,C   8,C   7,H  21)      0.1562         0.027902   
    107. D(H  22,C   8,C   7,C   6)   -179.2691         0.027902   
    108. D(C   9,C   8,C   7,H  21)   -179.7572         0.027902   
    109. D(C   9,C   8,C   7,C   6)      0.8176         0.027902   
    110. D(C   8,C   9,C   4,C   3)    179.9033         0.025851   
    111. D(H  23,C   9,C   8,H  22)      0.3019         0.029177   
    112. D(H  23,C   9,C   8,C   7)   -179.7846         0.029177   
    113. D(C   4,C   9,C   8,H  22)   -179.7380         0.029177   
    114. D(C   4,C   9,C   8,C   7)      0.1754         0.029177   
    115. D(H  23,C   9,C   4,C   5)    178.6902         0.025851   
    116. D(H  23,C   9,C   4,C   3)     -0.1356         0.025851   
    117. D(C   8,C   9,C   4,C   5)     -1.2709         0.025851   
    118. D(N  15,C  10,C   3,C   4)   -179.6707         0.025627   
    119. D(N  15,C  10,C   3,N   2)      0.8111         0.025627   
    120. D(C  11,C  10,C   3,C   4)      3.9824         0.025627   
    121. D(C  11,C  10,C   3,N   2)   -175.5359         0.025627   
    122. D(H  24,C  11,C  10,N  15)   -176.7455         0.023801   
    123. D(H  24,C  11,C  10,C   3)     -0.7486         0.023801   
    124. D(C  12,C  11,C  10,N  15)      2.1905         0.023801   
    125. D(C  12,C  11,C  10,C   3)    178.1874         0.023801   
    126. D(H  25,C  12,C  11,H  24)     -0.9571         0.033551   
    127. D(H  25,C  12,C  11,C  10)   -179.8685         0.033551   
    128. D(C  13,C  12,C  11,H  24)    178.6925         0.033551   
    129. D(C  13,C  12,C  11,C  10)     -0.2189         0.033551   
    130. D(H  26,C  13,C  12,H  25)     -0.9139         0.021595   
    131. D(H  26,C  13,C  12,C  11)    179.4311         0.021595   
    132. D(C  14,C  13,C  12,H  25)    178.3488         0.021595   
    133. D(C  14,C  13,C  12,C  11)     -1.3063         0.021595   
    134. D(H  27,C  14,C  13,H  26)      0.3767         0.035928   
    135. D(H  27,C  14,C  13,C  12)   -178.8851         0.035928   
    136. D(N  15,C  14,C  13,H  26)   -179.9867         0.035928   
    137. D(N  15,C  14,C  13,C  12)      0.7515         0.035928   
    138. D(C   1,N  15,C  10,C   3)     -0.4392         0.022853   
    139. D(C  14,N  15,C   1,N   2)    179.3660         0.031366   
    140. D(C  14,N  15,C   1,C   0)     -0.8093         0.031366   
    141. D(C  10,N  15,C   1,N   2)     -0.0944         0.031366   
    142. D(C  10,N  15,C   1,C   0)    179.7303         0.031366   
    143. D(C  10,N  15,C  14,H  27)   -179.0118         0.030858   
    144. D(C  10,N  15,C  14,C  13)      1.3274         0.030858   
    145. D(C   1,N  15,C  14,H  27)      1.5961         0.030858   
    146. D(C   1,N  15,C  14,C  13)   -178.0647         0.030858   
    147. D(C  14,N  15,C  10,C  11)     -2.7999         0.022853   
    148. D(C  14,N  15,C  10,C   3)   -179.9613         0.022853   
    149. D(C   1,N  15,C  10,C  11)    176.7223         0.022853   
    -----------------------------------------------------------------

Number of atoms                         .... 28
Number of degrees of freedom            .... 149

         *************************************************************
         *                GEOMETRY OPTIMIZATION CYCLE   1            *
         *************************************************************
---------------------------------
CARTESIAN COORDINATES (ANGSTROEM)
---------------------------------
  C     -2.425900    2.445300    1.328700
  C     -1.530600    1.409700    0.756000
  N     -0.224200    1.399100    0.850700
  C      0.237600    0.307700    0.188800
  C      1.660700    0.032800    0.111600
  C      2.222900   -0.695700   -0.935900
  C      3.583400   -0.937500   -0.968200
  C      4.405300   -0.451700    0.034900
  C      3.858900    0.293200    1.068100
  C      2.500600    0.535500    1.106600
  C     -0.848400   -0.404100   -0.326200
  C     -1.046300   -1.614700   -1.014200
  C     -2.309900   -2.012100   -1.333700
  C     -3.423200   -1.210700   -0.970100
  C     -3.240100   -0.059800   -0.280700
  N     -1.978100    0.335200    0.050400
  H     -3.121100    2.005100    2.044400
  H     -1.815800    3.185300    1.836800
  H     -3.001600    2.937700    0.544400
  H      1.598700   -1.048400   -1.743000
  H      4.007400   -1.503100   -1.786000
  H      5.467800   -0.645000    0.006300
  H      4.497800    0.684500    1.846900
  H      2.061600    1.116500    1.902700
  H     -0.190200   -2.219800   -1.263400
  H     -2.479400   -2.938400   -1.859100
  H     -4.419400   -1.526400   -1.234000
  H     -4.048400    0.579900    0.037400

----------------------------
CARTESIAN COORDINATES (A.U.)
----------------------------
  NO LB      ZA    FRAG     MASS         X           Y           Z
   0 C     6.0000    0    12.011   -4.584287    4.620947    2.510879
   1 C     6.0000    0    12.011   -2.892415    2.663947    1.428633
   2 N     7.0000    0    14.007   -0.423677    2.643916    1.607590
   3 C     6.0000    0    12.011    0.448999    0.581469    0.356780
   4 C     6.0000    0    12.011    3.138268    0.061983    0.210893
   5 C     6.0000    0    12.011    4.200672   -1.314682   -1.768595
   6 C     6.0000    0    12.011    6.771645   -1.771618   -1.829633
   7 C     6.0000    0    12.011    8.324811   -0.853589    0.065951
   8 C     6.0000    0    12.011    7.292264    0.554068    2.018416
   9 C     6.0000    0    12.011    4.725449    1.011948    2.091171
  10 C     6.0000    0    12.011   -1.603244   -0.763638   -0.616429
  11 C     6.0000    0    12.011   -1.977220   -3.051341   -1.916560
  12 C     6.0000    0    12.011   -4.365078   -3.802318   -2.520328
  13 C     6.0000    0    12.011   -6.468911   -2.287891   -1.833223
  14 C     6.0000    0    12.011   -6.122902   -0.113006   -0.530446
  15 N     7.0000    0    14.007   -3.738067    0.633436    0.095242
  16 H     1.0000    0     1.008   -5.898024    3.789090    3.863356
  17 H     1.0000    0     1.008   -3.431365    6.019345    3.471049
  18 H     1.0000    0     1.008   -5.672202    5.551448    1.028767
  19 H     1.0000    0     1.008    3.021105   -1.981189   -3.293793
  20 H     1.0000    0     1.008    7.572889   -2.840447   -3.375051
  21 H     1.0000    0     1.008   10.332645   -1.218873    0.011905
  22 H     1.0000    0     1.008    8.499610    1.293518    3.490135
  23 H     1.0000    0     1.008    3.895859    2.109879    3.595582
  24 H     1.0000    0     1.008   -0.359426   -4.194814   -2.387480
  25 H     1.0000    0     1.008   -4.685387   -5.552771   -3.513190
  26 H     1.0000    0     1.008   -8.351456   -2.884478   -2.331922
  27 H     1.0000    0     1.008   -7.650367    1.095852    0.070676

--------------------------------
INTERNAL COORDINATES (ANGSTROEM)
--------------------------------
 C      0   0   0     0.000000000000     0.00000000     0.00000000
 C      1   0   0     1.483918710712     0.00000000     0.00000000
 N      2   1   0     1.309870760800   125.41409020     0.00000000
 C      3   2   1     1.357396334900   108.09306578   180.79075047
 C      4   3   2     1.451462524490   120.78240295   179.53688809
 C      5   4   3     1.394287395052   122.29329295   206.45176150
 C      6   5   4     1.382197807841   120.38759193   180.17443566
 C      7   6   5     1.384821598618   120.39064671   359.58153455
 C      8   7   6     1.385976626787   119.63954357   359.30312191
 C      9   8   7     1.380279113078   120.20513001     0.81756277
 C      4   3   2     1.396882328616   108.96500817   359.10893680
 C     11   4   3     1.406435483767   136.74867014   184.46411861
 C     12  11   4     1.362604847342   119.75061050   178.18737383
 C     13  12  11     1.419113741037   120.18059904   359.78107897
 C     14  13  12     1.354019490259   120.28957672   358.69372019
 N      2   1   3     1.361131095817   123.54749799   180.20074730
 H      1   2   3     1.090552873546   110.86652580   240.18232450
 H      1   2   3     1.085351380890   108.50254932   359.90642043
 H      1   2   3     1.090419524770   110.86018585   119.57426001
 H      6   5   4     1.079552379461   119.94950218     2.03802958
 H      7   6   5     1.080960776347   119.68955625   180.03694347
 H      8   7   6     1.080318980672   120.11727840   179.87715109
 H      9   8   7     1.080665692987   119.91839854   180.73093975
 H     10   9   8     1.078914829817   121.03247064   180.21536137
 H     12  11   4     1.077568494343   118.99211909   359.25138845
 H     13  12  11     1.078335337453   120.69970331   180.13154070
 H     14  13  12     1.077833076130   119.79819163   179.43107316
 H     15  14  13     1.078773650957   123.56237407   181.11489043

---------------------------
INTERNAL COORDINATES (A.U.)
---------------------------
 C      0   0   0     0.000000000000     0.00000000     0.00000000
 C      1   0   0     2.804199968246     0.00000000     0.00000000
 N      2   1   0     2.475297008744   125.41409020     0.00000000
 C      3   2   1     2.565107328149   108.09306578   180.79075047
 C      4   3   2     2.742866664937   120.78240295   179.53688809
 C      5   4   3     2.634821328626   122.29329295   206.45176150
 C      6   5   4     2.611975319725   120.38759193   180.17443566
 C      7   6   5     2.616933565728   120.39064671   359.58153455
 C      8   7   6     2.619116252644   119.63954357   359.30312191
 C      9   8   7     2.608349512090   120.20513001     0.81756277
 C      4   3   2     2.639725042399   108.96500817   359.10893680
 C     11   4   3     2.657777889349   136.74867014   184.46411861
 C     12  11   4     2.574949990230   119.75061050   178.18737383
 C     13  12  11     2.681736323444   120.18059904   359.78107897
 C     14  13  12     2.558726016580   120.28957672   358.69372019
 N      2   1   3     2.572165003458   123.54749799   180.20074730
 H      1   2   3     2.060846265563   110.86652580   240.18232450
 H      1   2   3     2.051016868955   108.50254932   359.90642043
 H      1   2   3     2.060594272896   110.86018585   119.57426001
 H      6   5   4     2.040058344404   119.94950218     2.03802958
 H      7   6   5     2.042719828806   119.68955625   180.03694347
 H      8   7   6     2.041507010747   120.11727840   179.87715109
 H      9   8   7     2.042162202070   119.91839854   180.73093975
 H     10   9   8     2.038853550181   121.03247064   180.21536137
 H     12  11   4     2.036309344850   118.99211909   359.25138845
 H     13  12  11     2.037758468316   120.69970331   180.13154070
 H     14  13  12     2.036809331968   119.79819163   179.43107316
 H     15  14  13     2.038586760800   123.56237407   181.11489043

---------------------
BASIS SET INFORMATION
---------------------
There are 3 groups of distinct atoms

 Group   1 Type C   : 19s6p3d2f contracted to 5s4p3d2f pattern {88111/3111/111/11}
 Group   2 Type N   : 19s6p3d2f contracted to 5s4p3d2f pattern {88111/3111/111/11}
 Group   3 Type H   : 5s2p1d contracted to 3s2p1d pattern {311/11/1}

Atom   0C    basis set group =>   1
Atom   1C    basis set group =>   1
Atom   2N    basis set group =>   2
Atom   3C    basis set group =>   1
Atom   4C    basis set group =>   1
Atom   5C    basis set group =>   1
Atom   6C    basis set group =>   1
Atom   7C    basis set group =>   1
Atom   8C    basis set group =>   1
Atom   9C    basis set group =>   1
Atom  10C    basis set group =>   1
Atom  11C    basis set group =>   1
Atom  12C    basis set group =>   1
Atom  13C    basis set group =>   1
Atom  14C    basis set group =>   1
Atom  15N    basis set group =>   2
Atom  16H    basis set group =>   3
Atom  17H    basis set group =>   3
Atom  18H    basis set group =>   3
Atom  19H    basis set group =>   3
Atom  20H    basis set group =>   3
Atom  21H    basis set group =>   3
Atom  22H    basis set group =>   3
Atom  23H    basis set group =>   3
Atom  24H    basis set group =>   3
Atom  25H    basis set group =>   3
Atom  26H    basis set group =>   3
Atom  27H    basis set group =>   3
---------------------------------
AUXILIARY/J BASIS SET INFORMATION
---------------------------------
There are 3 groups of distinct atoms

 Group   1 Type C   : 10s7p5d2f1g contracted to 10s7p5d2f1g pattern {1111111111/1111111/11111/11/1}
 Group   2 Type N   : 10s7p5d2f1g contracted to 10s7p5d2f1g pattern {1111111111/1111111/11111/11/1}
 Group   3 Type H   : 4s3p2d1f contracted to 4s3p2d1f pattern {1111/111/11/1}

Atom   0C    basis set group =>   1
Atom   1C    basis set group =>   1
Atom   2N    basis set group =>   2
Atom   3C    basis set group =>   1
Atom   4C    basis set group =>   1
Atom   5C    basis set group =>   1
Atom   6C    basis set group =>   1
Atom   7C    basis set group =>   1
Atom   8C    basis set group =>   1
Atom   9C    basis set group =>   1
Atom  10C    basis set group =>   1
Atom  11C    basis set group =>   1
Atom  12C    basis set group =>   1
Atom  13C    basis set group =>   1
Atom  14C    basis set group =>   1
Atom  15N    basis set group =>   2
Atom  16H    basis set group =>   3
Atom  17H    basis set group =>   3
Atom  18H    basis set group =>   3
Atom  19H    basis set group =>   3
Atom  20H    basis set group =>   3
Atom  21H    basis set group =>   3
Atom  22H    basis set group =>   3
Atom  23H    basis set group =>   3
Atom  24H    basis set group =>   3
Atom  25H    basis set group =>   3
Atom  26H    basis set group =>   3
Atom  27H    basis set group =>   3
---------------------------------
AUXILIARY/C BASIS SET INFORMATION
---------------------------------
There are 3 groups of distinct atoms

 Group   1 Type C   : 9s7p6d4f2g contracted to 9s7p6d4f2g pattern {111111111/1111111/111111/1111/11}
 Group   2 Type N   : 9s7p6d4f2g contracted to 9s7p6d4f2g pattern {111111111/1111111/111111/1111/11}
 Group   3 Type H   : 4s3p2d1f contracted to 4s3p2d1f pattern {1111/111/11/1}

Atom   0C    basis set group =>   1
Atom   1C    basis set group =>   1
Atom   2N    basis set group =>   2
Atom   3C    basis set group =>   1
Atom   4C    basis set group =>   1
Atom   5C    basis set group =>   1
Atom   6C    basis set group =>   1
Atom   7C    basis set group =>   1
Atom   8C    basis set group =>   1
Atom   9C    basis set group =>   1
Atom  10C    basis set group =>   1
Atom  11C    basis set group =>   1
Atom  12C    basis set group =>   1
Atom  13C    basis set group =>   1
Atom  14C    basis set group =>   1
Atom  15N    basis set group =>   2
Atom  16H    basis set group =>   3
Atom  17H    basis set group =>   3
Atom  18H    basis set group =>   3
Atom  19H    basis set group =>   3
Atom  20H    basis set group =>   3
Atom  21H    basis set group =>   3
Atom  22H    basis set group =>   3
Atom  23H    basis set group =>   3
Atom  24H    basis set group =>   3
Atom  25H    basis set group =>   3
Atom  26H    basis set group =>   3
Atom  27H    basis set group =>   3


           ************************************************************
           *        Program running with 4 parallel MPI-processes     *
           *              working on a common directory               *
           ************************************************************
------------------------------------------------------------------------------
                           ORCA GTO INTEGRAL CALCULATION
                           -- RI-GTO INTEGRALS CHOSEN --
------------------------------------------------------------------------------
------------------------------------------------------------------------------
                   ___                                                        
                  /   \      - P O W E R E D   B Y -                         
                 /     \                                                     
                 |  |  |   _    _      __       _____    __    __             
                 |  |  |  | |  | |    /  \     |  _  \  |  |  /  |          
                  \  \/   | |  | |   /    \    | | | |  |  | /  /          
                 / \  \   | |__| |  /  /\  \   | |_| |  |  |/  /          
                |  |  |   |  __  | /  /__\  \  |    /   |      \           
                |  |  |   | |  | | |   __   |  |    \   |  |\   \          
                \     /   | |  | | |  |  |  |  | |\  \  |  | \   \       
                 \___/    |_|  |_| |__|  |__|  |_| \__\ |__|  \__/        
                                                                              
                      - O R C A' S   B I G   F R I E N D -                    
                                      &                                       
                       - I N T E G R A L  F E E D E R -                       
                                                                              
 v1 FN, 2020, v2 2021                                                         
------------------------------------------------------------------------------


Reading SHARK input file optpbed3-b2plyp-train-16.SHARKINP.tmp ... ok
----------------------
SHARK INTEGRAL PACKAGE
----------------------

Number of atoms                             ...     28
Number of basis functions                   ...   1000
Number of shells                            ...    392
Maximum angular momentum                    ...      3
Integral batch strategy                     ... SHARK/LIBINT Hybrid
RI-J (if used) integral strategy            ... SPLIT-RIJ (Revised 2003 algorithm where possible)
Printlevel                                  ...      1
Contraction scheme used                     ... PARTIAL GENERAL contraction
Coulomb Range Separation                    ... NOT USED
Exchange Range Separation                   ... NOT USED
Finite Nucleus Model                        ... NOT USED
Auxiliary Coulomb fitting basis             ... AVAILABLE
   # of basis functions in Aux-J            ...   1624
   # of shells in Aux-J                     ...    520
   Maximum angular momentum in Aux-J        ...      4
Auxiliary J/K fitting basis                 ... NOT available
Auxiliary Correlation fitting basis         ... AVAILABLE
   # of basis functions in Aux-C            ...   2056
   # of shells in Aux-C                     ...    568
   Maximum angular momentum in Aux-C        ...      4
Auxiliary 'external' fitting basis          ... NOT available
Integral threshold                          ...     2.500000e-11
Primitive cut-off                           ...     2.500000e-12
Primitive pair pre-selection threshold      ...     2.500000e-12

Calculating pre-screening integrals         ... done (  0.2 sec) Dimension = 392
Calculating pre-screening integrals (ORCA)  ... done (  0.4 sec) Dimension = 296
Organizing shell pair data                  ... done (  0.9 sec)
Shell pair information
Total number of shell pairs                 ...     77028
Shell pairs after pre-screening             ...     54819
Total number of primitive shell pairs       ...    100660
Primitive shell pairs kept                  ...     65058
          la=0 lb=0:  12676 shell pairs
          la=1 lb=0:  13885 shell pairs
          la=1 lb=1:   3336 shell pairs
          la=2 lb=0:   9260 shell pairs
          la=2 lb=1:   4434 shell pairs
          la=2 lb=2:   1532 shell pairs
          la=3 lb=0:   5140 shell pairs
          la=3 lb=1:   2426 shell pairs
          la=3 lb=2:   1649 shell pairs
          la=3 lb=3:    481 shell pairs

Calculating one electron integrals          ... done (  0.2 sec)
Calculating RI/J V-Matrix + Cholesky decomp.... done (  0.2 sec)
Calculating RI/C V-Matrix + Cholesky decomp.... done (  0.4 sec)
Calculating Nuclear repulsion               ... done (  0.0 sec) ENN=    995.829503392840 Eh

SHARK setup successfully completed in   3.3 seconds

Maximum memory used throughout the entire GTOINT-calculation: 83.0 MB


           ************************************************************
           *        Program running with 4 parallel MPI-processes     *
           *              working on a common directory               *
           ************************************************************
-------------------------------------------------------------------------------
                                 ORCA SCF
-------------------------------------------------------------------------------

------------
SCF SETTINGS
------------
Hamiltonian:
 Density Functional     Method          .... DFT(GTOs)
 Exchange Functional    Exchange        .... PBE
   PBE kappa parameter   XKappa         ....  0.804000
   PBE mue parameter    XMuePBE         ....  0.219520
 Correlation Functional Correlation     .... PBE
   PBE beta parameter  CBetaPBE         ....  0.066725
 LDA part of GGA corr.  LDAOpt          .... PW91-LDA
 Gradients option       PostSCFGGA      .... off
 Hybrid DFT is turned on
   Fraction HF Exchange ScalHFX         ....  0.250000
   Scaling of DF-GGA-X  ScalDFX         ....  0.750000
   Scaling of DF-GGA-C  ScalDFC         ....  1.000000
   Scaling of DF-LDA-C  ScalLDAC        ....  1.000000
   Perturbative correction              ....  0.000000
   Density functional embedding theory  .... OFF
   NL short-range parameter             ....  6.900000
 RI-approximation to the Coulomb term is turned on
   Number of AuxJ basis functions       .... 1624
   RIJ-COSX (HFX calculated with COS-X)).... on


General Settings:
 Integral files         IntName         .... optpbed3-b2plyp-train-16
 Hartree-Fock type      HFTyp           .... RHF
 Total Charge           Charge          ....    0
 Multiplicity           Mult            ....    1
 Number of Electrons    NEL             ....  110
 Basis Dimension        Dim             ....  904
 Nuclear Repulsion      ENuc            ....    995.8295033928 Eh

Convergence Acceleration:
 DIIS                   CNVDIIS         .... on
   Start iteration      DIISMaxIt       ....    12
   Startup error        DIISStart       ....  0.200000
   # of expansion vecs  DIISMaxEq       ....     5
   Bias factor          DIISBfac        ....   1.050
   Max. coefficient     DIISMaxC        ....  10.000
 Trust-Rad. Augm. Hess. CNVTRAH         .... auto
   Auto Start mean grad. ratio tolernc. ....  1.125000
   Auto Start start iteration           ....    20
   Auto Start num. interpolation iter.  ....    10
   Max. Number of Micro iterations      ....    16
   Max. Number of Macro iterations      .... Maxiter - #DIIS iter
   Number of Davidson start vectors     ....     2
   Converg. threshold I  (grad. norm)   ....   1.000e-05
   Converg. threshold II (energy diff.) ....   1.000e-08
   Grad. Scal. Fac. for Micro threshold ....   0.100
   Minimum threshold for Micro iter.    ....   0.010
   NR start threshold (gradient norm)   ....   0.001
   Initial trust radius                 ....   0.400
   Minimum AH scaling param. (alpha)    ....   1.000
   Maximum AH scaling param. (alpha)    .... 1000.000
   Orbital update algorithm             .... Taylor
   White noise on init. David. guess    .... on
   Maximum white noise                  ....   0.010
   Quad. conv. algorithm                .... NR
 SOSCF                  CNVSOSCF        .... on
   Start iteration      SOSCFMaxIt      ....   150
   Startup grad/error   SOSCFStart      ....  0.003300
 Level Shifting         CNVShift        .... on
   Level shift para.    LevelShift      ....    0.2500
   Turn off err/grad.   ShiftErr        ....    0.0010
 Zerner damping         CNVZerner       .... off
 Static damping         CNVDamp         .... on
   Fraction old density DampFac         ....    0.7000
   Max. Damping (<1)    DampMax         ....    0.9800
   Min. Damping (>=0)   DampMin         ....    0.0000
   Turn off err/grad.   DampErr         ....    0.1000
 Fernandez-Rico         CNVRico         .... off

SCF Procedure:
 Maximum # iterations   MaxIter         ....   125
 SCF integral mode      SCFMode         .... Direct
   Integral package                     .... SHARK and LIBINT hybrid scheme
 Reset frequency        DirectResetFreq ....    20
 Integral Threshold     Thresh          ....  2.500e-11 Eh
 Primitive CutOff       TCut            ....  2.500e-12 Eh

Convergence Tolerance:
 Convergence Check Mode ConvCheckMode   .... Total+1el-Energy
 Convergence forced     ConvForced      .... 0
 Energy Change          TolE            ....  1.000e-08 Eh
 1-El. energy change                    ....  1.000e-05 Eh
 Orbital Gradient       TolG            ....  1.000e-05
 Orbital Rotation angle TolX            ....  1.000e-05
 DIIS Error             TolErr          ....  5.000e-07


Diagonalization of the overlap matrix:
Smallest eigenvalue                        ... 7.622e-07
Time for diagonalization                   ...    0.284 sec
Threshold for overlap eigenvalues          ... 1.000e-08
Number of eigenvalues below threshold      ... 0
Time for construction of square roots      ...    0.124 sec
Total time needed                          ...    0.417 sec

Time for model grid setup =    0.711 sec

------------------------------
INITIAL GUESS: MODEL POTENTIAL
------------------------------
Loading Hartree-Fock densities                     ... done
Calculating cut-offs                               ... done
Initializing the effective Hamiltonian             ... done
Setting up the integral package (SHARK)            ... done
Starting the Coulomb interaction                   ... done (   1.7 sec)
Reading the grid                                   ... done
Mapping shells                                     ... done
Starting the XC term evaluation                    ... done (   1.9 sec)
  promolecular density results
     # of electrons  =    109.995033999
     EX              =    -88.329993185
     EC              =     -3.689415904
     EX+EC           =    -92.019409088
Transforming the Hamiltonian                       ... done (   0.1 sec)
Diagonalizing the Hamiltonian                      ... done (   0.3 sec)
Back transforming the eigenvectors                 ... done (   0.0 sec)
Now organizing SCF variables                       ... done
                      ------------------
                      INITIAL GUESS DONE (   4.8 sec)
                      ------------------
-------------------
DFT GRID GENERATION
-------------------

General Integration Accuracy     IntAcc      ... 4.388
Radial Grid Type                 RadialGrid  ... OptM3 with GC (2021)
Angular Grid (max. ang.)         AngularGrid ... 4 (Lebedev-302)
Angular grid pruning method      GridPruning ... 4 (adaptive)
Weight generation scheme         WeightScheme... Becke
Basis function cutoff            BFCut       ... 1.0000e-11
Integration weight cutoff        WCut        ... 1.0000e-14
Angular grids for H and He will be reduced by one unit
Partially contracted basis set               ... off
Rotationally invariant grid construction     ... off

Total number of grid points                  ...   138123
Total number of batches                      ...     2171
Average number of points per batch           ...       63
Average number of grid points per atom       ...     4933
Time for grid setup =    2.232 sec

--------------------
COSX GRID GENERATION
--------------------

GRIDX 1
-------
General Integration Accuracy     IntAcc      ... 3.816
Radial Grid Type                 RadialGrid  ... OptM3 with GC (2021)
Angular Grid (max. ang.)         AngularGrid ... 1 (Lebedev-50)
Angular grid pruning method      GridPruning ... 4 (adaptive)
Weight generation scheme         WeightScheme... Becke
Basis function cutoff            BFCut       ... 1.0000e-11
Integration weight cutoff        WCut        ... 1.0000e-14
Angular grids for H and He will be reduced by one unit
Partially contracted basis set               ... on
Rotationally invariant grid construction     ... off

Total number of grid points                  ...    17610
Total number of batches                      ...      292
Average number of points per batch           ...       60
Average number of grid points per atom       ...      629
UseSFitting                                  ... on

GRIDX 2
-------
General Integration Accuracy     IntAcc      ... 4.020
Radial Grid Type                 RadialGrid  ... OptM3 with GC (2021)
Angular Grid (max. ang.)         AngularGrid ... 2 (Lebedev-110)
Angular grid pruning method      GridPruning ... 4 (adaptive)
Weight generation scheme         WeightScheme... Becke
Basis function cutoff            BFCut       ... 1.0000e-11
Integration weight cutoff        WCut        ... 1.0000e-14
Angular grids for H and He will be reduced by one unit
Partially contracted basis set               ... on
Rotationally invariant grid construction     ... off

Total number of grid points                  ...    41694
Total number of batches                      ...      665
Average number of points per batch           ...       62
Average number of grid points per atom       ...     1489
UseSFitting                                  ... on

GRIDX 3
-------
General Integration Accuracy     IntAcc      ... 4.338
Radial Grid Type                 RadialGrid  ... OptM3 with GC (2021)
Angular Grid (max. ang.)         AngularGrid ... 3 (Lebedev-194)
Angular grid pruning method      GridPruning ... 4 (adaptive)
Weight generation scheme         WeightScheme... Becke
Basis function cutoff            BFCut       ... 1.0000e-11
Integration weight cutoff        WCut        ... 1.0000e-14
Angular grids for H and He will be reduced by one unit
Partially contracted basis set               ... on
Rotationally invariant grid construction     ... off

Total number of grid points                  ...    89873
Total number of batches                      ...     1418
Average number of points per batch           ...       63
Average number of grid points per atom       ...     3210
UseSFitting                                  ... on

Time for X-Grid setup             =    5.227 sec


--------------------
CPCM SOLVATION MODEL
--------------------
CPCM parameters:
  Epsilon                                         ...       8.9300
  Refrac                                          ...       1.4242
  Rsolv                                           ...       1.3000
  Surface type                                    ... GAUSSIAN VDW
  Epsilon function type                           ...         CPCM
Solvent:                                     ... DICHLOROMETHANE
SMD-CDS solvent descriptors:
  Soln                                       ...    1.4242
  Soln25                                     ...    1.4212
  Sola                                       ...    0.1000
  Solb                                       ...    0.0500
  Solg                                       ...   39.1500
  Solc                                       ...    0.0000
  Solh                                       ...    0.6670
Radii:
 Radius for C  used is    3.4960 Bohr (=   1.8500 Ang.)
 Radius for N  used is    3.5716 Bohr (=   1.8900 Ang.)
 Radius for H  used is    2.2677 Bohr (=   1.2000 Ang.)
Calculating surface                               ...        done! (  0.0s)
GEPOL surface points                              ...         1639
GEPOL Volume                                      ...    1486.1740
GEPOL Surface-area                                ...     847.8508
Calculating surface distance matrix               ...        done! (  0.0s)
Performing Cholesky decomposition & store         ...        done! (  0.2s)
Overall time for CPCM initialization              ...                 0.2s
 re-compute Schwartz prescreening matrix in partically contracted basis (1) ...done (   0.199 sec)
--------------
SCF ITERATIONS
--------------
ITER       Energy         Delta-E        Max-DP      RMS-DP      [F,P]     Damp
               ***  Starting incremental Fock matrix formation  ***
  0   -649.3600920899   0.000000000000 0.13069629  0.00096538  0.2056550 0.7000
  1   -649.5046877111  -0.144595621245 0.10619757  0.00075520  0.1002323 0.7000
                               ***Turning on DIIS***
  2   -649.5720758820  -0.067388170868 0.29061517  0.00164991  0.0434043 0.0000
  3   -649.6715848710  -0.099508988965 0.07378626  0.00041655  0.0475375 0.0000
  4   -649.6935485019  -0.021963630917 0.01719244  0.00015907  0.0086224 0.0000
  5   -649.6944669801  -0.000918478162 0.00817157  0.00005541  0.0051422 0.0000
                      *** Initiating the SOSCF procedure ***
                           *** Shutting down DIIS ***
                      *** Re-Reading the Fockian *** 
                      *** Removing any level shift *** 
ITER      Energy       Delta-E        Grad      Rot      Max-DP    RMS-DP
  6   -649.69456305  -0.0000960708  0.000314  0.000314  0.019875  0.000050
               *** Restarting incremental Fock matrix formation ***
  7   -649.69458101  -0.0000179550  0.000215  0.001033  0.017795  0.000257
  8   -649.69457802   0.0000029861  0.000361  0.000649  0.005612  0.000021
  9   -649.69458396  -0.0000059367  0.000030  0.000099  0.011742  0.000030
 10   -649.69458390   0.0000000531  0.000037  0.000097  0.004498  0.000013
 11   -649.69458403  -0.0000001304  0.000004  0.000022  0.010545  0.000032
 12   -649.69458404  -0.0000000051  0.000007  0.000009  0.005455  0.000020
                 **** Energy Check signals convergence ****
              ***Rediagonalizing the Fockian in SOSCF/NRSCF***

               *****************************************************
               *                     SUCCESS                       *
               *           SCF CONVERGED AFTER  13 CYCLES          *
               *****************************************************

Old exchange energy                            =    -22.549019104 Eh
New exchange energy                            =    -22.549016628 Eh
Exchange energy change after final integration =      0.000002476 Eh
Total energy after final integration           =   -649.694581556 Eh
Final COS-X integration done in                =    95.670 sec

SMD CDS free energy correction energy :                -6.98495     Kcal/mol
Total Energy after SMD CDS correction =              -649.705712786 Eh

----------------
TOTAL SCF ENERGY
----------------

Total Energy       :         -649.70571279 Eh          -17679.39125 eV

Components:
Nuclear Repulsion  :          995.82950339 Eh           27097.89842 eV
Electronic Energy  :        -1645.53521618 Eh          -44777.28967 eV
One Electron Energy:        -2854.76591099 Eh          -77682.12972 eV
Two Electron Energy:         1209.23069481 Eh           32904.84006 eV
Max COSX asymmetry :            0.00003067 Eh               0.00083 eV
CPCM Dielectric    :           -0.01900211 Eh              -0.51707 eV
SMD CDS (Gcds)     :           -0.01113123 Eh              -0.30290 eV

Virial components:
Potential Energy   :        -1295.79225841 Eh          -35260.29995 eV
Kinetic Energy     :          646.08654562 Eh           17580.90870 eV
Virial Ratio       :            2.00560168


DFT components:
N(Alpha)           :       55.000056311780 electrons
N(Beta)            :       55.000056311780 electrons
N(Total)           :      110.000112623561 electrons
E(X)               :      -67.454812595445 Eh       
E(C)               :       -3.692982216070 Eh       
E(XC)              :      -71.147794811515 Eh       
DFET-embed. en.    :        0.000000000000 Eh       
CPCM Solvation Model Properties:
Surface-charge          :           -0.05848348
Charge-correction       :           -0.00002385 Eh              -0.00065 eV
Free-energy (cav+disp)  :           -0.01113123 Eh              -0.30290 eV

---------------
SCF CONVERGENCE
---------------

  Last Energy change         ...    7.0285e-09  Tolerance :   1.0000e-08
  Last MAX-Density change    ...    2.8866e-15  Tolerance :   1.0000e-07
  Last RMS-Density change    ...    1.1775e-17  Tolerance :   5.0000e-09
  Last Orbital Gradient      ...    1.3998e-06  Tolerance :   1.0000e-05
  Last Orbital Rotation      ...    2.8610e-06  Tolerance :   1.0000e-05

             **** THE GBW FILE WAS UPDATED (optpbed3-b2plyp-train-16.gbw) ****
             **** DENSITY optpbed3-b2plyp-train-16.scfp WAS UPDATED ****
             **** ENERGY FILE WAS UPDATED (optpbed3-b2plyp-train-16.en.tmp) ****
             **** THE GBW FILE WAS UPDATED (optpbed3-b2plyp-train-16.gbw) ****
             **** DENSITY optpbed3-b2plyp-train-16.scfp WAS UPDATED ****
----------------
ORBITAL ENERGIES
----------------

  NO   OCC          E(Eh)            E(eV) 
   0   2.0000     -14.465238      -393.6191 
   1   2.0000     -14.375033      -391.1645 
   2   2.0000     -10.283756      -279.8352 
   3   2.0000     -10.274617      -279.5866 
   4   2.0000     -10.267479      -279.3923 
   5   2.0000     -10.246186      -278.8129 
   6   2.0000     -10.240283      -278.6523 
   7   2.0000     -10.237538      -278.5776 
   8   2.0000     -10.235684      -278.5271 
   9   2.0000     -10.234871      -278.5050 
  10   2.0000     -10.223865      -278.2055 
  11   2.0000     -10.223240      -278.1885 
  12   2.0000     -10.222988      -278.1816 
  13   2.0000     -10.221120      -278.1308 
  14   2.0000     -10.220947      -278.1261 
  15   2.0000     -10.220312      -278.1088 
  16   2.0000      -1.071918       -29.1684 
  17   2.0000      -0.947845       -25.7922 
  18   2.0000      -0.887769       -24.1574 
  19   2.0000      -0.853533       -23.2258 
  20   2.0000      -0.813887       -22.1470 
  21   2.0000      -0.790187       -21.5021 
  22   2.0000      -0.770784       -20.9741 
  23   2.0000      -0.766307       -20.8523 
  24   2.0000      -0.704818       -19.1791 
  25   2.0000      -0.676116       -18.3981 
  26   2.0000      -0.654869       -17.8199 
  27   2.0000      -0.629193       -17.1212 
  28   2.0000      -0.607155       -16.5215 
  29   2.0000      -0.597986       -16.2720 
  30   2.0000      -0.543303       -14.7840 
  31   2.0000      -0.524142       -14.2626 
  32   2.0000      -0.512029       -13.9330 
  33   2.0000      -0.497441       -13.5361 
  34   2.0000      -0.495366       -13.4796 
  35   2.0000      -0.474700       -12.9172 
  36   2.0000      -0.469342       -12.7715 
  37   2.0000      -0.457381       -12.4460 
  38   2.0000      -0.439559       -11.9610 
  39   2.0000      -0.429442       -11.6857 
  40   2.0000      -0.422307       -11.4916 
  41   2.0000      -0.419222       -11.4076 
  42   2.0000      -0.406959       -11.0739 
  43   2.0000      -0.398552       -10.8452 
  44   2.0000      -0.391565       -10.6550 
  45   2.0000      -0.375883       -10.2283 
  46   2.0000      -0.365383        -9.9426 
  47   2.0000      -0.354674        -9.6512 
  48   2.0000      -0.348086        -9.4719 
  49   2.0000      -0.331504        -9.0207 
  50   2.0000      -0.298749        -8.1294 
  51   2.0000      -0.280084        -7.6215 
  52   2.0000      -0.273212        -7.4345 
  53   2.0000      -0.267681        -7.2840 
  54   2.0000      -0.196327        -5.3423 
  55   0.0000      -0.042586        -1.1588 
  56   0.0000      -0.017053        -0.4640 
  57   0.0000      -0.007200        -0.1959 
  58   0.0000       0.005546         0.1509 
  59   0.0000       0.012102         0.3293 
  60   0.0000       0.013981         0.3804 
  61   0.0000       0.018498         0.5034 
  62   0.0000       0.029884         0.8132 
  63   0.0000       0.030561         0.8316 
  64   0.0000       0.034444         0.9373 
  65   0.0000       0.039547         1.0761 
  66   0.0000       0.046706         1.2709 
  67   0.0000       0.048529         1.3206 
  68   0.0000       0.049585         1.3493 
  69   0.0000       0.053265         1.4494 
  70   0.0000       0.061637         1.6772 
  71   0.0000       0.068847         1.8734 
  72   0.0000       0.069678         1.8960 
  73   0.0000       0.073991         2.0134 
  74   0.0000       0.075025         2.0415 
  75   0.0000       0.078817         2.1447 
  76   0.0000       0.081619         2.2210 
  77   0.0000       0.091394         2.4870 
  78   0.0000       0.091763         2.4970 
  79   0.0000       0.099082         2.6962 
  80   0.0000       0.101305         2.7566 
  81   0.0000       0.108959         2.9649 
  82   0.0000       0.112359         3.0574 
  83   0.0000       0.114506         3.1159 
  84   0.0000       0.117061         3.1854 
  85   0.0000       0.119303         3.2464 
  86   0.0000       0.121336         3.3017 
  87   0.0000       0.127037         3.4569 
  88   0.0000       0.129945         3.5360 
  89   0.0000       0.131795         3.5863 
  90   0.0000       0.135348         3.6830 
  91   0.0000       0.136836         3.7235 
  92   0.0000       0.139863         3.8059 
  93   0.0000       0.145206         3.9513 
  94   0.0000       0.146134         3.9765 
  95   0.0000       0.148845         4.0503 
  96   0.0000       0.150059         4.0833 
  97   0.0000       0.153343         4.1727 
  98   0.0000       0.155123         4.2211 
  99   0.0000       0.158548         4.3143 
 100   0.0000       0.160981         4.3805 
 101   0.0000       0.163991         4.4624 
 102   0.0000       0.167099         4.5470 
 103   0.0000       0.168719         4.5911 
 104   0.0000       0.169612         4.6154 
 105   0.0000       0.171243         4.6598 
 106   0.0000       0.175154         4.7662 
 107   0.0000       0.178655         4.8614 
 108   0.0000       0.183731         4.9996 
 109   0.0000       0.184268         5.0142 
 110   0.0000       0.187676         5.1069 
 111   0.0000       0.189323         5.1518 
 112   0.0000       0.194959         5.3051 
 113   0.0000       0.198738         5.4079 
 114   0.0000       0.201664         5.4876 
 115   0.0000       0.204774         5.5722 
 116   0.0000       0.206753         5.6260 
 117   0.0000       0.208375         5.6702 
 118   0.0000       0.209709         5.7065 
 119   0.0000       0.213767         5.8169 
 120   0.0000       0.221339         6.0229 
 121   0.0000       0.222693         6.0598 
 122   0.0000       0.224110         6.0983 
 123   0.0000       0.226843         6.1727 
 124   0.0000       0.230155         6.2628 
 125   0.0000       0.231867         6.3094 
 126   0.0000       0.237779         6.4703 
 127   0.0000       0.242526         6.5995 
 128   0.0000       0.246635         6.7113 
 129   0.0000       0.250676         6.8212 
 130   0.0000       0.254784         6.9330 
 131   0.0000       0.257078         6.9955 
 132   0.0000       0.263539         7.1713 
 133   0.0000       0.264998         7.2110 
 134   0.0000       0.268528         7.3070 
 135   0.0000       0.271407         7.3854 
 136   0.0000       0.275083         7.4854 
 137   0.0000       0.279221         7.5980 
 138   0.0000       0.282890         7.6978 
 139   0.0000       0.284931         7.7534 
 140   0.0000       0.289424         7.8756 
 141   0.0000       0.292685         7.9644 
 142   0.0000       0.296432         8.0663 
 143   0.0000       0.299467         8.1489 
 144   0.0000       0.303411         8.2562 
 145   0.0000       0.307877         8.3778 
 146   0.0000       0.312397         8.5008 
 147   0.0000       0.316900         8.6233 
 148   0.0000       0.318794         8.6748 
 149   0.0000       0.325058         8.8453 
 150   0.0000       0.326007         8.8711 
 151   0.0000       0.332215         9.0400 
 152   0.0000       0.335100         9.1185 
 153   0.0000       0.342542         9.3210 
 154   0.0000       0.343459         9.3460 
 155   0.0000       0.346575         9.4308 
 156   0.0000       0.351753         9.5717 
 157   0.0000       0.355363         9.6699 
 158   0.0000       0.360006         9.7963 
 159   0.0000       0.363278         9.8853 
 160   0.0000       0.365027         9.9329 
 161   0.0000       0.367996        10.0137 
 162   0.0000       0.373313        10.1584 
 163   0.0000       0.376883        10.2555 
 164   0.0000       0.382015        10.3952 
 165   0.0000       0.386207        10.5092 
 166   0.0000       0.392630        10.6840 
 167   0.0000       0.395717        10.7680 
 168   0.0000       0.399820        10.8797 
 169   0.0000       0.400391        10.8952 
 170   0.0000       0.403889        10.9904 
 171   0.0000       0.408233        11.1086 
 172   0.0000       0.413292        11.2463 
 173   0.0000       0.415876        11.3165 
 174   0.0000       0.416923        11.3450 
 175   0.0000       0.420922        11.4539 
 176   0.0000       0.423758        11.5311 
 177   0.0000       0.426573        11.6076 
 178   0.0000       0.427209        11.6249 
 179   0.0000       0.431802        11.7499 
 180   0.0000       0.435513        11.8509 
 181   0.0000       0.438273        11.9260 
 182   0.0000       0.440991        12.0000 
 183   0.0000       0.442649        12.0451 
 184   0.0000       0.447713        12.1829 
 185   0.0000       0.451123        12.2757 
 186   0.0000       0.453695        12.3457 
 187   0.0000       0.457277        12.4431 
 188   0.0000       0.467564        12.7231 
 189   0.0000       0.468296        12.7430 
 190   0.0000       0.473706        12.8902 
 191   0.0000       0.478004        13.0072 
 192   0.0000       0.480330        13.0704 
 193   0.0000       0.484289        13.1782 
 194   0.0000       0.486577        13.2404 
 195   0.0000       0.488338        13.2884 
 196   0.0000       0.493832        13.4379 
 197   0.0000       0.497655        13.5419 
 198   0.0000       0.500134        13.6093 
 199   0.0000       0.507777        13.8173 
 200   0.0000       0.511483        13.9182 
 201   0.0000       0.514085        13.9890 
 202   0.0000       0.517176        14.0731 
 203   0.0000       0.518472        14.1083 
 204   0.0000       0.520162        14.1543 
 205   0.0000       0.524351        14.2683 
 206   0.0000       0.530987        14.4489 
 207   0.0000       0.536392        14.5960 
 208   0.0000       0.539198        14.6723 
 209   0.0000       0.546962        14.8836 
 210   0.0000       0.547508        14.8985 
 211   0.0000       0.552341        15.0300 
 212   0.0000       0.562720        15.3124 
 213   0.0000       0.570916        15.5354 
 214   0.0000       0.574156        15.6236 
 215   0.0000       0.581764        15.8306 
 216   0.0000       0.583972        15.8907 
 217   0.0000       0.587706        15.9923 
 218   0.0000       0.592679        16.1276 
[...]
   Done building sigma-vectors             Size of expansion space: 40
   Lowest Energy          :     0.138818332498
   Maximum Energy change  :     0.013372163902 (vector 0)
   Maximum residual norm  :     0.000658561824

                       ****Iteration    2****
              <<< Entering MO-section for Build Sigma(Double) >>>
   Forming the XC and CPCM contribution:
   Time for densities:            0.179
   Time for XC-Integration:      16.987
   Time for LR-CPCM terms:        8.224
   Time for Sigma-Completion:     0.172
   Time for building 10 sigma-vectors
   Data Preparation Phase         ...     0.01 sec
   Transformed RI Coulomb         ...     0.46 sec
   Transformed RI-exchange        ...   185.27 sec
   (ab|v) reading and digestion   ...   168.08 sec
   Final sigma-completion         ...     0.00 sec
   Done building sigma-vectors             Size of expansion space: 50
   Lowest Energy          :     0.137803896169
   Maximum Energy change  :     0.002371628870 (vector 3)
   Maximum residual norm  :     0.000130033891

                       ****Iteration    3****
              <<< Entering MO-section for Build Sigma(Double) >>>
   Forming the XC and CPCM contribution:
   Time for densities:            0.184
   Time for XC-Integration:      17.591
   Time for LR-CPCM terms:        8.337
   Time for Sigma-Completion:     0.142
   Time for building 10 sigma-vectors
   Data Preparation Phase         ...     0.01 sec
   Transformed RI Coulomb         ...     0.47 sec
   Transformed RI-exchange        ...   183.86 sec
   (ab|v) reading and digestion   ...   166.74 sec
   Final sigma-completion         ...     0.00 sec
   Done building sigma-vectors             Size of expansion space: 60
   Lowest Energy          :     0.137690317901
   Maximum Energy change  :     0.000361592025 (vector 3)
   Maximum residual norm  :     0.000032240959

                       ****Iteration    4****
              <<< Entering MO-section for Build Sigma(Double) >>>
   Forming the XC and CPCM contribution:
   Time for densities:            0.176
   Time for XC-Integration:      17.168
   Time for LR-CPCM terms:        8.262
   Time for Sigma-Completion:     0.131
   Time for building 10 sigma-vectors
   Data Preparation Phase         ...     0.01 sec
   Transformed RI Coulomb         ...     0.49 sec
   Transformed RI-exchange        ...   187.44 sec
   (ab|v) reading and digestion   ...   179.12 sec
   Final sigma-completion         ...     0.00 sec
   Done building sigma-vectors             Size of expansion space: 70
   Lowest Energy          :     0.137677929036
   Maximum Energy change  :     0.000058716708 (vector 9)
   Maximum residual norm  :     0.000001810805
   Rebuilding the expansion space

                       ****Iteration    5****
              <<< Entering MO-section for Build Sigma(Double) >>>
   Forming the XC and CPCM contribution:
   Time for densities:            0.348
   Time for XC-Integration:      33.065
   Time for LR-CPCM terms:       12.743
   Time for Sigma-Completion:     0.262
   Time for building 20 sigma-vectors
   Data Preparation Phase         ...     0.01 sec
   Transformed RI Coulomb         ...     0.79 sec
   Transformed RI-exchange        ...   458.78 sec
   (ab|v) reading and digestion   ...   442.41 sec
   Final sigma-completion         ...     0.01 sec
   Done building sigma-vectors             Size of expansion space: 20
   Lowest Energy          :     0.137677358044
   Maximum Energy change  :     0.000004337678 (vector 9)
   Maximum residual norm  :     0.000000447327

      *** CONVERGENCE OF RESIDUAL NORM REACHED ***

Storing the converged CI vectors               ... optpbed3-b2plyp-train-16_job2.cis1

                 *** DAVIDSON DONE ***

Total time for solving the CIS problem:  1457.532sec

------------------
DOUBLES CORRECTION (Double precision version)
------------------

The (D) correction will be scaled by  0.2700
Doing v(i,a)*T(i,a) terms (RI)                    ... ok
Doing u(i,j,a,b) terms for state   0              ... ok
Doing u(i,j,a,b) terms for state   1              ... ok
Doing u(i,j,a,b) terms for state   2              ... ok
Doing u(i,j,a,b) terms for state   3              ... ok
Doing u(i,j,a,b) terms for state   4              ... ok
Doing u(i,j,a,b) terms for state   5              ... ok
Doing u(i,j,a,b) terms for state   6              ... ok
Doing u(i,j,a,b) terms for state   7              ... ok
Doing u(i,j,a,b) terms for state   8              ... ok
Doing u(i,j,a,b) terms for state   9              ... ok

Contributions to the (D) correction(s) (in eV)

STATE  Final   Init.   Total   v(ext)   v(int)  v(3)    u
       omega   omega     (D)                             
-----------------------------------------------------------------------------
   0   3.494   3.746  -0.252   0.560   1.030  -0.060  -1.782
   1   4.220   4.522  -0.302   0.490   1.027  -0.045  -1.774
   2   4.468   4.576  -0.108   0.091   1.031  -0.006  -1.225
   3   4.491   4.884  -0.393   0.397   1.013  -0.023  -1.779
   4   4.968   5.086  -0.118   0.036   1.030  -0.002  -1.182
   5   5.021   5.136  -0.115   0.076   1.029  -0.005  -1.215
   6   5.094   5.309  -0.215   0.300   1.018  -0.024  -1.508
   7   5.196   5.336  -0.141   0.180   1.026  -0.018  -1.329
   8   5.335   5.463  -0.128   0.074   1.023  -0.004  -1.220
   9   5.525   5.634  -0.109   0.039   1.027  -0.002  -1.173

(D)-timings
 V(i,a)*T(i,a) terms           ...   237.053 sec
 U(i,j,a,b) 3-internal         ...     5.268 sec
 U(i,j,a,b) 3-external         ...   199.708 sec
 U(i,j,a,b) pair terms         ...   103.156 sec
 Total measured time           ...  1019.339 sec

 Time for (ab|v) I/O           ...    55.761 sec


------------------------------------
TD-DFT/TDA EXCITED STATES (SINGLETS)
------------------------------------

the weight of the individual excitations are printed if larger than 1.0e-02

STATE  1:  E=   0.128418 au      3.494 eV    28184.4 cm**-1 <S**2> =   0.000000
    54a ->  55a  :     0.925624 (c=  0.96209373)
    54a ->  59a  :     0.032982 (c= -0.18160842)

STATE  2:  E=   0.155068 au      4.220 eV    34033.5 cm**-1 <S**2> =   0.000000
    51a ->  55a  :     0.018539 (c= -0.13615731)
    54a ->  55a  :     0.032473 (c=  0.18020236)
    54a ->  56a  :     0.039815 (c=  0.19953668)
    54a ->  58a  :     0.029052 (c= -0.17044555)
    54a ->  59a  :     0.811780 (c=  0.90098853)

STATE  3:  E=   0.164202 au      4.468 eV    36038.1 cm**-1 <S**2> =   0.000000
    54a ->  56a  :     0.723487 (c= -0.85058051)
    54a ->  59a  :     0.040100 (c=  0.20024873)
    54a ->  60a  :     0.097448 (c= -0.31216679)
    54a ->  64a  :     0.062064 (c=  0.24912697)
    54a ->  67a  :     0.013623 (c=  0.11671659)

STATE  4:  E=   0.165041 au      4.491 eV    36222.3 cm**-1 <S**2> =   0.000000
    52a ->  60a  :     0.024688 (c= -0.15712345)
    53a ->  55a  :     0.037645 (c=  0.19402235)
    53a ->  59a  :     0.036692 (c=  0.19155228)
    54a ->  56a  :     0.056079 (c=  0.23681048)
    54a ->  57a  :     0.015234 (c=  0.12342648)
    54a ->  58a  :     0.020308 (c=  0.14250511)
    54a ->  60a  :     0.588136 (c= -0.76690032)
    54a ->  61a  :     0.032501 (c= -0.18028091)
    54a ->  62a  :     0.104158 (c=  0.32273448)
    54a ->  64a  :     0.029620 (c= -0.17210408)

STATE  5:  E=   0.182580 au      4.968 eV    40071.7 cm**-1 <S**2> =   0.000000
    54a ->  57a  :     0.802938 (c=  0.89606813)
    54a ->  58a  :     0.053952 (c= -0.23227477)
    54a ->  59a  :     0.010218 (c= -0.10108399)
    54a ->  62a  :     0.054503 (c= -0.23345837)
    54a ->  67a  :     0.010176 (c= -0.10087670)
    54a ->  70a  :     0.012055 (c=  0.10979749)

STATE  6:  E=   0.184517 au      5.021 eV    40496.8 cm**-1 <S**2> =   0.000000
    54a ->  57a  :     0.023517 (c=  0.15335201)
    54a ->  58a  :     0.757732 (c=  0.87047783)
    54a ->  59a  :     0.015995 (c=  0.12647221)
    54a ->  62a  :     0.036611 (c= -0.19133988)
    54a ->  64a  :     0.074059 (c=  0.27213862)
    54a ->  66a  :     0.024736 (c= -0.15727589)

STATE  7:  E=   0.187192 au      5.094 eV    41083.9 cm**-1 <S**2> =   0.000000
    51a ->  55a  :     0.083700 (c=  0.28930945)
    54a ->  57a  :     0.020022 (c=  0.14149948)
    54a ->  58a  :     0.034621 (c=  0.18606853)
    54a ->  59a  :     0.019566 (c=  0.13987874)
    54a ->  61a  :     0.124358 (c=  0.35264427)
    54a ->  62a  :     0.020813 (c=  0.14426884)
    54a ->  63a  :     0.103492 (c= -0.32170107)
    54a ->  64a  :     0.087393 (c= -0.29562365)
    54a ->  65a  :     0.024983 (c=  0.15806167)
    54a ->  66a  :     0.198523 (c=  0.44555920)
    54a ->  67a  :     0.100010 (c=  0.31624386)
    54a ->  68a  :     0.019063 (c=  0.13806991)
    54a ->  69a  :     0.078124 (c=  0.27950584)

STATE  8:  E=   0.190945 au      5.196 eV    41907.7 cm**-1 <S**2> =   0.000000
    51a ->  55a  :     0.036874 (c= -0.19202647)
    54a ->  58a  :     0.016726 (c= -0.12932985)
    54a ->  61a  :     0.194246 (c=  0.44073405)
    54a ->  62a  :     0.017857 (c=  0.13363032)
    54a ->  63a  :     0.489031 (c= -0.69930738)
    54a ->  64a  :     0.022822 (c=  0.15106979)
    54a ->  65a  :     0.021616 (c= -0.14702551)
    54a ->  66a  :     0.028125 (c= -0.16770483)
    54a ->  67a  :     0.027929 (c= -0.16711932)
    54a ->  69a  :     0.055482 (c= -0.23554645)

STATE  9:  E=   0.196065 au      5.335 eV    43031.4 cm**-1 <S**2> =   0.000000
    52a ->  57a  :     0.013077 (c= -0.11435383)
    53a ->  55a  :     0.012390 (c= -0.11130907)
    54a ->  56a  :     0.113795 (c=  0.33733445)
    54a ->  57a  :     0.028018 (c= -0.16738523)
    54a ->  58a  :     0.020748 (c= -0.14404187)
    54a ->  60a  :     0.136331 (c= -0.36923053)
    54a ->  62a  :     0.249509 (c= -0.49950891)
    54a ->  64a  :     0.132083 (c=  0.36343182)
    54a ->  66a  :     0.015293 (c=  0.12366424)
    54a ->  67a  :     0.184513 (c=  0.42955019)

STATE 10:  E=   0.203046 au      5.525 eV    44563.4 cm**-1 <S**2> =   0.000000
    54a ->  56a  :     0.011374 (c= -0.10664804)
    54a ->  57a  :     0.020255 (c= -0.14231952)
    54a ->  60a  :     0.033937 (c= -0.18421940)
    54a ->  61a  :     0.359712 (c=  0.59975974)
    54a ->  62a  :     0.125618 (c= -0.35442599)
    54a ->  63a  :     0.133538 (c=  0.36542824)
    54a ->  64a  :     0.186209 (c= -0.43151883)
    54a ->  67a  :     0.033184 (c= -0.18216592)


-----------------------------
TD-DFT/TDA-EXCITATION SPECTRA
-----------------------------

Center of mass = (  0.1115, -0.0247, -0.0152)
Calculating the Dipole integrals                  ... done
Transforming integrals                            ... done
Calculating the Linear Momentum integrals         ... done
Transforming integrals                            ... done
Calculating angular momentum integrals            ... done
Transforming integrals                            ... done

-----------------------------------------------------------------------------
         ABSORPTION SPECTRUM VIA TRANSITION ELECTRIC DIPOLE MOMENTS
-----------------------------------------------------------------------------
State   Energy    Wavelength  fosc         T2        TX        TY        TZ  
        (cm-1)      (nm)                 (au**2)    (au)      (au)      (au) 
-----------------------------------------------------------------------------
   1   28184.4    354.8   0.394956760   4.61335   2.14126   0.02984   0.16578
   2   34033.5    293.8   0.387030369   3.74381   1.78184   0.59912   0.45816
   3   36038.1    277.5   0.036293818   0.33155   0.49631   0.24671   0.15606
   4   36222.3    276.1   0.033694118   0.30623   0.49201   0.04810   0.24870
   5   40071.7    249.6   0.010947500   0.08994  -0.17105  -0.03303   0.24412
   6   40496.8    246.9   0.012352248   0.10042  -0.16503   0.26988   0.01858
   7   41083.9    243.4   0.065420038   0.52422   0.49971  -0.42116  -0.31167
   8   41907.7    238.6   0.059908405   0.47062  -0.10226   0.58550   0.34257
   9   43031.4    232.4   0.012286770   0.09400   0.08348  -0.29044   0.05175
  10   44563.4    224.4   0.010495063   0.07753  -0.20888  -0.12965   0.13074

-----------------------------------------------------------------------------
         ABSORPTION SPECTRUM VIA TRANSITION VELOCITY DIPOLE MOMENTS
-----------------------------------------------------------------------------
State   Energy    Wavelength   fosc        P2         PX        PY        PZ  
        (cm-1)      (nm)                 (au**2)     (au)      (au)      (au) 
-----------------------------------------------------------------------------
   1   28184.4    354.8   0.067907152   0.01308  -0.10999  -0.02173  -0.02261
   2   34033.5    293.8   0.219016064   0.05094  -0.22236  -0.02232  -0.03162
   3   36038.1    277.5   0.015709521   0.00387  -0.06164  -0.00812  -0.00182
   4   36222.3    276.1   0.017553433   0.00435  -0.06501   0.01091  -0.00028
   5   40071.7    249.6   0.010603968   0.00290   0.02701   0.01286  -0.04483
   6   40496.8    246.9   0.005880098   0.00163   0.02441  -0.03138   0.00683
   7   41083.9    243.4   0.028207243   0.00792  -0.07826   0.03532   0.02339
   8   41907.7    238.6   0.025608713   0.00733   0.03405  -0.06985  -0.03600
   9   43031.4    232.4   0.010458203   0.00308  -0.01630   0.04785  -0.02282
  10   44563.4    224.4   0.008190858   0.00249   0.03503   0.02265  -0.02747

-------------------------------------------------------------------
                             CD SPECTRUM
-------------------------------------------------------------------
State  Energy     Wavelength     R         MX        MY        MZ   
       (cm-1)       (nm)     (1e40*cgs)   (au)      (au)      (au)  
-------------------------------------------------------------------
   1   28184.4    354.8     -6.41094  -0.03044  -0.19791   0.34673
   2   34033.5    293.8     31.25734   0.03114   0.28333  -0.34690
   3   36038.1    277.5    -40.82108  -0.10266  -0.08415  -0.09532
   4   36222.3    276.1     20.29456   0.02687  -0.12843   0.14477
   5   40071.7    249.6     20.57465  -0.02076   0.20134   0.19147
   6   40496.8    246.9     -9.10957   0.12781  -0.00031   0.09971
   7   41083.9    243.4     -1.39583   0.02530   0.17171  -0.18197
   8   41907.7    238.6    -12.75437  -0.01597  -0.07036   0.03651
   9   43031.4    232.4     -5.38313  -0.02852   0.00675  -0.13675
  10   44563.4    224.4      3.86617  -0.07384   0.04625  -0.00939

-------------------------------------------------------------------
         CD SPECTRUM VIA TRANSITION VELOCITY DIPOLE MOMENTS        
-------------------------------------------------------------------
State  Energy     Wavelength     R         MX        MY        MZ   
       (cm-1)       (nm)     (1e40*cgs)   (au)      (au)      (au)  
-------------------------------------------------------------------
   1   28184.4    354.8     -0.70876  -0.03044  -0.19791   0.34673
   2   34033.5    293.8     -6.92486   0.03114   0.28333  -0.34690
   3   36038.1    277.5     20.62960  -0.10266  -0.08415  -0.09532
   4   36222.3    276.1     -9.10906   0.02687  -0.12843   0.14477
   5   40071.7    249.6    -16.92311  -0.02076   0.20134   0.19147
   6   40496.8    246.9      9.73794   0.12781  -0.00031   0.09971
   7   41083.9    243.4     -0.43188   0.02530   0.17171  -0.18197
   8   41907.7    238.6      7.54633  -0.01597  -0.07036   0.03651
   9   43031.4    232.4      9.39883  -0.02852   0.00675  -0.13675
  10   44563.4    224.4     -2.97389  -0.07384   0.04625  -0.00939

Total run time:     2483.879 sec

           *** ORCA-CIS/TD-DFT FINISHED WITHOUT ERROR ***

Maximum memory used throughout the entire CIS-calculation: 784.6 MB

-----------------------
CIS/TD-DFT TOTAL ENERGY
-----------------------

    E(SCF)  =   -649.058603935 Eh
    DE(CIS) =      0.128417646 Eh (Root  1)
    ----------------------------- ---------
    E(tot)  =   -648.930186289 Eh



-------------------------------------------------------------------------------
                          DFT DISPERSION CORRECTION                            
                                                                               
                              DFTD3 V3.1  Rev 1                                
                          USING Becke-Johnson damping                          
-------------------------------------------------------------------------------
The B2PLYP functional is recognized
Active option DFTDOPT                   ...         4   

molecular C6(AA) [au] = 9615.875002 


            DFT-D V3
 parameters
 s6 scaling factor         :     0.6400 
 a1 scaling factor         :     0.3065 
 s8 scaling factor         :     0.9147 
 a2 scaling factor         :     5.0570 
 ad hoc parameters k1-k3   :    16.0000     1.3333    -4.0000 

 Edisp/kcal,au: -17.554534217514  -0.027974927982 
 E6   /kcal   :  -9.820471193 
 E8   /kcal   :  -7.734063025 
 % E8         :  44.057352527 

-------------------------   ----------------
Dispersion correction           -0.027974928
-------------------------   ----------------


-------------------------   --------------------
FINAL SINGLE POINT ENERGY      -648.958161217078
-------------------------   --------------------


                            ***************************************
                            *     ORCA property calculations      *
                            ***************************************


  WARNING: The energy has been calculated at the MP2 level but the densities
           used in the property calculations are still SCF densities
           MP2 response densities have not been calculated 
           use %mp2 Density relaxed end
           or  %mp2 Density unrelaxed end

                                    ---------------------
                                    Active property flags
                                    ---------------------
   (+) Dipole Moment


------------------------------------------------------------------------------
                       ORCA ELECTRIC PROPERTIES CALCULATION
------------------------------------------------------------------------------

Dipole Moment Calculation                       ... on
Quadrupole Moment Calculation                   ... off
Polarizability Calculation                      ... off
GBWName                                         ... optpbed3-b2plyp-train-16_job2.gbw
Electron density                                ... optpbed3-b2plyp-train-16_job2.scfp
The origin for moment calculation is the CENTER OF MASS  = ( 0.111460, -0.024744 -0.015246)

-------------
DIPOLE MOMENT
-------------
                                X             Y             Z
Electronic contribution:      0.16773      -1.32900      -0.89055
Nuclear contribution   :     -2.09842       0.69020       0.39379
                        -----------------------------------------
Total Dipole Moment    :     -1.93070      -0.63880      -0.49676
                        -----------------------------------------
Magnitude (a.u.)       :      2.09343
Magnitude (Debye)      :      5.32107



--------------------
Rotational spectrum 
--------------------
 
Rotational constants in cm-1:     0.037282     0.011952     0.009213 
Rotational constants in MHz :  1117.691806   358.297567   276.187241 

 Dipole components along the rotational axes: 
x,y,z [a.u.] :    -1.926796    -0.813479     0.090256 
x,y,z [Debye]:    -4.897526    -2.067698     0.229412 

 

Timings for individual modules:

Sum of individual times         ...     3664.677 sec (=  61.078 min)
GTO integral calculation        ...        3.868 sec (=   0.064 min)   0.1 %
SCF iterations                  ...      680.031 sec (=  11.334 min)  18.6 %
MP2 module                      ...      496.180 sec (=   8.270 min)  13.5 %
CIS module                      ...     2484.598 sec (=  41.410 min)  67.8 %



                             ****ORCA TERMINATED NORMALLY****
TOTAL RUN TIME: 0 days 2 hours 11 minutes 48 seconds 406 msec
