
                                 *****************
                                 * O   R   C   A *
                                 *****************

                                            #,                                       
                                            ###                                      
                                            ####                                     
                                            #####                                    
                                            ######                                   
                                           ########,                                 
                                     ,,################,,,,,                         
                               ,,#################################,,                 
                          ,,##########################################,,             
                       ,#########################################, ''#####,          
                    ,#############################################,,   '####,        
                  ,##################################################,,,,####,       
                ,###########''''           ''''###############################       
              ,#####''   ,,,,##########,,,,          '''####'''          '####       
            ,##' ,,,,###########################,,,                        '##       
           ' ,,###''''                  '''############,,,                           
         ,,##''                                '''############,,,,        ,,,,,,###''
      ,#''                                            '''#######################'''  
     '                                                          ''''####''''         
             ,#######,   #######,   ,#######,      ##                                
            ,#'     '#,  ##    ##  ,#'     '#,    #''#        ######   ,####,        
            ##       ##  ##   ,#'  ##            #'  '#       #        #'  '#        
            ##       ##  #######   ##           ,######,      #####,   #    #        
            '#,     ,#'  ##    ##  '#,     ,#' ,#      #,         ##   #,  ,#        
             '#######'   ##     ##  '#######'  #'      '#     #####' # '####'        



                  #######################################################
                  #                        -***-                        #
                  #          Department of theory and spectroscopy      #
                  #    Directorship and core code : Frank Neese         #
                  #        Max Planck Institute fuer Kohlenforschung    #
                  #                Kaiser Wilhelm Platz 1               #
                  #                 D-45470 Muelheim/Ruhr               #
                  #                      Germany                        #
                  #                                                     #
                  #                  All rights reserved                #
                  #                        -***-                        #
                  #######################################################


                         Program Version 5.0.2 -  RELEASE  -


 With contributions from (in alphabetic order):
   Daniel Aravena         : Magnetic Suceptibility
   Michael Atanasov       : Ab Initio Ligand Field Theory (pilot matlab implementation)
   Alexander A. Auer      : GIAO ZORA, VPT2 properties, NMR spectrum
   Ute Becker             : Parallelization
   Giovanni Bistoni       : ED, misc. LED, open-shell LED, HFLD
   Martin Brehm           : Molecular dynamics
   Dmytro Bykov           : SCF Hessian
   Vijay G. Chilkuri      : MRCI spin determinant printing, contributions to CSF-ICE
   Dipayan Datta          : RHF DLPNO-CCSD density
   Achintya Kumar Dutta   : EOM-CC, STEOM-CC
   Dmitry Ganyushin       : Spin-Orbit,Spin-Spin,Magnetic field MRCI
   Miquel Garcia          : C-PCM and meta-GGA Hessian, CC/C-PCM, Gaussian charge scheme
   Yang Guo               : DLPNO-NEVPT2, F12-NEVPT2, CIM, IAO-localization
   Andreas Hansen         : Spin unrestricted coupled pair/coupled cluster methods
   Benjamin Helmich-Paris : MC-RPA, TRAH-SCF, COSX integrals
   Lee Huntington         : MR-EOM, pCC
   Robert Izsak           : Overlap fitted RIJCOSX, COSX-SCS-MP3, EOM
   Marcus Kettner         : VPT2
   Christian Kollmar      : KDIIS, OOCD, Brueckner-CCSD(T), CCSD density, CASPT2, CASPT2-K
   Simone Kossmann        : Meta GGA functionals, TD-DFT gradient, OOMP2, MP2 Hessian
   Martin Krupicka        : Initial AUTO-CI
   Lucas Lang             : DCDCAS
   Marvin Lechner         : AUTO-CI (C++ implementation), FIC-MRCC
   Dagmar Lenk            : GEPOL surface, SMD
   Dimitrios Liakos       : Extrapolation schemes; Compound Job, initial MDCI parallelization
   Dimitrios Manganas     : Further ROCIS development; embedding schemes
   Dimitrios Pantazis     : SARC Basis sets
   Anastasios Papadopoulos: AUTO-CI, single reference methods and gradients
   Taras Petrenko         : DFT Hessian,TD-DFT gradient, ASA, ECA, R-Raman, ABS, FL, XAS/XES, NRVS
   Peter Pinski           : DLPNO-MP2, DLPNO-MP2 Gradient
   Christoph Reimann      : Effective Core Potentials
   Marius Retegan         : Local ZFS, SOC
   Christoph Riplinger    : Optimizer, TS searches, QM/MM, DLPNO-CCSD(T), (RO)-DLPNO pert. Triples
   Tobias Risthaus        : Range-separated hybrids, TD-DFT gradient, RPA, STAB
   Michael Roemelt        : Original ROCIS implementation
   Masaaki Saitow         : Open-shell DLPNO-CCSD energy and density
   Barbara Sandhoefer     : DKH picture change effects
   Avijit Sen             : IP-ROCIS
   Kantharuban Sivalingam : CASSCF convergence, NEVPT2, FIC-MRCI
   Bernardo de Souza      : ESD, SOC TD-DFT
   Georgi Stoychev        : AutoAux, RI-MP2 NMR, DLPNO-MP2 response
   Willem Van den Heuvel  : Paramagnetic NMR
   Boris Wezisla          : Elementary symmetry handling
   Frank Wennmohs         : Technical directorship


 We gratefully acknowledge several colleagues who have allowed us to
 interface, adapt or use parts of their codes:
   Stefan Grimme, W. Hujo, H. Kruse, P. Pracht,  : VdW corrections, initial TS optimization,
                  C. Bannwarth, S. Ehlert          DFT functionals, gCP, sTDA/sTD-DF
   Ed Valeev, F. Pavosevic, A. Kumar             : LibInt (2-el integral package), F12 methods
   Garnet Chan, S. Sharma, J. Yang, R. Olivares  : DMRG
   Ulf Ekstrom                                   : XCFun DFT Library
   Mihaly Kallay                                 : mrcc  (arbitrary order and MRCC methods)
   Jiri Pittner, Ondrej Demel                    : Mk-CCSD
   Frank Weinhold                                : gennbo (NPA and NBO analysis)
   Christopher J. Cramer and Donald G. Truhlar   : smd solvation model
   Lars Goerigk                                  : TD-DFT with DH, B97 family of functionals
   V. Asgeirsson, H. Jonsson                     : NEB implementation
   FAccTs GmbH                                   : IRC, NEB, NEB-TS, DLPNO-Multilevel, CI-OPT
                                                   MM, QMMM, 2- and 3-layer-ONIOM, Crystal-QMMM,
                                                   LR-CPCM, SF, NACMEs, symmetry and pop. for TD-DFT,
                                                   nearIR, NL-DFT gradient (VV10), updates on ESD,
                                                   ML-optimized integration grids
   S Lehtola, MJT Oliveira, MAL Marques          : LibXC Library
   Liviu Ungur et al                             : ANISO software


 Your calculation uses the libint2 library for the computation of 2-el integrals
 For citations please refer to: http://libint.valeyev.net

 Your ORCA version has been built with support for libXC version: 5.1.0
 For citations please refer to: https://tddft.org/programs/libxc/

 This ORCA versions uses:
   CBLAS   interface :  Fast vector & matrix operations
   LAPACKE interface :  Fast linear algebra routines
   SCALAPACK package :  Parallel linear algebra routines
   Shared memory     :  Shared parallel matrices
   BLAS/LAPACK       :  OpenBLAS 0.3.15  USE64BITINT DYNAMIC_ARCH NO_AFFINITY Sandybridge SINGLE_THREADED
        Core in use  :  Sandybridge
   Copyright (c) 2011-2014, The OpenBLAS Project


Your calculation utilizes the atom-pairwise dispersion correction
with the Becke-Johnson damping scheme (D3BJ)
Cite in your paper:
S.Grimme, S.Ehrlich, L.Goerigk, J Comput Chem, (2011), 32, 1456–1465 
S.Grimme, J.Antony, S.Ehrlich and H.Krieg, J.Chem.Phys., 132, (2010), 154104 
   

Your calculation utilizes the SMD solvation module
Please cite in your paper:
A.V. Marenich, C.J. Cramer, D.G. Truhlar J. Phys. Chem. B, 113, (2009), 6378 

================================================================================

----- Orbital basis set information -----
Your calculation utilizes the basis: aug-cc-pVTZ 
    H, B-Ne : Obtained from the ccRepo (grant-hill.group.shef.ac.uk/ccrepo) Feb. 2017
              R. A. Kendall, T. H. Dunning, Jr., R. J. Harrison, J. Chem. Phys. 96, 6796 (1992)
         He : Obtained from the ccRepo (grant-hill.group.shef.ac.uk/ccrepo) Feb. 2017
              D. E. Woon, T. H. Dunning, Jr., J. Chem. Phys. 100, 2975 (1994)
  Li-Be, Na : Obtained from the ccRepo (grant-hill.group.shef.ac.uk/ccrepo) Feb. 2017
              B. P. Prascher, D. E. Woon, K. A. Peterson, T. H. Dunning, Jr., A. K. Wilson, Theor. Chem. Acc. 128, 69 (2011)
         Mg : Obtained from the Peterson Research Group Website (tyr0.chem.wsu.edu/~kipeters) Feb. 2017
              B. P. Prascher, D. E. Woon, K. A. Peterson, T. H. Dunning, Jr., A. K. Wilson, Theor. Chem. Acc. 128, 69 (2011)
      Al-Ar : Obtained from the ccRepo (grant-hill.group.shef.ac.uk/ccrepo) Feb. 2017
              D. E. Woon, T. H. Dunning, Jr., J. Chem. Phys. 98, 1358 (1993)
      Sc-Zn : Obtained from the ccRepo (grant-hill.group.shef.ac.uk/ccrepo) Feb. 2017
              N. B. Balabanov, K. A. Peterson, J. Chem. Phys. 123, 064107 (2005)
              N. B. Balabanov, K. A. Peterson, J. Chem. Phys. 125, 074110 (2006)
      Ga-Kr : Obtained from the ccRepo (grant-hill.group.shef.ac.uk/ccrepo) Feb. 2017
              A. K. Wilson, D. E. Woon, K. A. Peterson, T. H. Dunning, Jr., J. Chem. Phys. 110, 7667 (1999)
     Ag, Au : Obtained from the Peterson Research Group Website (tyr0.chem.wsu.edu/~kipeters) Feb. 2017
              K. A. Peterson, C. Puzzarini, Theor. Chem. Acc. 114, 283 (2005)

The basis set includes element-specific modifications.

Your calculation utilizes the basis: cc-pVTZ 
       H, B-Ne : Obtained from the ccRepo (grant-hill.group.shef.ac.uk/ccrepo) Feb. 2017
                 T. H. Dunning, Jr., J. Chem. Phys. 90, 1007 (1989)
            He : Obtained from the ccRepo (grant-hill.group.shef.ac.uk/ccrepo) Feb. 2017
                 D. E. Woon, T. H. Dunning, Jr., J. Chem. Phys. 100, 2975 (1994)
  Li-Be, Na-Mg : Obtained from the ccRepo (grant-hill.group.shef.ac.uk/ccrepo) Feb. 2017
                 B. P. Prascher, D. E. Woon, K. A. Peterson, T. H. Dunning, Jr., A. K. Wilson, Theor. Chem. Acc. 128, 69 (2011)
         Al-Ar : Obtained from the ccRepo (grant-hill.group.shef.ac.uk/ccrepo) Feb. 2017
                 D. E. Woon, T. H. Dunning, Jr., J. Chem. Phys. 98, 1358 (1993)
            Ca : Obtained from the Peterson Research Group Website (tyr0.chem.wsu.edu/~kipeters) Feb. 2017
                 J. Koput, K. A. Peterson, J. Phys. Chem. 106, 9595 (2002)
         Sc-Zn : Obtained from the ccRepo (grant-hill.group.shef.ac.uk/ccrepo) Feb. 2017
                 N. B. Balabanov, K. A. Peterson, J. Chem. Phys. 123, 064107 (2005)
                 N. B. Balabanov, K. A. Peterson, J. Chem. Phys. 125, 074110 (2006)
         Ga-Kr : Obtained from the ccRepo (grant-hill.group.shef.ac.uk/ccrepo) Feb. 2017
                 A. K. Wilson, D. E. Woon, K. A. Peterson, T. H. Dunning, Jr., J. Chem. Phys. 110, 7667 (1999)
             Y : Obtained from the ccRepo (grant-hill.group.shef.ac.uk/ccrepo) Feb. 2017
                 K. A. Peterson, D. Figgen, M. Dolg, H. Stoll, J. Chem. Phys. 126, 124101 (2007)
        Ag, Au : Obtained from the Peterson Research Group Website (tyr0.chem.wsu.edu/~kipeters) Feb. 2017
                 K. A. Peterson, C. Puzzarini, Theor. Chem. Acc. 114, 283 (2005)

----- AuxJ basis set information -----
Your calculation utilizes the auxiliary basis: aug-cc-pVTZ/JK 
  H, B-F, Al-Cl, Ga-Br : Obtained from the TURBOMOLE 7.0 basis set library

The basis set includes element-specific modifications.

Your calculation utilizes the auxiliary basis: cc-pVTZ/JK 
  H, B-F, Al-Cl, Ga-Br : Obtained from the TURBOMOLE 7.0 basis set library

----- AuxC basis set information -----
Your calculation utilizes the auxiliary basis: aug-cc-pVTZ/C 
  H-He, B-F, Al-Ar, Ga-Kr : Obtained from the EMSL Basis Set Exchange (bse.pnl.gov) Feb. 2017
                            F. Weigend, A. Kohn, C. Hattig, J. Chem. Phys. 116, 3175 (2002)
                   Be, Mg : Obtained from the TURBOMOLE 7.0 basis set library
                            C. Haettig, Phys. Chem. Chem. Phys. 7, 59 (2005)
                       Ne : Obtained from the EMSL Basis Set Exchange (bse.pnl.gov) Feb. 2017
                            C. Haettig, Phys. Chem. Chem. Phys. 7, 59 (2005)
                            F. Weigend, A. Kohn, C. Hattig, J. Chem. Phys. 116, 3175 (2002)
                    Sc-Zn : Obtained from the EMSL Basis Set Exchange (bse.pnl.gov) Feb. 2017
                            J. G. Hill, J. A. Platts, J. Chem. Phys. 128, 044104 (2008)

The basis set includes element-specific modifications.

Your calculation utilizes the auxiliary basis: cc-pVTZ/C 
  Obtained from the EMSL Basis Set Exchange (bse.pnl.gov) Feb. 2017
  H-He, B-F, Al-Ar, Ga-Kr : F. Weigend, A. Kohn, C. Hattig, J. Chem. Phys. 116, 3175 (2002)
             Li-Be, Na-Mg : C. Haettig, Phys. Chem. Chem. Phys. 7, 59 (2005)
                       Ne : C. Haettig, Phys. Chem. Chem. Phys. 7, 59 (2005)
                            F. Weigend, A. Kohn, C. Hattig, J. Chem. Phys. 116, 3175 (2002)
                    Sc-Zn : J. G. Hill, J. A. Platts, J. Chem. Phys. 128, 044104 (2008)

================================================================================
                                        WARNINGS
                       Please study these warnings very carefully!
================================================================================


WARNING: Geometry Optimization
  ===> : Switching off AutoStart
         For restart on a previous wavefunction, please use MOREAD

INFO   : the flag for use of the SHARK integral package has been found!



***************************************
The coordinates will be read from file: 
***************************************


Your calculation utilizes the atom-pairwise dispersion correction
with the Becke-Johnson damping scheme (D3BJ)
Cite in your paper:
S.Grimme, S.Ehrlich, L.Goerigk, J Comput Chem, (2011), 32, 1456–1465 
S.Grimme, J.Antony, S.Ehrlich and H.Krieg, J.Chem.Phys., 132, (2010), 154104 
   

Your calculation utilizes the SMD solvation module
Please cite in your paper:
A.V. Marenich, C.J. Cramer, D.G. Truhlar J. Phys. Chem. B, 113, (2009), 6378 

================================================================================

----- Orbital basis set information -----
Your calculation utilizes the basis: aug-cc-pVTZ 
    H, B-Ne : Obtained from the ccRepo (grant-hill.group.shef.ac.uk/ccrepo) Feb. 2017
              R. A. Kendall, T. H. Dunning, Jr., R. J. Harrison, J. Chem. Phys. 96, 6796 (1992)
         He : Obtained from the ccRepo (grant-hill.group.shef.ac.uk/ccrepo) Feb. 2017
              D. E. Woon, T. H. Dunning, Jr., J. Chem. Phys. 100, 2975 (1994)
  Li-Be, Na : Obtained from the ccRepo (grant-hill.group.shef.ac.uk/ccrepo) Feb. 2017
              B. P. Prascher, D. E. Woon, K. A. Peterson, T. H. Dunning, Jr., A. K. Wilson, Theor. Chem. Acc. 128, 69 (2011)
         Mg : Obtained from the Peterson Research Group Website (tyr0.chem.wsu.edu/~kipeters) Feb. 2017
              B. P. Prascher, D. E. Woon, K. A. Peterson, T. H. Dunning, Jr., A. K. Wilson, Theor. Chem. Acc. 128, 69 (2011)
      Al-Ar : Obtained from the ccRepo (grant-hill.group.shef.ac.uk/ccrepo) Feb. 2017
              D. E. Woon, T. H. Dunning, Jr., J. Chem. Phys. 98, 1358 (1993)
      Sc-Zn : Obtained from the ccRepo (grant-hill.group.shef.ac.uk/ccrepo) Feb. 2017
              N. B. Balabanov, K. A. Peterson, J. Chem. Phys. 123, 064107 (2005)
              N. B. Balabanov, K. A. Peterson, J. Chem. Phys. 125, 074110 (2006)
      Ga-Kr : Obtained from the ccRepo (grant-hill.group.shef.ac.uk/ccrepo) Feb. 2017
              A. K. Wilson, D. E. Woon, K. A. Peterson, T. H. Dunning, Jr., J. Chem. Phys. 110, 7667 (1999)
     Ag, Au : Obtained from the Peterson Research Group Website (tyr0.chem.wsu.edu/~kipeters) Feb. 2017
              K. A. Peterson, C. Puzzarini, Theor. Chem. Acc. 114, 283 (2005)

The basis set includes element-specific modifications.

Your calculation utilizes the basis: cc-pVTZ 
       H, B-Ne : Obtained from the ccRepo (grant-hill.group.shef.ac.uk/ccrepo) Feb. 2017
                 T. H. Dunning, Jr., J. Chem. Phys. 90, 1007 (1989)
            He : Obtained from the ccRepo (grant-hill.group.shef.ac.uk/ccrepo) Feb. 2017
                 D. E. Woon, T. H. Dunning, Jr., J. Chem. Phys. 100, 2975 (1994)
  Li-Be, Na-Mg : Obtained from the ccRepo (grant-hill.group.shef.ac.uk/ccrepo) Feb. 2017
                 B. P. Prascher, D. E. Woon, K. A. Peterson, T. H. Dunning, Jr., A. K. Wilson, Theor. Chem. Acc. 128, 69 (2011)
         Al-Ar : Obtained from the ccRepo (grant-hill.group.shef.ac.uk/ccrepo) Feb. 2017
                 D. E. Woon, T. H. Dunning, Jr., J. Chem. Phys. 98, 1358 (1993)
            Ca : Obtained from the Peterson Research Group Website (tyr0.chem.wsu.edu/~kipeters) Feb. 2017
                 J. Koput, K. A. Peterson, J. Phys. Chem. 106, 9595 (2002)
         Sc-Zn : Obtained from the ccRepo (grant-hill.group.shef.ac.uk/ccrepo) Feb. 2017
                 N. B. Balabanov, K. A. Peterson, J. Chem. Phys. 123, 064107 (2005)
                 N. B. Balabanov, K. A. Peterson, J. Chem. Phys. 125, 074110 (2006)
         Ga-Kr : Obtained from the ccRepo (grant-hill.group.shef.ac.uk/ccrepo) Feb. 2017
                 A. K. Wilson, D. E. Woon, K. A. Peterson, T. H. Dunning, Jr., J. Chem. Phys. 110, 7667 (1999)
             Y : Obtained from the ccRepo (grant-hill.group.shef.ac.uk/ccrepo) Feb. 2017
                 K. A. Peterson, D. Figgen, M. Dolg, H. Stoll, J. Chem. Phys. 126, 124101 (2007)
        Ag, Au : Obtained from the Peterson Research Group Website (tyr0.chem.wsu.edu/~kipeters) Feb. 2017
                 K. A. Peterson, C. Puzzarini, Theor. Chem. Acc. 114, 283 (2005)

----- AuxJ basis set information -----
Your calculation utilizes the auxiliary basis: aug-cc-pVTZ/JK 
  H, B-F, Al-Cl, Ga-Br : Obtained from the TURBOMOLE 7.0 basis set library

The basis set includes element-specific modifications.

Your calculation utilizes the auxiliary basis: cc-pVTZ/JK 
  H, B-F, Al-Cl, Ga-Br : Obtained from the TURBOMOLE 7.0 basis set library

----- AuxC basis set information -----
Your calculation utilizes the auxiliary basis: aug-cc-pVTZ/C 
  H-He, B-F, Al-Ar, Ga-Kr : Obtained from the EMSL Basis Set Exchange (bse.pnl.gov) Feb. 2017
                            F. Weigend, A. Kohn, C. Hattig, J. Chem. Phys. 116, 3175 (2002)
                   Be, Mg : Obtained from the TURBOMOLE 7.0 basis set library
                            C. Haettig, Phys. Chem. Chem. Phys. 7, 59 (2005)
                       Ne : Obtained from the EMSL Basis Set Exchange (bse.pnl.gov) Feb. 2017
                            C. Haettig, Phys. Chem. Chem. Phys. 7, 59 (2005)
                            F. Weigend, A. Kohn, C. Hattig, J. Chem. Phys. 116, 3175 (2002)
                    Sc-Zn : Obtained from the EMSL Basis Set Exchange (bse.pnl.gov) Feb. 2017
                            J. G. Hill, J. A. Platts, J. Chem. Phys. 128, 044104 (2008)

The basis set includes element-specific modifications.

Your calculation utilizes the auxiliary basis: cc-pVTZ/C 
  Obtained from the EMSL Basis Set Exchange (bse.pnl.gov) Feb. 2017
  H-He, B-F, Al-Ar, Ga-Kr : F. Weigend, A. Kohn, C. Hattig, J. Chem. Phys. 116, 3175 (2002)
             Li-Be, Na-Mg : C. Haettig, Phys. Chem. Chem. Phys. 7, 59 (2005)
                       Ne : C. Haettig, Phys. Chem. Chem. Phys. 7, 59 (2005)
                            F. Weigend, A. Kohn, C. Hattig, J. Chem. Phys. 116, 3175 (2002)
                    Sc-Zn : J. G. Hill, J. A. Platts, J. Chem. Phys. 128, 044104 (2008)

================================================================================
                                        WARNINGS
                       Please study these warnings very carefully!
================================================================================

INFO   : Checking CIS options ...
  ===> : (D) CORRECTION FOUND - SETTING MODE=3
  ===> : JK MODE FOUND - ACTIVATING RI-MP2 CODE
  ===> : MP2 AND CIS FOUND - CHECKING
WARNING: CIS(D) and MP2 runs must have the same orbital window
  ===> : adjusting orbital windows

WARNING: No MP2 level density has been requested!
         To caclulate MP2 level properties use
         %mp2 Density relaxed end
         or
         %mp2 Density unrelaxed end
         Otherwise for double-hybrid DFT only the energy is correct!

WARNING: The frozen-core approximation is turned on by default for 
         the MP2 part of double-hybrid DFT.

INFO   : the flag for use of the SHARK integral package has been found!

================================================================================
                                       INPUT FILE
================================================================================
NAME = optpbed3-b2gp-plyp-train-16.inp
|  1> ! pbe0 d3bj aug-cc-PVTZ RIJCOSX Opt
|  2> %maxcore 4000
|  3> %basis
|  4>  AuxJ "aug-cc-PVTZ/JK"
|  5>  AuxC "aug-cc-PVTZ/C"
|  6>  newGTO H "cc-PVTZ" end
|  7>  newAuxJGTO H "cc-PVTZ/JK" end
|  8>  newAuxCGTO H "cc-PVTZ/C" end
|  9> end
| 10> %cpcm
| 11>  SMD true
| 12>  SMDsolvent "dichloromethane"
| 13> end
| 14> %pal nprocs 4 end
| 15> * xyz 0 1
| 16> C         -2.42590        2.44530        1.32870
| 17> C         -1.53060        1.40970        0.75600
| 18> N         -0.22420        1.39910        0.85070
| 19> C          0.23760        0.30770        0.18880
| 20> C          1.66070        0.03280        0.11160
| 21> C          2.22290       -0.69570       -0.93590
| 22> C          3.58340       -0.93750       -0.96820
| 23> C          4.40530       -0.45170        0.03490
| 24> C          3.85890        0.29320        1.06810
| 25> C          2.50060        0.53550        1.10660
| 26> C         -0.84840       -0.40410       -0.32620
| 27> C         -1.04630       -1.61470       -1.01420
| 28> C         -2.30990       -2.01210       -1.33370
| 29> C         -3.42320       -1.21070       -0.97010
| 30> C         -3.24010       -0.05980       -0.28070
| 31> N         -1.97810        0.33520        0.05040
| 32> H         -3.12110        2.00510        2.04440
| 33> H         -1.81580        3.18530        1.83680
| 34> H         -3.00160        2.93770        0.54440
| 35> H          1.59870       -1.04840       -1.74300
| 36> H          4.00740       -1.50310       -1.78600
| 37> H          5.46780       -0.64500        0.00630
| 38> H          4.49780        0.68450        1.84690
| 39> H          2.06160        1.11650        1.90270
| 40> H         -0.19020       -2.21980       -1.26340
| 41> H         -2.47940       -2.93840       -1.85910
| 42> H         -4.41940       -1.52640       -1.23400
| 43> H         -4.04840        0.57990        0.03740
| 44> *
| 45> 
| 46> 
| 47> $new_job
| 48> ! b2gp-plyp aug-cc-PVTZ RIJCOSX SP
| 49> %maxcore 4000
| 50> %basis
| 51>  AuxJ "aug-cc-PVTZ/JK"
| 52>  AuxC "aug-cc-PVTZ/C"
| 53>  newGTO H "cc-PVTZ" end
| 54>  newAuxJGTO H "cc-PVTZ/JK" end
| 55>  newAuxCGTO H "cc-PVTZ/C" end
| 56> end
| 57> %cpcm
| 58>  SMD true
| 59>  SMDsolvent "dichloromethane"
| 60> end
| 61> %pal nprocs 4 end
| 62> %tddft
| 63>  nroots 10
| 64>  maxdim 7
| 65> end
| 66> * xyzfile 0 1
| 67> 
| 68>                          ****END OF INPUT****
================================================================================


                 $$$$$$$$$$$$$$$$$$$$$$$$$$$$$$$$$$$$$$$$$$$$$$ 
                 $ THERE ARE  2 JOBS TO BE PROCESSED THIS RUN $
                 $$$$$$$$$$$$$$$$$$$$$$$$$$$$$$$$$$$$$$$$$$$$$$ 




                 $$$$$$$$$$$$$$$$  JOB NUMBER  1 $$$$$$$$$$$$$$


                       *****************************
                       * Geometry Optimization Run *
                       *****************************

Geometry optimization settings:
Update method            Update   .... BFGS
Choice of coordinates    CoordSys .... Z-matrix Internals
Initial Hessian          InHess   .... Almoef's Model

Convergence Tolerances:
Energy Change            TolE     ....  5.0000e-06 Eh
Max. Gradient            TolMAXG  ....  3.0000e-04 Eh/bohr
RMS Gradient             TolRMSG  ....  1.0000e-04 Eh/bohr
Max. Displacement        TolMAXD  ....  4.0000e-03 bohr
RMS Displacement         TolRMSD  ....  2.0000e-03 bohr
Strict Convergence                ....  False
------------------------------------------------------------------------------
                        ORCA OPTIMIZATION COORDINATE SETUP
------------------------------------------------------------------------------

The optimization will be done in new redundant internal coordinates
Making redundant internal coordinates   ...  (new redundants) done
Evaluating the initial hessian          ...  (Almloef) done
Evaluating the coordinates              ...  done
Calculating the B-matrix                .... done
Calculating the G-matrix                .... done
Diagonalizing the G-matrix              .... done
Small eigenvalue found = 7.428e-03
Small eigenvalue found = 2.903e-02
The first mode is                       ....   71
The number of degrees of freedom        ....   78

    -----------------------------------------------------------------
                    Redundant Internal Coordinates


    -----------------------------------------------------------------
         Definition                    Initial Value    Approx d2E/dq
    -----------------------------------------------------------------
      1. B(C   1,C   0)                  1.4839         0.442484   
      2. B(N   2,C   1)                  1.3099         0.751133   
      3. B(C   3,N   2)                  1.3574         0.630801   
      4. B(C   4,C   3)                  1.4515         0.498516   
      5. B(C   5,C   4)                  1.3943         0.615033   
      6. B(C   6,C   5)                  1.3822         0.642964   
      7. B(C   7,C   6)                  1.3848         0.636796   
      8. B(C   8,C   7)                  1.3860         0.634100   
      9. B(C   9,C   8)                  1.3803         0.647512   
     10. B(C   9,C   4)                  1.3958         0.611700   
     11. B(C  10,C   3)                  1.3969         0.609198   
     12. B(C  11,C  10)                  1.4064         0.588189   
     13. B(C  12,C  11)                  1.3626         0.690949   
     14. B(C  13,C  12)                  1.4191         0.561422   
     15. B(C  14,C  13)                  1.3540         0.713088   
     16. B(N  15,C  14)                  1.3632         0.617510   
     17. B(N  15,C  10)                  1.4016         0.536159   
     18. B(N  15,C   1)                  1.3611         0.622206   
     19. B(H  16,C   0)                  1.0906         0.359369   
     20. B(H  17,C   0)                  1.0854         0.366302   
     21. B(H  18,C   0)                  1.0904         0.359545   
     22. B(H  19,C   5)                  1.0796         0.374190   
     23. B(H  20,C   6)                  1.0810         0.372259   
     24. B(H  21,C   7)                  1.0803         0.373137   
     25. B(H  22,C   8)                  1.0807         0.372662   
     26. B(H  23,C   9)                  1.0789         0.375067   
     27. B(H  24,C  11)                  1.0776         0.376927   
     28. B(H  25,C  12)                  1.0783         0.375866   
     29. B(H  26,C  13)                  1.0778         0.376560   
     30. B(H  27,C  14)                  1.0788         0.375262   
     31. A(C   1,C   0,H  16)          110.8665         0.333398   
     32. A(H  16,C   0,H  17)          109.0455         0.291528   
     33. A(H  17,C   0,H  18)          109.0028         0.291550   
     34. A(H  16,C   0,H  18)          108.5267         0.290676   
     35. A(C   1,C   0,H  18)          110.8602         0.333425   
     36. A(C   1,C   0,H  17)          108.5025         0.334457   
     37. A(C   0,C   1,N   2)          125.4141         0.420143   
     38. A(C   0,C   1,N  15)          123.5475         0.406326   
     39. A(N   2,C   1,N  15)          111.0382         0.443759   
     40. A(C   1,N   2,C   3)          108.0931         0.444863   
     41. A(C   4,C   3,C  10)          130.2509         0.416143   
     42. A(N   2,C   3,C   4)          120.7824         0.416020   
     43. A(N   2,C   3,C  10)          108.9650         0.431203   
     44. A(C   5,C   4,C   9)          118.7579         0.432389   
     45. A(C   3,C   4,C   5)          122.2933         0.416849   
     46. A(C   3,C   4,C   9)          118.9379         0.416446   
     47. A(C   6,C   5,H  19)          119.6368         0.357412   
     48. A(C   4,C   5,C   6)          120.3876         0.436285   
     49. A(C   4,C   5,H  19)          119.9495         0.354727   
     50. A(C   5,C   6,C   7)          120.3906         0.439029   
     51. A(C   7,C   6,H  20)          119.9182         0.356513   
     52. A(C   5,C   6,H  20)          119.6896         0.357098   
     53. A(C   6,C   7,C   8)          119.6395         0.437931   
     54. A(C   8,C   7,H  21)          120.2407         0.356399   
     55. A(C   6,C   7,H  21)          120.1173         0.356656   
     56. A(C   7,C   8,C   9)          120.2051         0.439252   
     57. A(C   9,C   8,H  22)          119.8764         0.357592   
     58. A(C   7,C   8,H  22)          119.9184         0.356322   
     59. A(C   4,C   9,C   8)          120.6011         0.436412   
     60. A(C   8,C   9,H  23)          121.0325         0.357983   
     61. A(C   4,C   9,H  23)          118.3664         0.354541   
     62. A(C   3,C  10,C  11)          136.7487         0.428623   
     63. A(C   3,C  10,N  15)          104.9976         0.418841   
     64. A(C  11,C  10,N  15)          118.1663         0.416231   
     65. A(C  10,C  11,C  12)          119.7506         0.438442   
     66. A(C  12,C  11,H  24)          121.2485         0.362271   
     67. A(C  10,C  11,H  24)          118.9921         0.352491   
     68. A(C  13,C  12,H  25)          119.1188         0.349562   
     69. A(C  11,C  12,H  25)          120.6997         0.362097   
     70. A(C  11,C  12,C  13)          120.1806         0.434777   
     71. A(C  14,C  13,H  26)          119.9081         0.364168   
     72. A(C  12,C  13,H  26)          119.7982         0.349671   
     73. A(C  12,C  13,C  14)          120.2896         0.437255   
     74. A(N  15,C  14,H  27)          116.7572         0.352951   
     75. A(C  13,C  14,H  27)          123.5624         0.363953   
     76. A(C  13,C  14,N  15)          119.6795         0.441914   
     77. A(C  10,N  15,C  14)          121.8742         0.417132   
     78. A(C   1,N  15,C  14)          131.2250         0.428374   
     79. A(C   1,N  15,C  10)          106.8987         0.417695   
     80. D(N   2,C   1,C   0,H  18)    119.5743         0.014445   
     81. D(N   2,C   1,C   0,H  17)     -0.0936         0.014445   
     82. D(N  15,C   1,C   0,H  18)    -60.2250         0.014445   
     83. D(N   2,C   1,C   0,H  16)   -119.8177         0.014445   
     84. D(N  15,C   1,C   0,H  16)     60.3831         0.014445   
     85. D(N  15,C   1,C   0,H  17)   -179.8928         0.014445   
     86. D(C   3,N   2,C   1,N  15)      0.6115         0.042865   
     87. D(C   3,N   2,C   1,C   0)   -179.2092         0.042865   
     88. D(C  10,C   3,N   2,C   1)     -0.8911         0.029269   
     89. D(C   4,C   3,N   2,C   1)    179.5369         0.029269   
     90. D(C   5,C   4,C   3,C  10)     26.9820         0.016926   
     91. D(C   5,C   4,C   3,N   2)   -153.5482         0.016926   
     92. D(C   9,C   4,C   3,N   2)     25.2341         0.016926   
     93. D(C   9,C   4,C   3,C  10)   -154.2356         0.016926   
     94. D(C   6,C   5,C   4,C   3)   -179.8256         0.026150   
     95. D(H  19,C   5,C   4,C   9)   -176.7464         0.026150   
     96. D(H  19,C   5,C   4,C   3)      2.0380         0.026150   
     97. D(C   6,C   5,C   4,C   9)      1.3900         0.026150   
     98. D(H  20,C   6,C   5,H  19)     -1.8208         0.028741   
     99. D(H  20,C   6,C   5,C   4)   -179.9631         0.028741   
    100. D(C   7,C   6,C   5,H  19)    177.7238         0.028741   
    101. D(C   7,C   6,C   5,C   4)     -0.4185         0.028741   
    102. D(H  21,C   7,C   6,H  20)     -0.5793         0.028155   
    103. D(H  21,C   7,C   6,C   5)    179.8772         0.028155   
    104. D(C   8,C   7,C   6,H  20)    178.8467         0.028155   
    105. D(C   8,C   7,C   6,C   5)     -0.6969         0.028155   
    106. D(H  22,C   8,C   7,H  21)      0.1562         0.027902   
    107. D(H  22,C   8,C   7,C   6)   -179.2691         0.027902   
    108. D(C   9,C   8,C   7,H  21)   -179.7572         0.027902   
    109. D(C   9,C   8,C   7,C   6)      0.8176         0.027902   
    110. D(C   8,C   9,C   4,C   3)    179.9033         0.025851   
    111. D(H  23,C   9,C   8,H  22)      0.3019         0.029177   
    112. D(H  23,C   9,C   8,C   7)   -179.7846         0.029177   
    113. D(C   4,C   9,C   8,H  22)   -179.7380         0.029177   
    114. D(C   4,C   9,C   8,C   7)      0.1754         0.029177   
    115. D(H  23,C   9,C   4,C   5)    178.6902         0.025851   
    116. D(H  23,C   9,C   4,C   3)     -0.1356         0.025851   
    117. D(C   8,C   9,C   4,C   5)     -1.2709         0.025851   
    118. D(N  15,C  10,C   3,C   4)   -179.6707         0.025627   
    119. D(N  15,C  10,C   3,N   2)      0.8111         0.025627   
    120. D(C  11,C  10,C   3,C   4)      3.9824         0.025627   
    121. D(C  11,C  10,C   3,N   2)   -175.5359         0.025627   
    122. D(H  24,C  11,C  10,N  15)   -176.7455         0.023801   
    123. D(H  24,C  11,C  10,C   3)     -0.7486         0.023801   
    124. D(C  12,C  11,C  10,N  15)      2.1905         0.023801   
    125. D(C  12,C  11,C  10,C   3)    178.1874         0.023801   
    126. D(H  25,C  12,C  11,H  24)     -0.9571         0.033551   
    127. D(H  25,C  12,C  11,C  10)   -179.8685         0.033551   
    128. D(C  13,C  12,C  11,H  24)    178.6925         0.033551   
    129. D(C  13,C  12,C  11,C  10)     -0.2189         0.033551   
    130. D(H  26,C  13,C  12,H  25)     -0.9139         0.021595   
    131. D(H  26,C  13,C  12,C  11)    179.4311         0.021595   
    132. D(C  14,C  13,C  12,H  25)    178.3488         0.021595   
    133. D(C  14,C  13,C  12,C  11)     -1.3063         0.021595   
    134. D(H  27,C  14,C  13,H  26)      0.3767         0.035928   
    135. D(H  27,C  14,C  13,C  12)   -178.8851         0.035928   
    136. D(N  15,C  14,C  13,H  26)   -179.9867         0.035928   
    137. D(N  15,C  14,C  13,C  12)      0.7515         0.035928   
    138. D(C   1,N  15,C  10,C   3)     -0.4392         0.022853   
    139. D(C  14,N  15,C   1,N   2)    179.3660         0.031366   
    140. D(C  14,N  15,C   1,C   0)     -0.8093         0.031366   
    141. D(C  10,N  15,C   1,N   2)     -0.0944         0.031366   
    142. D(C  10,N  15,C   1,C   0)    179.7303         0.031366   
    143. D(C  10,N  15,C  14,H  27)   -179.0118         0.030858   
    144. D(C  10,N  15,C  14,C  13)      1.3274         0.030858   
    145. D(C   1,N  15,C  14,H  27)      1.5961         0.030858   
    146. D(C   1,N  15,C  14,C  13)   -178.0647         0.030858   
    147. D(C  14,N  15,C  10,C  11)     -2.7999         0.022853   
    148. D(C  14,N  15,C  10,C   3)   -179.9613         0.022853   
    149. D(C   1,N  15,C  10,C  11)    176.7223         0.022853   
    -----------------------------------------------------------------

Number of atoms                         .... 28
Number of degrees of freedom            .... 149

         *************************************************************
         *                GEOMETRY OPTIMIZATION CYCLE   1            *
         *************************************************************
---------------------------------
CARTESIAN COORDINATES (ANGSTROEM)
---------------------------------
  C     -2.425900    2.445300    1.328700
  C     -1.530600    1.409700    0.756000
  N     -0.224200    1.399100    0.850700
  C      0.237600    0.307700    0.188800
  C      1.660700    0.032800    0.111600
  C      2.222900   -0.695700   -0.935900
  C      3.583400   -0.937500   -0.968200
  C      4.405300   -0.451700    0.034900
  C      3.858900    0.293200    1.068100
  C      2.500600    0.535500    1.106600
  C     -0.848400   -0.404100   -0.326200
  C     -1.046300   -1.614700   -1.014200
  C     -2.309900   -2.012100   -1.333700
  C     -3.423200   -1.210700   -0.970100
  C     -3.240100   -0.059800   -0.280700
  N     -1.978100    0.335200    0.050400
  H     -3.121100    2.005100    2.044400
  H     -1.815800    3.185300    1.836800
  H     -3.001600    2.937700    0.544400
  H      1.598700   -1.048400   -1.743000
  H      4.007400   -1.503100   -1.786000
  H      5.467800   -0.645000    0.006300
  H      4.497800    0.684500    1.846900
  H      2.061600    1.116500    1.902700
  H     -0.190200   -2.219800   -1.263400
  H     -2.479400   -2.938400   -1.859100
  H     -4.419400   -1.526400   -1.234000
  H     -4.048400    0.579900    0.037400

----------------------------
CARTESIAN COORDINATES (A.U.)
----------------------------
  NO LB      ZA    FRAG     MASS         X           Y           Z
   0 C     6.0000    0    12.011   -4.584287    4.620947    2.510879
   1 C     6.0000    0    12.011   -2.892415    2.663947    1.428633
   2 N     7.0000    0    14.007   -0.423677    2.643916    1.607590
   3 C     6.0000    0    12.011    0.448999    0.581469    0.356780
   4 C     6.0000    0    12.011    3.138268    0.061983    0.210893
   5 C     6.0000    0    12.011    4.200672   -1.314682   -1.768595
   6 C     6.0000    0    12.011    6.771645   -1.771618   -1.829633
   7 C     6.0000    0    12.011    8.324811   -0.853589    0.065951
   8 C     6.0000    0    12.011    7.292264    0.554068    2.018416
   9 C     6.0000    0    12.011    4.725449    1.011948    2.091171
  10 C     6.0000    0    12.011   -1.603244   -0.763638   -0.616429
  11 C     6.0000    0    12.011   -1.977220   -3.051341   -1.916560
  12 C     6.0000    0    12.011   -4.365078   -3.802318   -2.520328
  13 C     6.0000    0    12.011   -6.468911   -2.287891   -1.833223
  14 C     6.0000    0    12.011   -6.122902   -0.113006   -0.530446
  15 N     7.0000    0    14.007   -3.738067    0.633436    0.095242
  16 H     1.0000    0     1.008   -5.898024    3.789090    3.863356
  17 H     1.0000    0     1.008   -3.431365    6.019345    3.471049
  18 H     1.0000    0     1.008   -5.672202    5.551448    1.028767
  19 H     1.0000    0     1.008    3.021105   -1.981189   -3.293793
  20 H     1.0000    0     1.008    7.572889   -2.840447   -3.375051
  21 H     1.0000    0     1.008   10.332645   -1.218873    0.011905
  22 H     1.0000    0     1.008    8.499610    1.293518    3.490135
  23 H     1.0000    0     1.008    3.895859    2.109879    3.595582
  24 H     1.0000    0     1.008   -0.359426   -4.194814   -2.387480
  25 H     1.0000    0     1.008   -4.685387   -5.552771   -3.513190
  26 H     1.0000    0     1.008   -8.351456   -2.884478   -2.331922
  27 H     1.0000    0     1.008   -7.650367    1.095852    0.070676

--------------------------------
INTERNAL COORDINATES (ANGSTROEM)
--------------------------------
 C      0   0   0     0.000000000000     0.00000000     0.00000000
 C      1   0   0     1.483918710712     0.00000000     0.00000000
 N      2   1   0     1.309870760800   125.41409020     0.00000000
 C      3   2   1     1.357396334900   108.09306578   180.79075047
 C      4   3   2     1.451462524490   120.78240295   179.53688809
 C      5   4   3     1.394287395052   122.29329295   206.45176150
 C      6   5   4     1.382197807841   120.38759193   180.17443566
 C      7   6   5     1.384821598618   120.39064671   359.58153455
 C      8   7   6     1.385976626787   119.63954357   359.30312191
 C      9   8   7     1.380279113078   120.20513001     0.81756277
 C      4   3   2     1.396882328616   108.96500817   359.10893680
 C     11   4   3     1.406435483767   136.74867014   184.46411861
 C     12  11   4     1.362604847342   119.75061050   178.18737383
 C     13  12  11     1.419113741037   120.18059904   359.78107897
 C     14  13  12     1.354019490259   120.28957672   358.69372019
 N      2   1   3     1.361131095817   123.54749799   180.20074730
 H      1   2   3     1.090552873546   110.86652580   240.18232450
 H      1   2   3     1.085351380890   108.50254932   359.90642043
 H      1   2   3     1.090419524770   110.86018585   119.57426001
 H      6   5   4     1.079552379461   119.94950218     2.03802958
 H      7   6   5     1.080960776347   119.68955625   180.03694347
 H      8   7   6     1.080318980672   120.11727840   179.87715109
 H      9   8   7     1.080665692987   119.91839854   180.73093975
 H     10   9   8     1.078914829817   121.03247064   180.21536137
 H     12  11   4     1.077568494343   118.99211909   359.25138845
 H     13  12  11     1.078335337453   120.69970331   180.13154070
 H     14  13  12     1.077833076130   119.79819163   179.43107316
 H     15  14  13     1.078773650957   123.56237407   181.11489043

---------------------------
INTERNAL COORDINATES (A.U.)
---------------------------
 C      0   0   0     0.000000000000     0.00000000     0.00000000
 C      1   0   0     2.804199968246     0.00000000     0.00000000
 N      2   1   0     2.475297008744   125.41409020     0.00000000
 C      3   2   1     2.565107328149   108.09306578   180.79075047
 C      4   3   2     2.742866664937   120.78240295   179.53688809
 C      5   4   3     2.634821328626   122.29329295   206.45176150
 C      6   5   4     2.611975319725   120.38759193   180.17443566
 C      7   6   5     2.616933565728   120.39064671   359.58153455
 C      8   7   6     2.619116252644   119.63954357   359.30312191
 C      9   8   7     2.608349512090   120.20513001     0.81756277
 C      4   3   2     2.639725042399   108.96500817   359.10893680
 C     11   4   3     2.657777889349   136.74867014   184.46411861
 C     12  11   4     2.574949990230   119.75061050   178.18737383
 C     13  12  11     2.681736323444   120.18059904   359.78107897
 C     14  13  12     2.558726016580   120.28957672   358.69372019
 N      2   1   3     2.572165003458   123.54749799   180.20074730
 H      1   2   3     2.060846265563   110.86652580   240.18232450
 H      1   2   3     2.051016868955   108.50254932   359.90642043
 H      1   2   3     2.060594272896   110.86018585   119.57426001
 H      6   5   4     2.040058344404   119.94950218     2.03802958
 H      7   6   5     2.042719828806   119.68955625   180.03694347
 H      8   7   6     2.041507010747   120.11727840   179.87715109
 H      9   8   7     2.042162202070   119.91839854   180.73093975
 H     10   9   8     2.038853550181   121.03247064   180.21536137
 H     12  11   4     2.036309344850   118.99211909   359.25138845
 H     13  12  11     2.037758468316   120.69970331   180.13154070
 H     14  13  12     2.036809331968   119.79819163   179.43107316
 H     15  14  13     2.038586760800   123.56237407   181.11489043

---------------------
BASIS SET INFORMATION
---------------------
There are 3 groups of distinct atoms

 Group   1 Type C   : 19s6p3d2f contracted to 5s4p3d2f pattern {88111/3111/111/11}
 Group   2 Type N   : 19s6p3d2f contracted to 5s4p3d2f pattern {88111/3111/111/11}
 Group   3 Type H   : 5s2p1d contracted to 3s2p1d pattern {311/11/1}

Atom   0C    basis set group =>   1
Atom   1C    basis set group =>   1
Atom   2N    basis set group =>   2
Atom   3C    basis set group =>   1
Atom   4C    basis set group =>   1
Atom   5C    basis set group =>   1
Atom   6C    basis set group =>   1
Atom   7C    basis set group =>   1
Atom   8C    basis set group =>   1
Atom   9C    basis set group =>   1
Atom  10C    basis set group =>   1
Atom  11C    basis set group =>   1
Atom  12C    basis set group =>   1
Atom  13C    basis set group =>   1
Atom  14C    basis set group =>   1
Atom  15N    basis set group =>   2
Atom  16H    basis set group =>   3
Atom  17H    basis set group =>   3
Atom  18H    basis set group =>   3
Atom  19H    basis set group =>   3
Atom  20H    basis set group =>   3
Atom  21H    basis set group =>   3
Atom  22H    basis set group =>   3
Atom  23H    basis set group =>   3
Atom  24H    basis set group =>   3
Atom  25H    basis set group =>   3
Atom  26H    basis set group =>   3
Atom  27H    basis set group =>   3
---------------------------------
AUXILIARY/J BASIS SET INFORMATION
---------------------------------
There are 3 groups of distinct atoms

 Group   1 Type C   : 10s7p5d2f1g contracted to 10s7p5d2f1g pattern {1111111111/1111111/11111/11/1}
 Group   2 Type N   : 10s7p5d2f1g contracted to 10s7p5d2f1g pattern {1111111111/1111111/11111/11/1}
 Group   3 Type H   : 4s3p2d1f contracted to 4s3p2d1f pattern {1111/111/11/1}

Atom   0C    basis set group =>   1
Atom   1C    basis set group =>   1
Atom   2N    basis set group =>   2
Atom   3C    basis set group =>   1
Atom   4C    basis set group =>   1
Atom   5C    basis set group =>   1
Atom   6C    basis set group =>   1
Atom   7C    basis set group =>   1
Atom   8C    basis set group =>   1
Atom   9C    basis set group =>   1
Atom  10C    basis set group =>   1
Atom  11C    basis set group =>   1
Atom  12C    basis set group =>   1
Atom  13C    basis set group =>   1
Atom  14C    basis set group =>   1
Atom  15N    basis set group =>   2
Atom  16H    basis set group =>   3
Atom  17H    basis set group =>   3
Atom  18H    basis set group =>   3
Atom  19H    basis set group =>   3
Atom  20H    basis set group =>   3
Atom  21H    basis set group =>   3
Atom  22H    basis set group =>   3
Atom  23H    basis set group =>   3
Atom  24H    basis set group =>   3
Atom  25H    basis set group =>   3
Atom  26H    basis set group =>   3
Atom  27H    basis set group =>   3
---------------------------------
AUXILIARY/C BASIS SET INFORMATION
---------------------------------
There are 3 groups of distinct atoms

 Group   1 Type C   : 9s7p6d4f2g contracted to 9s7p6d4f2g pattern {111111111/1111111/111111/1111/11}
 Group   2 Type N   : 9s7p6d4f2g contracted to 9s7p6d4f2g pattern {111111111/1111111/111111/1111/11}
 Group   3 Type H   : 4s3p2d1f contracted to 4s3p2d1f pattern {1111/111/11/1}

Atom   0C    basis set group =>   1
Atom   1C    basis set group =>   1
Atom   2N    basis set group =>   2
Atom   3C    basis set group =>   1
Atom   4C    basis set group =>   1
Atom   5C    basis set group =>   1
Atom   6C    basis set group =>   1
Atom   7C    basis set group =>   1
Atom   8C    basis set group =>   1
Atom   9C    basis set group =>   1
Atom  10C    basis set group =>   1
Atom  11C    basis set group =>   1
Atom  12C    basis set group =>   1
Atom  13C    basis set group =>   1
Atom  14C    basis set group =>   1
Atom  15N    basis set group =>   2
Atom  16H    basis set group =>   3
Atom  17H    basis set group =>   3
Atom  18H    basis set group =>   3
Atom  19H    basis set group =>   3
Atom  20H    basis set group =>   3
Atom  21H    basis set group =>   3
Atom  22H    basis set group =>   3
Atom  23H    basis set group =>   3
Atom  24H    basis set group =>   3
Atom  25H    basis set group =>   3
Atom  26H    basis set group =>   3
Atom  27H    basis set group =>   3


           ************************************************************
           *        Program running with 4 parallel MPI-processes     *
           *              working on a common directory               *
           ************************************************************
------------------------------------------------------------------------------
                           ORCA GTO INTEGRAL CALCULATION
                           -- RI-GTO INTEGRALS CHOSEN --
------------------------------------------------------------------------------
------------------------------------------------------------------------------
                   ___                                                        
                  /   \      - P O W E R E D   B Y -                         
                 /     \                                                     
                 |  |  |   _    _      __       _____    __    __             
                 |  |  |  | |  | |    /  \     |  _  \  |  |  /  |          
                  \  \/   | |  | |   /    \    | | | |  |  | /  /          
                 / \  \   | |__| |  /  /\  \   | |_| |  |  |/  /          
                |  |  |   |  __  | /  /__\  \  |    /   |      \           
                |  |  |   | |  | | |   __   |  |    \   |  |\   \          
                \     /   | |  | | |  |  |  |  | |\  \  |  | \   \       
                 \___/    |_|  |_| |__|  |__|  |_| \__\ |__|  \__/        
                                                                              
                      - O R C A' S   B I G   F R I E N D -                    
                                      &                                       
                       - I N T E G R A L  F E E D E R -                       
                                                                              
 v1 FN, 2020, v2 2021                                                         
------------------------------------------------------------------------------


Reading SHARK input file optpbed3-b2gp-plyp-train-16.SHARKINP.tmp ... ok
----------------------
SHARK INTEGRAL PACKAGE
----------------------

Number of atoms                             ...     28
Number of basis functions                   ...   1000
Number of shells                            ...    392
Maximum angular momentum                    ...      3
Integral batch strategy                     ... SHARK/LIBINT Hybrid
RI-J (if used) integral strategy            ... SPLIT-RIJ (Revised 2003 algorithm where possible)
Printlevel                                  ...      1
Contraction scheme used                     ... PARTIAL GENERAL contraction
Coulomb Range Separation                    ... NOT USED
Exchange Range Separation                   ... NOT USED
Finite Nucleus Model                        ... NOT USED
Auxiliary Coulomb fitting basis             ... AVAILABLE
   # of basis functions in Aux-J            ...   1624
   # of shells in Aux-J                     ...    520
   Maximum angular momentum in Aux-J        ...      4
Auxiliary J/K fitting basis                 ... NOT available
Auxiliary Correlation fitting basis         ... AVAILABLE
   # of basis functions in Aux-C            ...   2056
   # of shells in Aux-C                     ...    568
   Maximum angular momentum in Aux-C        ...      4
Auxiliary 'external' fitting basis          ... NOT available
Integral threshold                          ...     2.500000e-11
Primitive cut-off                           ...     2.500000e-12
Primitive pair pre-selection threshold      ...     2.500000e-12

Calculating pre-screening integrals         ... done (  0.2 sec) Dimension = 392
Calculating pre-screening integrals (ORCA)  ... done (  0.5 sec) Dimension = 296
Organizing shell pair data                  ... done (  0.7 sec)
Shell pair information
Total number of shell pairs                 ...     77028
Shell pairs after pre-screening             ...     54819
Total number of primitive shell pairs       ...    100660
Primitive shell pairs kept                  ...     65058
          la=0 lb=0:  12676 shell pairs
          la=1 lb=0:  13885 shell pairs
          la=1 lb=1:   3336 shell pairs
          la=2 lb=0:   9260 shell pairs
          la=2 lb=1:   4434 shell pairs
          la=2 lb=2:   1532 shell pairs
          la=3 lb=0:   5140 shell pairs
          la=3 lb=1:   2426 shell pairs
          la=3 lb=2:   1649 shell pairs
          la=3 lb=3:    481 shell pairs

Calculating one electron integrals          ... done (  0.2 sec)
Calculating RI/J V-Matrix + Cholesky decomp.... done (  0.2 sec)
Calculating RI/C V-Matrix + Cholesky decomp.... done (  0.4 sec)
Calculating Nuclear repulsion               ... done (  0.0 sec) ENN=    995.829503392840 Eh

SHARK setup successfully completed in   3.1 seconds

Maximum memory used throughout the entire GTOINT-calculation: 83.0 MB


           ************************************************************
           *        Program running with 4 parallel MPI-processes     *
           *              working on a common directory               *
           ************************************************************
-------------------------------------------------------------------------------
                                 ORCA SCF
-------------------------------------------------------------------------------

------------
SCF SETTINGS
------------
Hamiltonian:
 Density Functional     Method          .... DFT(GTOs)
 Exchange Functional    Exchange        .... PBE
   PBE kappa parameter   XKappa         ....  0.804000
   PBE mue parameter    XMuePBE         ....  0.219520
 Correlation Functional Correlation     .... PBE
   PBE beta parameter  CBetaPBE         ....  0.066725
 LDA part of GGA corr.  LDAOpt          .... PW91-LDA
 Gradients option       PostSCFGGA      .... off
 Hybrid DFT is turned on
   Fraction HF Exchange ScalHFX         ....  0.250000
   Scaling of DF-GGA-X  ScalDFX         ....  0.750000
   Scaling of DF-GGA-C  ScalDFC         ....  1.000000
   Scaling of DF-LDA-C  ScalLDAC        ....  1.000000
   Perturbative correction              ....  0.000000
   Density functional embedding theory  .... OFF
   NL short-range parameter             ....  6.900000
 RI-approximation to the Coulomb term is turned on
   Number of AuxJ basis functions       .... 1624
   RIJ-COSX (HFX calculated with COS-X)).... on


General Settings:
 Integral files         IntName         .... optpbed3-b2gp-plyp-train-16
 Hartree-Fock type      HFTyp           .... RHF
 Total Charge           Charge          ....    0
 Multiplicity           Mult            ....    1
 Number of Electrons    NEL             ....  110
 Basis Dimension        Dim             ....  904
 Nuclear Repulsion      ENuc            ....    995.8295033928 Eh

Convergence Acceleration:
 DIIS                   CNVDIIS         .... on
   Start iteration      DIISMaxIt       ....    12
   Startup error        DIISStart       ....  0.200000
   # of expansion vecs  DIISMaxEq       ....     5
   Bias factor          DIISBfac        ....   1.050
   Max. coefficient     DIISMaxC        ....  10.000
 Trust-Rad. Augm. Hess. CNVTRAH         .... auto
   Auto Start mean grad. ratio tolernc. ....  1.125000
   Auto Start start iteration           ....    20
   Auto Start num. interpolation iter.  ....    10
   Max. Number of Micro iterations      ....    16
   Max. Number of Macro iterations      .... Maxiter - #DIIS iter
   Number of Davidson start vectors     ....     2
   Converg. threshold I  (grad. norm)   ....   1.000e-05
   Converg. threshold II (energy diff.) ....   1.000e-08
   Grad. Scal. Fac. for Micro threshold ....   0.100
   Minimum threshold for Micro iter.    ....   0.010
   NR start threshold (gradient norm)   ....   0.001
   Initial trust radius                 ....   0.400
   Minimum AH scaling param. (alpha)    ....   1.000
   Maximum AH scaling param. (alpha)    .... 1000.000
   Orbital update algorithm             .... Taylor
   White noise on init. David. guess    .... on
   Maximum white noise                  ....   0.010
   Quad. conv. algorithm                .... NR
 SOSCF                  CNVSOSCF        .... on
   Start iteration      SOSCFMaxIt      ....   150
   Startup grad/error   SOSCFStart      ....  0.003300
 Level Shifting         CNVShift        .... on
   Level shift para.    LevelShift      ....    0.2500
   Turn off err/grad.   ShiftErr        ....    0.0010
 Zerner damping         CNVZerner       .... off
 Static damping         CNVDamp         .... on
   Fraction old density DampFac         ....    0.7000
   Max. Damping (<1)    DampMax         ....    0.9800
   Min. Damping (>=0)   DampMin         ....    0.0000
   Turn off err/grad.   DampErr         ....    0.1000
 Fernandez-Rico         CNVRico         .... off

SCF Procedure:
 Maximum # iterations   MaxIter         ....   125
 SCF integral mode      SCFMode         .... Direct
   Integral package                     .... SHARK and LIBINT hybrid scheme
 Reset frequency        DirectResetFreq ....    20
 Integral Threshold     Thresh          ....  2.500e-11 Eh
 Primitive CutOff       TCut            ....  2.500e-12 Eh

Convergence Tolerance:
 Convergence Check Mode ConvCheckMode   .... Total+1el-Energy
 Convergence forced     ConvForced      .... 0
 Energy Change          TolE            ....  1.000e-08 Eh
 1-El. energy change                    ....  1.000e-05 Eh
 Orbital Gradient       TolG            ....  1.000e-05
 Orbital Rotation angle TolX            ....  1.000e-05
 DIIS Error             TolErr          ....  5.000e-07


Diagonalization of the overlap matrix:
Smallest eigenvalue                        ... 7.622e-07
Time for diagonalization                   ...    0.305 sec
Threshold for overlap eigenvalues          ... 1.000e-08
Number of eigenvalues below threshold      ... 0
Time for construction of square roots      ...    0.182 sec
Total time needed                          ...    0.491 sec

Time for model grid setup =    0.499 sec

------------------------------
INITIAL GUESS: MODEL POTENTIAL
------------------------------
Loading Hartree-Fock densities                     ... done
Calculating cut-offs                               ... done
Initializing the effective Hamiltonian             ... done
Setting up the integral package (SHARK)            ... done
Starting the Coulomb interaction                   ... done (   1.6 sec)
Reading the grid                                   ... done
Mapping shells                                     ... done
Starting the XC term evaluation                    ... done (   1.7 sec)
  promolecular density results
     # of electrons  =    109.995033999
     EX              =    -88.329993185
     EC              =     -3.689415904
     EX+EC           =    -92.019409088
Transforming the Hamiltonian                       ... done (   0.2 sec)
Diagonalizing the Hamiltonian                      ... done (   0.3 sec)
Back transforming the eigenvectors                 ... done (   0.1 sec)
Now organizing SCF variables                       ... done
                      ------------------
                      INITIAL GUESS DONE (   4.3 sec)
                      ------------------
-------------------
DFT GRID GENERATION
-------------------

General Integration Accuracy     IntAcc      ... 4.388
Radial Grid Type                 RadialGrid  ... OptM3 with GC (2021)
Angular Grid (max. ang.)         AngularGrid ... 4 (Lebedev-302)
Angular grid pruning method      GridPruning ... 4 (adaptive)
Weight generation scheme         WeightScheme... Becke
Basis function cutoff            BFCut       ... 1.0000e-11
Integration weight cutoff        WCut        ... 1.0000e-14
Angular grids for H and He will be reduced by one unit
Partially contracted basis set               ... off
Rotationally invariant grid construction     ... off

Total number of grid points                  ...   138123
Total number of batches                      ...     2171
Average number of points per batch           ...       63
Average number of grid points per atom       ...     4933
Time for grid setup =    2.101 sec

--------------------
COSX GRID GENERATION
--------------------

GRIDX 1
-------
General Integration Accuracy     IntAcc      ... 3.816
Radial Grid Type                 RadialGrid  ... OptM3 with GC (2021)
Angular Grid (max. ang.)         AngularGrid ... 1 (Lebedev-50)
Angular grid pruning method      GridPruning ... 4 (adaptive)
Weight generation scheme         WeightScheme... Becke
Basis function cutoff            BFCut       ... 1.0000e-11
Integration weight cutoff        WCut        ... 1.0000e-14
Angular grids for H and He will be reduced by one unit
Partially contracted basis set               ... on
Rotationally invariant grid construction     ... off

Total number of grid points                  ...    17610
Total number of batches                      ...      292
Average number of points per batch           ...       60
Average number of grid points per atom       ...      629
UseSFitting                                  ... on

GRIDX 2
-------
General Integration Accuracy     IntAcc      ... 4.020
Radial Grid Type                 RadialGrid  ... OptM3 with GC (2021)
Angular Grid (max. ang.)         AngularGrid ... 2 (Lebedev-110)
Angular grid pruning method      GridPruning ... 4 (adaptive)
Weight generation scheme         WeightScheme... Becke
Basis function cutoff            BFCut       ... 1.0000e-11
Integration weight cutoff        WCut        ... 1.0000e-14
Angular grids for H and He will be reduced by one unit
Partially contracted basis set               ... on
Rotationally invariant grid construction     ... off

Total number of grid points                  ...    41694
Total number of batches                      ...      665
Average number of points per batch           ...       62
Average number of grid points per atom       ...     1489
UseSFitting                                  ... on

GRIDX 3
-------
General Integration Accuracy     IntAcc      ... 4.338
Radial Grid Type                 RadialGrid  ... OptM3 with GC (2021)
Angular Grid (max. ang.)         AngularGrid ... 3 (Lebedev-194)
Angular grid pruning method      GridPruning ... 4 (adaptive)
Weight generation scheme         WeightScheme... Becke
Basis function cutoff            BFCut       ... 1.0000e-11
Integration weight cutoff        WCut        ... 1.0000e-14
Angular grids for H and He will be reduced by one unit
Partially contracted basis set               ... on
Rotationally invariant grid construction     ... off

Total number of grid points                  ...    89873
Total number of batches                      ...     1418
Average number of points per batch           ...       63
Average number of grid points per atom       ...     3210
UseSFitting                                  ... on

Time for X-Grid setup             =    4.797 sec


--------------------
CPCM SOLVATION MODEL
--------------------
CPCM parameters:
  Epsilon                                         ...       8.9300
  Refrac                                          ...       1.4242
  Rsolv                                           ...       1.3000
  Surface type                                    ... GAUSSIAN VDW
  Epsilon function type                           ...         CPCM
Solvent:                                     ... DICHLOROMETHANE
SMD-CDS solvent descriptors:
  Soln                                       ...    1.4242
  Soln25                                     ...    1.4212
  Sola                                       ...    0.1000
  Solb                                       ...    0.0500
  Solg                                       ...   39.1500
  Solc                                       ...    0.0000
  Solh                                       ...    0.6670
Radii:
 Radius for C  used is    3.4960 Bohr (=   1.8500 Ang.)
 Radius for N  used is    3.5716 Bohr (=   1.8900 Ang.)
 Radius for H  used is    2.2677 Bohr (=   1.2000 Ang.)
Calculating surface                               ...        done! (  0.0s)
GEPOL surface points                              ...         1639
GEPOL Volume                                      ...    1486.1740
GEPOL Surface-area                                ...     847.8508
Calculating surface distance matrix               ...        done! (  0.0s)
Performing Cholesky decomposition & store         ...        done! (  0.2s)
Overall time for CPCM initialization              ...                 0.2s
 re-compute Schwartz prescreening matrix in partically contracted basis (1) ...done (   0.215 sec)
--------------
SCF ITERATIONS
--------------
ITER       Energy         Delta-E        Max-DP      RMS-DP      [F,P]     Damp
               ***  Starting incremental Fock matrix formation  ***
  0   -649.3600920898   0.000000000000 0.13069404  0.00096538  0.2056550 0.7000
  1   -649.5046877110  -0.144595621213 0.10619577  0.00075520  0.1002323 0.7000
                               ***Turning on DIIS***
  2   -649.5720758819  -0.067388170927 0.29061111  0.00164991  0.0434043 0.0000
  3   -649.6715848708  -0.099508988856 0.07378630  0.00041655  0.0475375 0.0000
  4   -649.6935485018  -0.021963631020 0.01719242  0.00015907  0.0086224 0.0000
  5   -649.6944669799  -0.000918478167 0.00817157  0.00005541  0.0051422 0.0000
                      *** Initiating the SOSCF procedure ***
                           *** Shutting down DIIS ***
                      *** Re-Reading the Fockian *** 
                      *** Removing any level shift *** 
ITER      Energy       Delta-E        Grad      Rot      Max-DP    RMS-DP
  6   -649.69456305  -0.0000960708  0.000314  0.000314  0.019875  0.000050
               *** Restarting incremental Fock matrix formation ***
  7   -649.69458101  -0.0000179550  0.000215  0.001033  0.017795  0.000257
  8   -649.69457802   0.0000029861  0.000361  0.000649  0.005613  0.000021
  9   -649.69458396  -0.0000059370  0.000030  0.000099  0.011742  0.000030
 10   -649.69458390   0.0000000522  0.000037  0.000097  0.004506  0.000013
 11   -649.69458403  -0.0000001292  0.000004  0.000022  0.010550  0.000032
 12   -649.69458404  -0.0000000023  0.000007  0.000009  0.005344  0.000020
                 **** Energy Check signals convergence ****
              ***Rediagonalizing the Fockian in SOSCF/NRSCF***

               *****************************************************
               *                     SUCCESS                       *
               *           SCF CONVERGED AFTER  13 CYCLES          *
               *****************************************************

Old exchange energy                            =    -22.549019107 Eh
New exchange energy                            =    -22.549016631 Eh
Exchange energy change after final integration =      0.000002477 Eh
Total energy after final integration           =   -649.694581555 Eh
Final COS-X integration done in                =    91.759 sec

SMD CDS free energy correction energy :                -6.98495     Kcal/mol
Total Energy after SMD CDS correction =              -649.705712785 Eh

----------------
TOTAL SCF ENERGY
----------------

Total Energy       :         -649.70571279 Eh          -17679.39125 eV

Components:
Nuclear Repulsion  :          995.82950339 Eh           27097.89842 eV
Electronic Energy  :        -1645.53521618 Eh          -44777.28967 eV
One Electron Energy:        -2854.76591117 Eh          -77682.12973 eV
Two Electron Energy:         1209.23069499 Eh           32904.84006 eV
Max COSX asymmetry :            0.00003067 Eh               0.00083 eV
CPCM Dielectric    :           -0.01900211 Eh              -0.51707 eV
SMD CDS (Gcds)     :           -0.01113123 Eh              -0.30290 eV

Virial components:
Potential Energy   :        -1295.79225847 Eh          -35260.29995 eV
Kinetic Energy     :          646.08654568 Eh           17580.90870 eV
Virial Ratio       :            2.00560168


DFT components:
N(Alpha)           :       55.000056311831 electrons
N(Beta)            :       55.000056311831 electrons
N(Total)           :      110.000112623661 electrons
E(X)               :      -67.454812603694 Eh       
E(C)               :       -3.692982216192 Eh       
E(XC)              :      -71.147794819885 Eh       
DFET-embed. en.    :        0.000000000000 Eh       
CPCM Solvation Model Properties:
Surface-charge          :           -0.05848348
Charge-correction       :           -0.00002385 Eh              -0.00065 eV
Free-energy (cav+disp)  :           -0.01113123 Eh              -0.30290 eV

---------------
SCF CONVERGENCE
---------------

  Last Energy change         ...    4.4979e-09  Tolerance :   1.0000e-08
  Last MAX-Density change    ...    3.1086e-15  Tolerance :   1.0000e-07
  Last RMS-Density change    ...    1.2267e-17  Tolerance :   5.0000e-09
  Last Orbital Gradient      ...    1.4208e-06  Tolerance :   1.0000e-05
  Last Orbital Rotation      ...    2.8748e-06  Tolerance :   1.0000e-05

             **** THE GBW FILE WAS UPDATED (optpbed3-b2gp-plyp-train-16.gbw) ****
             **** DENSITY optpbed3-b2gp-plyp-train-16.scfp WAS UPDATED ****
             **** ENERGY FILE WAS UPDATED (optpbed3-b2gp-plyp-train-16.en.tmp) ****
             **** THE GBW FILE WAS UPDATED (optpbed3-b2gp-plyp-train-16.gbw) ****
             **** DENSITY optpbed3-b2gp-plyp-train-16.scfp WAS UPDATED ****
----------------
ORBITAL ENERGIES
----------------

  NO   OCC          E(Eh)            E(eV) 
   0   2.0000     -14.465238      -393.6191 
   1   2.0000     -14.375033      -391.1645 
   2   2.0000     -10.283756      -279.8352 
   3   2.0000     -10.274617      -279.5866 
   4   2.0000     -10.267479      -279.3923 
   5   2.0000     -10.246186      -278.8129 
   6   2.0000     -10.240283      -278.6523 
   7   2.0000     -10.237538      -278.5776 
   8   2.0000     -10.235684      -278.5271 
   9   2.0000     -10.234871      -278.5050 
  10   2.0000     -10.223865      -278.2055 
  11   2.0000     -10.223240      -278.1885 
  12   2.0000     -10.222988      -278.1816 
  13   2.0000     -10.221120      -278.1308 
  14   2.0000     -10.220947      -278.1261 
  15   2.0000     -10.220312      -278.1088 
  16   2.0000      -1.071918       -29.1684 
  17   2.0000      -0.947845       -25.7922 
  18   2.0000      -0.887769       -24.1574 
  19   2.0000      -0.853533       -23.2258 
  20   2.0000      -0.813887       -22.1470 
  21   2.0000      -0.790187       -21.5021 
  22   2.0000      -0.770784       -20.9741 
  23   2.0000      -0.766307       -20.8523 
  24   2.0000      -0.704818       -19.1791 
  25   2.0000      -0.676116       -18.3981 
  26   2.0000      -0.654869       -17.8199 
  27   2.0000      -0.629193       -17.1212 
  28   2.0000      -0.607155       -16.5215 
  29   2.0000      -0.597986       -16.2720 
  30   2.0000      -0.543303       -14.7840 
  31   2.0000      -0.524142       -14.2626 
  32   2.0000      -0.512029       -13.9330 
  33   2.0000      -0.497441       -13.5361 
  34   2.0000      -0.495366       -13.4796 
  35   2.0000      -0.474700       -12.9172 
  36   2.0000      -0.469342       -12.7715 
  37   2.0000      -0.457381       -12.4460 
  38   2.0000      -0.439559       -11.9610 
  39   2.0000      -0.429442       -11.6857 
  40   2.0000      -0.422307       -11.4916 
  41   2.0000      -0.419222       -11.4076 
  42   2.0000      -0.406959       -11.0739 
  43   2.0000      -0.398552       -10.8452 
  44   2.0000      -0.391565       -10.6550 
  45   2.0000      -0.375883       -10.2283 
  46   2.0000      -0.365383        -9.9426 
  47   2.0000      -0.354674        -9.6512 
  48   2.0000      -0.348086        -9.4719 
  49   2.0000      -0.331504        -9.0207 
  50   2.0000      -0.298749        -8.1294 
  51   2.0000      -0.280084        -7.6215 
  52   2.0000      -0.273212        -7.4345 
  53   2.0000      -0.267681        -7.2840 
  54   2.0000      -0.196327        -5.3423 
  55   0.0000      -0.042586        -1.1588 
  56   0.0000      -0.017053        -0.4640 
  57   0.0000      -0.007200        -0.1959 
  58   0.0000       0.005546         0.1509 
  59   0.0000       0.012102         0.3293 
  60   0.0000       0.013981         0.3804 
  61   0.0000       0.018498         0.5034 
  62   0.0000       0.029884         0.8132 
  63   0.0000       0.030561         0.8316 
  64   0.0000       0.034444         0.9373 
  65   0.0000       0.039547         1.0761 
  66   0.0000       0.046706         1.2709 
  67   0.0000       0.048529         1.3205 
  68   0.0000       0.049584         1.3493 
  69   0.0000       0.053265         1.4494 
  70   0.0000       0.061637         1.6772 
  71   0.0000       0.068848         1.8734 
  72   0.0000       0.069677         1.8960 
  73   0.0000       0.073992         2.0134 
  74   0.0000       0.075025         2.0415 
  75   0.0000       0.078816         2.1447 
  76   0.0000       0.081620         2.2210 
  77   0.0000       0.091393         2.4869 
  78   0.0000       0.091763         2.4970 
  79   0.0000       0.099081         2.6961 
  80   0.0000       0.101303         2.7566 
  81   0.0000       0.108959         2.9649 
  82   0.0000       0.112360         3.0575 
  83   0.0000       0.114505         3.1158 
  84   0.0000       0.117059         3.1853 
  85   0.0000       0.119303         3.2464 
  86   0.0000       0.121340         3.3018 
  87   0.0000       0.127038         3.4569 
  88   0.0000       0.129944         3.5360 
  89   0.0000       0.131795         3.5863 
  90   0.0000       0.135349         3.6830 
  91   0.0000       0.136837         3.7235 
  92   0.0000       0.139865         3.8059 
  93   0.0000       0.145206         3.9513 
  94   0.0000       0.146135         3.9765 
  95   0.0000       0.148842         4.0502 
  96   0.0000       0.150060         4.0834 
  97   0.0000       0.153344         4.1727 
  98   0.0000       0.155124         4.2211 
  99   0.0000       0.158551         4.3144 
 100   0.0000       0.160981         4.3805 
 101   0.0000       0.163991         4.4624 
 102   0.0000       0.167099         4.5470 
 103   0.0000       0.168718         4.5910 
 104   0.0000       0.169610         4.6153 
 105   0.0000       0.171247         4.6599 
 106   0.0000       0.175153         4.7661 
 107   0.0000       0.178653         4.8614 
 108   0.0000       0.183731         4.9996 
 109   0.0000       0.184267         5.0142 
 110   0.0000       0.187673         5.1069 
 111   0.0000       0.189321         5.1517 
 112   0.0000       0.194956         5.3050 
 113   0.0000       0.198736         5.4079 
 114   0.0000       0.201668         5.4877 
 115   0.0000       0.204772         5.5721 
 116   0.0000       0.206758         5.6262 
 117   0.0000       0.208377         5.6702 
 118   0.0000       0.209718         5.7067 
 119   0.0000       0.213772         5.8170 
 120   0.0000       0.221321         6.0225 
 121   0.0000       0.222689         6.0597 
 122   0.0000       0.224087         6.0977 
 123   0.0000       0.226839         6.1726 
 124   0.0000       0.230153         6.2628 
 125   0.0000       0.231871         6.3095 
 126   0.0000       0.237777         6.4702 
 127   0.0000       0.242528         6.5995 
 128   0.0000       0.246645         6.7115 
 129   0.0000       0.250680         6.8214 
 130   0.0000       0.254783         6.9330 
 131   0.0000       0.257082         6.9955 
 132   0.0000       0.263545         7.1714 
 133   0.0000       0.264999         7.2110 
 134   0.0000       0.268531         7.3071 
 135   0.0000       0.271405         7.3853 
 136   0.0000       0.275085         7.4854 
 137   0.0000       0.279218         7.5979 
 138   0.0000       0.282895         7.6980 
 139   0.0000       0.284934         7.7535 
 140   0.0000       0.289423         7.8756 
 141   0.0000       0.292693         7.9646 
 142   0.0000       0.296436         8.0664 
 143   0.0000       0.299467         8.1489 
 144   0.0000       0.303414         8.2563 
 145   0.0000       0.307878         8.3778 
 146   0.0000       0.312401         8.5009 
 147   0.0000       0.316899         8.6233 
 148   0.0000       0.318788         8.6747 
 149   0.0000       0.325066         8.8455 
 150   0.0000       0.326002         8.8710 
 151   0.0000       0.332212         9.0399 
 152   0.0000       0.335099         9.1185 
 153   0.0000       0.342543         9.3211 
 154   0.0000       0.343454         9.3459 
 155   0.0000       0.346585         9.4311 
 156   0.0000       0.351756         9.5718 
 157   0.0000       0.355367         9.6700 
 158   0.0000       0.360007         9.7963 
 159   0.0000       0.363277         9.8853 
 160   0.0000       0.365020         9.9327 
 161   0.0000       0.368000        10.0138 
 162   0.0000       0.373313        10.1584 
 163   0.0000       0.376882        10.2555 
 164   0.0000       0.382010        10.3950 
 165   0.0000       0.386213        10.5094 
 166   0.0000       0.392625        10.6839 
 167   0.0000       0.395724        10.7682 
 168   0.0000       0.399823        10.8797 
 169   0.0000       0.400393        10.8952 
 170   0.0000       0.403896        10.9906 
 171   0.0000       0.408235        11.1086 
 172   0.0000       0.413293        11.2463 
 173   0.0000       0.415874        11.3165 
 174   0.0000       0.416922        11.3450 
 175   0.0000       0.420918        11.4538 
 176   0.0000       0.423759        11.5311 
 177   0.0000       0.426571        11.6076 
 178   0.0000       0.427207        11.6249 
 179   0.0000       0.431802        11.7499 
 180   0.0000       0.435524        11.8512 
 181   0.0000       0.438286        11.9264 
 182   0.0000       0.440992        12.0000 
 183   0.0000       0.442669        12.0456 
 184   0.0000       0.447711        12.1828 
 185   0.0000       0.451119        12.2756 
 186   0.0000       0.453691        12.3456 
 187   0.0000       0.457283        12.4433 
 188   0.0000       0.467572        12.7233 
 189   0.0000       0.468292        12.7429 
 190   0.0000       0.473709        12.8903 
 191   0.0000       0.478003        13.0071 
 192   0.0000       0.480329        13.0704 
 193   0.0000       0.484288        13.1781 
 194   0.0000       0.486581        13.2405 
 195   0.0000       0.488343        13.2885 
 196   0.0000       0.493835        13.4379 
 197   0.0000       0.497658        13.5420 
 198   0.0000       0.500132        13.6093 
 199   0.0000       0.507780        13.8174 
 200   0.0000       0.511482        13.9181 
 201   0.0000       0.514088        13.9890 
 202   0.0000       0.517177        14.0731 
 203   0.0000       0.518479        14.1085 
 204   0.0000       0.520160        14.1543 
 205   0.0000       0.524347        14.2682 
 206   0.0000       0.530996        14.4491 
 207   0.0000       0.536391        14.5959 
 208   0.0000       0.539196        14.6723 
 209   0.0000       0.546970        14.8838 
 210   0.0000       0.547509        14.8985 
 211   0.0000       0.552344        15.0300 
 212   0.0000       0.562722        15.3125 
 213   0.0000       0.570922        15.5356 
 214   0.0000       0.574168        15.6239 
 215   0.0000       0.581760        15.8305 
 216   0.0000       0.583991        15.8912 
 217   0.0000       0.587710        15.9924 
 218   0.0000       0.592678        16.1276 
[...]
   Lowest Energy          :     0.141866289254
   Maximum Energy change  :     0.000980564597 (vector 9)
   Maximum residual norm  :     0.000072924044

                       ****Iteration    4****
              <<< Entering MO-section for Build Sigma(Double) >>>
   Forming the XC and CPCM contribution:
   Time for densities:            0.145
   Time for XC-Integration:      13.565
   Time for LR-CPCM terms:        7.973
   Time for Sigma-Completion:     0.141
   Time for building 10 sigma-vectors
   Data Preparation Phase         ...     0.01 sec
   Transformed RI Coulomb         ...     0.32 sec
   Transformed RI-exchange        ...    95.85 sec
   (ab|v) reading and digestion   ...    83.85 sec
   Final sigma-completion         ...     0.00 sec
   Done building sigma-vectors             Size of expansion space: 70
   Lowest Energy          :     0.141843624069
   Maximum Energy change  :     0.000132304329 (vector 9)
   Maximum residual norm  :     0.000009056888
   Rebuilding the expansion space

                       ****Iteration    5****
              <<< Entering MO-section for Build Sigma(Double) >>>
   Forming the XC and CPCM contribution:
   Time for densities:            0.287
   Time for XC-Integration:      27.551
   Time for LR-CPCM terms:       12.740
   Time for Sigma-Completion:     0.242
   Time for building 20 sigma-vectors
   Data Preparation Phase         ...     0.01 sec
   Transformed RI Coulomb         ...     0.55 sec
   Transformed RI-exchange        ...   290.56 sec
   (ab|v) reading and digestion   ...   268.37 sec
   Final sigma-completion         ...     0.01 sec
   Done building sigma-vectors             Size of expansion space: 20
   Lowest Energy          :     0.141842425698
   Maximum Energy change  :     0.000014217168 (vector 9)
   Maximum residual norm  :     0.000001627928

                       ****Iteration    6****
              <<< Entering MO-section for Build Sigma(Double) >>>
   Forming the XC and CPCM contribution:
   Time for densities:            0.145
   Time for XC-Integration:      13.439
   Time for LR-CPCM terms:        7.930
   Time for Sigma-Completion:     0.117
   Time for building 10 sigma-vectors
   Data Preparation Phase         ...     0.01 sec
   Transformed RI Coulomb         ...     0.34 sec
   Transformed RI-exchange        ...    97.92 sec
   (ab|v) reading and digestion   ...    86.80 sec
   Final sigma-completion         ...     0.00 sec
   Done building sigma-vectors             Size of expansion space: 30
   Lowest Energy          :     0.141842309265
   Maximum Energy change  :     0.000003586613 (vector 9)
   Maximum residual norm  :     0.000000234430

      *** CONVERGENCE OF RESIDUAL NORM REACHED ***

Storing the converged CI vectors               ... optpbed3-b2gp-plyp-train-16_job2.cis1

                 *** DAVIDSON DONE ***

Total time for solving the CIS problem:   997.713sec

------------------
DOUBLES CORRECTION (Double precision version)
------------------

The (D) correction will be scaled by  0.3600
Doing v(i,a)*T(i,a) terms (RI)                    ... ok
Doing u(i,j,a,b) terms for state   0              ... ok
Doing u(i,j,a,b) terms for state   1              ... ok
Doing u(i,j,a,b) terms for state   2              ... ok
Doing u(i,j,a,b) terms for state   3              ... ok
Doing u(i,j,a,b) terms for state   4              ... ok
Doing u(i,j,a,b) terms for state   5              ... ok
Doing u(i,j,a,b) terms for state   6              ... ok
Doing u(i,j,a,b) terms for state   7              ... ok
Doing u(i,j,a,b) terms for state   8              ... ok
Doing u(i,j,a,b) terms for state   9              ... ok

Contributions to the (D) correction(s) (in eV)

STATE  Final   Init.   Total   v(ext)   v(int)  v(3)    u
       omega   omega     (D)                             
-----------------------------------------------------------------------------
   0   3.605   3.860  -0.255   0.682   1.279  -0.078  -2.138
   1   4.483   4.650  -0.167   0.273   1.278  -0.025  -1.694
   2   4.438   4.679  -0.242   0.420   1.277  -0.042  -1.897
   3   4.654   5.075  -0.421   0.481   1.251  -0.032  -2.121
   4   5.112   5.227  -0.115   0.046   1.278  -0.002  -1.436
   5   5.151   5.264  -0.113   0.100   1.277  -0.007  -1.483
   6   5.357   5.398  -0.041   0.077   1.279  -0.004  -1.393
   7   5.165   5.473  -0.308   0.504   1.253  -0.051  -2.015
   8   5.465   5.595  -0.130   0.094   1.268  -0.006  -1.486
   9   5.674   5.779  -0.105   0.045   1.274  -0.002  -1.422

(D)-timings
 V(i,a)*T(i,a) terms           ...   285.284 sec
 U(i,j,a,b) 3-internal         ...     5.060 sec
 U(i,j,a,b) 3-external         ...   122.158 sec
 U(i,j,a,b) pair terms         ...   158.072 sec
 Total measured time           ...  1321.567 sec

 Time for (ab|v) I/O           ...    52.898 sec


------------------------------------
TD-DFT/TDA EXCITED STATES (SINGLETS)
------------------------------------

the weight of the individual excitations are printed if larger than 1.0e-02

STATE  1:  E=   0.132474 au      3.605 eV    29074.7 cm**-1 <S**2> =   0.000000
    54a ->  55a  :     0.911902 (c=  0.95493542)
    54a ->  61a  :     0.023641 (c=  0.15375724)

STATE  2:  E=   0.164731 au      4.483 eV    36154.2 cm**-1 <S**2> =   0.000000
    54a ->  56a  :     0.428491 (c=  0.65459226)
    54a ->  59a  :     0.030141 (c= -0.17361230)
    54a ->  60a  :     0.272248 (c= -0.52177411)
    54a ->  61a  :     0.105988 (c= -0.32555755)
    54a ->  62a  :     0.011444 (c= -0.10697859)
    54a ->  63a  :     0.042186 (c=  0.20539133)
    54a ->  64a  :     0.012045 (c= -0.10974817)

STATE  3:  E=   0.163089 au      4.438 eV    35793.9 cm**-1 <S**2> =   0.000000
    51a ->  55a  :     0.011567 (c=  0.10754884)
    54a ->  55a  :     0.022167 (c= -0.14888562)
    54a ->  56a  :     0.262744 (c=  0.51258590)
    54a ->  59a  :     0.143051 (c=  0.37822073)
    54a ->  60a  :     0.062173 (c=  0.24934554)
    54a ->  61a  :     0.325813 (c=  0.57080016)
    54a ->  63a  :     0.053981 (c=  0.23233765)
    54a ->  64a  :     0.026742 (c= -0.16352949)
    54a ->  66a  :     0.011904 (c= -0.10910686)

STATE  4:  E=   0.171025 au      4.654 eV    37535.7 cm**-1 <S**2> =   0.000000
    52a ->  63a  :     0.035349 (c= -0.18801278)
    52a ->  64a  :     0.013920 (c= -0.11798105)
    53a ->  55a  :     0.042659 (c= -0.20654050)
    53a ->  60a  :     0.016392 (c=  0.12803271)
    53a ->  61a  :     0.018913 (c=  0.13752478)
    54a ->  56a  :     0.051489 (c= -0.22691203)
    54a ->  57a  :     0.011554 (c=  0.10749082)
    54a ->  58a  :     0.028994 (c= -0.17027661)
    54a ->  59a  :     0.024780 (c=  0.15741751)
    54a ->  60a  :     0.024089 (c= -0.15520533)
    54a ->  62a  :     0.010257 (c= -0.10127562)
    54a ->  63a  :     0.432044 (c=  0.65730029)
    54a ->  64a  :     0.186436 (c=  0.43178275)
    54a ->  67a  :     0.012888 (c= -0.11352333)

STATE  5:  E=   0.187870 au      5.112 eV    41232.8 cm**-1 <S**2> =   0.000000
    54a ->  56a  :     0.012292 (c=  0.11087011)
    54a ->  57a  :     0.773670 (c= -0.87958535)
    54a ->  58a  :     0.036870 (c= -0.19201557)
    54a ->  59a  :     0.011203 (c= -0.10584589)
    54a ->  60a  :     0.039852 (c=  0.19962919)
    54a ->  63a  :     0.021110 (c=  0.14529443)
    54a ->  68a  :     0.010830 (c= -0.10406544)
    54a ->  69a  :     0.010814 (c=  0.10399031)
    54a ->  70a  :     0.010707 (c= -0.10347352)

STATE  6:  E=   0.189296 au      5.151 eV    41545.7 cm**-1 <S**2> =   0.000000
    54a ->  58a  :     0.734139 (c=  0.85681890)
    54a ->  60a  :     0.019518 (c=  0.13970805)
    54a ->  64a  :     0.104075 (c=  0.32260600)
    54a ->  66a  :     0.022183 (c=  0.14893868)
    54a ->  69a  :     0.022734 (c=  0.15077816)

STATE  7:  E=   0.196866 au      5.357 eV    43207.0 cm**-1 <S**2> =   0.000000
    54a ->  58a  :     0.011969 (c=  0.10940201)
    54a ->  59a  :     0.180800 (c= -0.42520587)
    54a ->  60a  :     0.028828 (c= -0.16978894)
    54a ->  61a  :     0.060741 (c=  0.24645635)
    54a ->  62a  :     0.550039 (c=  0.74164606)
    54a ->  63a  :     0.017225 (c=  0.13124441)
    54a ->  66a  :     0.010572 (c= -0.10282134)
    54a ->  68a  :     0.018414 (c=  0.13569660)
    54a ->  69a  :     0.018350 (c= -0.13546350)

STATE  8:  E=   0.189806 au      5.165 eV    41657.6 cm**-1 <S**2> =   0.000000
    51a ->  55a  :     0.106169 (c=  0.32583628)
    53a ->  63a  :     0.011725 (c=  0.10828391)
    54a ->  56a  :     0.017261 (c= -0.13138241)
    54a ->  57a  :     0.024661 (c= -0.15703713)
    54a ->  58a  :     0.062531 (c=  0.25006179)
    54a ->  61a  :     0.012533 (c= -0.11194871)
    54a ->  62a  :     0.085492 (c= -0.29239028)
    54a ->  64a  :     0.028023 (c= -0.16740051)
    54a ->  66a  :     0.024870 (c= -0.15770271)
    54a ->  68a  :     0.047421 (c=  0.21776389)
    54a ->  69a  :     0.333624 (c= -0.57760175)
    54a ->  70a  :     0.074923 (c= -0.27372072)
    54a ->  76a  :     0.011428 (c= -0.10690153)

STATE  9:  E=   0.200853 au      5.465 eV    44082.2 cm**-1 <S**2> =   0.000000
    52a ->  57a  :     0.017113 (c= -0.13081580)
    52a ->  63a  :     0.010658 (c= -0.10323769)
    53a ->  55a  :     0.013802 (c= -0.11748242)
    54a ->  56a  :     0.161617 (c=  0.40201606)
    54a ->  57a  :     0.030357 (c=  0.17423317)
    54a ->  58a  :     0.034922 (c= -0.18687346)
    54a ->  59a  :     0.051495 (c= -0.22692579)
    54a ->  60a  :     0.198440 (c=  0.44546591)
    54a ->  61a  :     0.035989 (c= -0.18970879)
    54a ->  63a  :     0.027701 (c= -0.16643523)
    54a ->  64a  :     0.095463 (c=  0.30897094)
    54a ->  65a  :     0.028241 (c=  0.16805168)
    54a ->  66a  :     0.039504 (c=  0.19875510)
    54a ->  67a  :     0.062355 (c= -0.24970924)
    54a ->  68a  :     0.058266 (c=  0.24138400)
    54a ->  69a  :     0.018022 (c= -0.13424435)
    54a ->  71a  :     0.020749 (c=  0.14404498)

STATE 10:  E=   0.208526 au      5.674 eV    45766.1 cm**-1 <S**2> =   0.000000
    54a ->  56a  :     0.014444 (c= -0.12018314)
    54a ->  57a  :     0.030855 (c=  0.17565457)
    54a ->  59a  :     0.325007 (c= -0.57009344)
    54a ->  60a  :     0.137383 (c=  0.37065275)
    54a ->  62a  :     0.069857 (c= -0.26430539)
    54a ->  63a  :     0.173669 (c=  0.41673636)
    54a ->  64a  :     0.125878 (c= -0.35479327)
    54a ->  70a  :     0.016682 (c=  0.12915848)


-----------------------------
TD-DFT/TDA-EXCITATION SPECTRA
-----------------------------

Center of mass = (  0.1115, -0.0247, -0.0152)
Calculating the Dipole integrals                  ... done
Transforming integrals                            ... done
Calculating the Linear Momentum integrals         ... done
Transforming integrals                            ... done
Calculating angular momentum integrals            ... done
Transforming integrals                            ... done

-----------------------------------------------------------------------------
         ABSORPTION SPECTRUM VIA TRANSITION ELECTRIC DIPOLE MOMENTS
-----------------------------------------------------------------------------
State   Energy    Wavelength  fosc         T2        TX        TY        TZ  
        (cm-1)      (nm)                 (au**2)    (au)      (au)      (au) 
-----------------------------------------------------------------------------
   1   29074.7    343.9   0.430666456   4.87642  -2.20002  -0.05173  -0.18342
   2   36154.2    276.6   0.140971282   1.28365  -1.03478  -0.36095  -0.28740
   3   35793.9    279.4   0.273688994   2.51724   1.39283   0.62375   0.43381
   4   37535.7    266.4   0.035662899   0.31279   0.50236   0.04574   0.24152
   5   41232.8    242.5   0.013716177   0.10951   0.20304   0.03731  -0.25864
   6   41545.7    240.7   0.014670406   0.11625   0.22059  -0.25997  -0.00212
   7   43207.0    231.4   0.012481847   0.09510  -0.30262  -0.05351   0.02577
   8   41657.6    240.1   0.111470478   0.88093  -0.42306   0.70988   0.44500
   9   44082.2    226.8   0.011680298   0.08723  -0.10431   0.27210  -0.04808
  10   45766.1    218.5   0.013578655   0.09768   0.18848   0.16703  -0.18507

-----------------------------------------------------------------------------
         ABSORPTION SPECTRUM VIA TRANSITION VELOCITY DIPOLE MOMENTS
-----------------------------------------------------------------------------
State   Energy    Wavelength   fosc        P2         PX        PY        PZ  
        (cm-1)      (nm)                 (au**2)     (au)      (au)      (au) 
-----------------------------------------------------------------------------
   1   29074.7    343.9   0.087530503   0.01739   0.12760   0.02274   0.02440
   2   36154.2    276.6   0.082737812   0.02044   0.13954   0.01810   0.02538
   3   35793.9    279.4   0.150340701   0.03678  -0.18781  -0.02832  -0.02652
   4   37535.7    266.4   0.019977305   0.00512  -0.07073   0.01090  -0.00188
   5   41232.8    242.5   0.012480577   0.00352  -0.03263  -0.01368   0.04760
   6   41545.7    240.7   0.007432725   0.00211  -0.03238   0.03162  -0.00787
   7   43207.0    231.4   0.005583851   0.00165   0.03605   0.01803   0.00489
   8   41657.6    240.1   0.052789195   0.01503   0.08182  -0.08035  -0.04335
   9   44082.2    226.8   0.009931556   0.00299   0.01997  -0.04604   0.02177
  10   45766.1    218.5   0.011176781   0.00350  -0.03344  -0.03008   0.03838

-------------------------------------------------------------------
                             CD SPECTRUM
-------------------------------------------------------------------
State  Energy     Wavelength     R         MX        MY        MZ   
       (cm-1)       (nm)     (1e40*cgs)   (au)      (au)      (au)  
-------------------------------------------------------------------
   1   29074.7    343.9     -6.54129   0.03219   0.21153  -0.37008
   2   36154.2    276.6     61.34891  -0.08976  -0.28179   0.22432
   3   35793.9    279.4    -65.29804  -0.05801   0.13388  -0.32553
   4   37535.7    266.4     20.31561   0.03090  -0.12343   0.13753
   5   41232.8    242.5     23.92651   0.02437  -0.21273  -0.20778
   6   41545.7    240.7    -14.74842  -0.13820   0.00389  -0.10083
   7   43207.0    231.4      6.11797  -0.01813  -0.09109   0.10150
   8   41657.6    240.1    -21.94536  -0.03038  -0.18623   0.16360
   9   44082.2    226.8     -5.50027   0.02923  -0.00561   0.14751
  10   45766.1    218.5      0.09108   0.07476  -0.04214   0.03706

-------------------------------------------------------------------
         CD SPECTRUM VIA TRANSITION VELOCITY DIPOLE MOMENTS        
-------------------------------------------------------------------
State  Energy     Wavelength     R         MX        MY        MZ   
       (cm-1)       (nm)     (1e40*cgs)   (au)      (au)      (au)  
-------------------------------------------------------------------
   1   29074.7    343.9     -0.39729   0.03219   0.21153  -0.37008
   2   36154.2    276.6    -34.15156  -0.08976  -0.28179   0.22432
   3   35793.9    279.4     45.48925  -0.05801   0.13388  -0.32553
   4   37535.7    266.4    -10.44802   0.03090  -0.12343   0.13753
   5   41232.8    242.5    -19.50669   0.02437  -0.21273  -0.20778
   6   41545.7    240.7     13.42996  -0.13820   0.00389  -0.10083
   7   43207.0    231.4     -4.30958  -0.01813  -0.09109   0.10150
   8   41657.6    240.1     13.37804  -0.03038  -0.18623   0.16360
   9   44082.2    226.8      9.51400   0.02923  -0.00561   0.14751
  10   45766.1    218.5      0.43002   0.07476  -0.04214   0.03706

Total run time:     2324.087 sec

           *** ORCA-CIS/TD-DFT FINISHED WITHOUT ERROR ***

Maximum memory used throughout the entire CIS-calculation: 784.6 MB

-----------------------
CIS/TD-DFT TOTAL ENERGY
-----------------------

    E(SCF)  =   -648.702681146 Eh
    DE(CIS) =      0.132474223 Eh (Root  1)
    ----------------------------- ---------
    E(tot)  =   -648.570206923 Eh



-------------------------------------------------------------------------------
                          DFT DISPERSION CORRECTION                            
                                                                               
                              DFTD3 V3.1  Rev 1                                
                          USING Becke-Johnson damping                          
-------------------------------------------------------------------------------
The B2GP-PLYP functional is recognized
Active option DFTDOPT                   ...         4   

molecular C6(AA) [au] = 9615.874985 


            DFT-D V3
 parameters
 s6 scaling factor         :     0.5600 
 a1 scaling factor         :     0.0000 
 s8 scaling factor         :     0.2597 
 a2 scaling factor         :     6.3332 
 ad hoc parameters k1-k3   :    16.0000     1.3333    -4.0000 

 Edisp/kcal,au: -13.103591888193  -0.020881900644 
 E6   /kcal   : -10.206168068 
 E8   /kcal   :  -2.897423820 
 % E8         :  22.111676283 

-------------------------   ----------------
Dispersion correction           -0.020881901
-------------------------   ----------------


-------------------------   --------------------
FINAL SINGLE POINT ENERGY      -648.591088823496
-------------------------   --------------------


                            ***************************************
                            *     ORCA property calculations      *
                            ***************************************


  WARNING: The energy has been calculated at the MP2 level but the densities
           used in the property calculations are still SCF densities
           MP2 response densities have not been calculated 
           use %mp2 Density relaxed end
           or  %mp2 Density unrelaxed end

                                    ---------------------
                                    Active property flags
                                    ---------------------
   (+) Dipole Moment


------------------------------------------------------------------------------
                       ORCA ELECTRIC PROPERTIES CALCULATION
------------------------------------------------------------------------------

Dipole Moment Calculation                       ... on
Quadrupole Moment Calculation                   ... off
Polarizability Calculation                      ... off
GBWName                                         ... optpbed3-b2gp-plyp-train-16_job2.gbw
Electron density                                ... optpbed3-b2gp-plyp-train-16_job2.scfp
The origin for moment calculation is the CENTER OF MASS  = ( 0.111460, -0.024743 -0.015247)

-------------
DIPOLE MOMENT
-------------
                                X             Y             Z
Electronic contribution:      0.16761      -1.32550      -0.88779
Nuclear contribution   :     -2.09843       0.69018       0.39380
                        -----------------------------------------
Total Dipole Moment    :     -1.93081      -0.63531      -0.49399
                        -----------------------------------------
Magnitude (a.u.)       :      2.09181
Magnitude (Debye)      :      5.31697



--------------------
Rotational spectrum 
--------------------
 
Rotational constants in cm-1:     0.037282     0.011952     0.009213 
Rotational constants in MHz :  1117.691598   358.297606   276.187293 

 Dipole components along the rotational axes: 
x,y,z [a.u.] :    -1.926908    -0.809026     0.090468 
x,y,z [Debye]:    -4.897810    -2.056382     0.229950 

 

Timings for individual modules:

Sum of individual times         ...     3441.606 sec (=  57.360 min)
GTO integral calculation        ...        3.610 sec (=   0.060 min)   0.1 %
SCF iterations                  ...      639.106 sec (=  10.652 min)  18.6 %
MP2 module                      ...      473.938 sec (=   7.899 min)  13.8 %
CIS module                      ...     2324.951 sec (=  38.749 min)  67.6 %



                             ****ORCA TERMINATED NORMALLY****
TOTAL RUN TIME: 0 days 2 hours 3 minutes 51 seconds 449 msec
