
                                 *****************
                                 * O   R   C   A *
                                 *****************

                                            #,                                       
                                            ###                                      
                                            ####                                     
                                            #####                                    
                                            ######                                   
                                           ########,                                 
                                     ,,################,,,,,                         
                               ,,#################################,,                 
                          ,,##########################################,,             
                       ,#########################################, ''#####,          
                    ,#############################################,,   '####,        
                  ,##################################################,,,,####,       
                ,###########''''           ''''###############################       
              ,#####''   ,,,,##########,,,,          '''####'''          '####       
            ,##' ,,,,###########################,,,                        '##       
           ' ,,###''''                  '''############,,,                           
         ,,##''                                '''############,,,,        ,,,,,,###''
      ,#''                                            '''#######################'''  
     '                                                          ''''####''''         
             ,#######,   #######,   ,#######,      ##                                
            ,#'     '#,  ##    ##  ,#'     '#,    #''#        ######   ,####,        
            ##       ##  ##   ,#'  ##            #'  '#       #        #'  '#        
            ##       ##  #######   ##           ,######,      #####,   #    #        
            '#,     ,#'  ##    ##  '#,     ,#' ,#      #,         ##   #,  ,#        
             '#######'   ##     ##  '#######'  #'      '#     #####' # '####'        



                  #######################################################
                  #                        -***-                        #
                  #          Department of theory and spectroscopy      #
                  #    Directorship and core code : Frank Neese         #
                  #        Max Planck Institute fuer Kohlenforschung    #
                  #                Kaiser Wilhelm Platz 1               #
                  #                 D-45470 Muelheim/Ruhr               #
                  #                      Germany                        #
                  #                                                     #
                  #                  All rights reserved                #
                  #                        -***-                        #
                  #######################################################


                         Program Version 5.0.2 -  RELEASE  -


 With contributions from (in alphabetic order):
   Daniel Aravena         : Magnetic Suceptibility
   Michael Atanasov       : Ab Initio Ligand Field Theory (pilot matlab implementation)
   Alexander A. Auer      : GIAO ZORA, VPT2 properties, NMR spectrum
   Ute Becker             : Parallelization
   Giovanni Bistoni       : ED, misc. LED, open-shell LED, HFLD
   Martin Brehm           : Molecular dynamics
   Dmytro Bykov           : SCF Hessian
   Vijay G. Chilkuri      : MRCI spin determinant printing, contributions to CSF-ICE
   Dipayan Datta          : RHF DLPNO-CCSD density
   Achintya Kumar Dutta   : EOM-CC, STEOM-CC
   Dmitry Ganyushin       : Spin-Orbit,Spin-Spin,Magnetic field MRCI
   Miquel Garcia          : C-PCM and meta-GGA Hessian, CC/C-PCM, Gaussian charge scheme
   Yang Guo               : DLPNO-NEVPT2, F12-NEVPT2, CIM, IAO-localization
   Andreas Hansen         : Spin unrestricted coupled pair/coupled cluster methods
   Benjamin Helmich-Paris : MC-RPA, TRAH-SCF, COSX integrals
   Lee Huntington         : MR-EOM, pCC
   Robert Izsak           : Overlap fitted RIJCOSX, COSX-SCS-MP3, EOM
   Marcus Kettner         : VPT2
   Christian Kollmar      : KDIIS, OOCD, Brueckner-CCSD(T), CCSD density, CASPT2, CASPT2-K
   Simone Kossmann        : Meta GGA functionals, TD-DFT gradient, OOMP2, MP2 Hessian
   Martin Krupicka        : Initial AUTO-CI
   Lucas Lang             : DCDCAS
   Marvin Lechner         : AUTO-CI (C++ implementation), FIC-MRCC
   Dagmar Lenk            : GEPOL surface, SMD
   Dimitrios Liakos       : Extrapolation schemes; Compound Job, initial MDCI parallelization
   Dimitrios Manganas     : Further ROCIS development; embedding schemes
   Dimitrios Pantazis     : SARC Basis sets
   Anastasios Papadopoulos: AUTO-CI, single reference methods and gradients
   Taras Petrenko         : DFT Hessian,TD-DFT gradient, ASA, ECA, R-Raman, ABS, FL, XAS/XES, NRVS
   Peter Pinski           : DLPNO-MP2, DLPNO-MP2 Gradient
   Christoph Reimann      : Effective Core Potentials
   Marius Retegan         : Local ZFS, SOC
   Christoph Riplinger    : Optimizer, TS searches, QM/MM, DLPNO-CCSD(T), (RO)-DLPNO pert. Triples
   Tobias Risthaus        : Range-separated hybrids, TD-DFT gradient, RPA, STAB
   Michael Roemelt        : Original ROCIS implementation
   Masaaki Saitow         : Open-shell DLPNO-CCSD energy and density
   Barbara Sandhoefer     : DKH picture change effects
   Avijit Sen             : IP-ROCIS
   Kantharuban Sivalingam : CASSCF convergence, NEVPT2, FIC-MRCI
   Bernardo de Souza      : ESD, SOC TD-DFT
   Georgi Stoychev        : AutoAux, RI-MP2 NMR, DLPNO-MP2 response
   Willem Van den Heuvel  : Paramagnetic NMR
   Boris Wezisla          : Elementary symmetry handling
   Frank Wennmohs         : Technical directorship


 We gratefully acknowledge several colleagues who have allowed us to
 interface, adapt or use parts of their codes:
   Stefan Grimme, W. Hujo, H. Kruse, P. Pracht,  : VdW corrections, initial TS optimization,
                  C. Bannwarth, S. Ehlert          DFT functionals, gCP, sTDA/sTD-DF
   Ed Valeev, F. Pavosevic, A. Kumar             : LibInt (2-el integral package), F12 methods
   Garnet Chan, S. Sharma, J. Yang, R. Olivares  : DMRG
   Ulf Ekstrom                                   : XCFun DFT Library
   Mihaly Kallay                                 : mrcc  (arbitrary order and MRCC methods)
   Jiri Pittner, Ondrej Demel                    : Mk-CCSD
   Frank Weinhold                                : gennbo (NPA and NBO analysis)
   Christopher J. Cramer and Donald G. Truhlar   : smd solvation model
   Lars Goerigk                                  : TD-DFT with DH, B97 family of functionals
   V. Asgeirsson, H. Jonsson                     : NEB implementation
   FAccTs GmbH                                   : IRC, NEB, NEB-TS, DLPNO-Multilevel, CI-OPT
                                                   MM, QMMM, 2- and 3-layer-ONIOM, Crystal-QMMM,
                                                   LR-CPCM, SF, NACMEs, symmetry and pop. for TD-DFT,
                                                   nearIR, NL-DFT gradient (VV10), updates on ESD,
                                                   ML-optimized integration grids
   S Lehtola, MJT Oliveira, MAL Marques          : LibXC Library
   Liviu Ungur et al                             : ANISO software


 Your calculation uses the libint2 library for the computation of 2-el integrals
 For citations please refer to: http://libint.valeyev.net

 Your ORCA version has been built with support for libXC version: 5.1.0
 For citations please refer to: https://tddft.org/programs/libxc/

 This ORCA versions uses:
   CBLAS   interface :  Fast vector & matrix operations
   LAPACKE interface :  Fast linear algebra routines
   SCALAPACK package :  Parallel linear algebra routines
   Shared memory     :  Shared parallel matrices
   BLAS/LAPACK       :  OpenBLAS 0.3.15  USE64BITINT DYNAMIC_ARCH NO_AFFINITY SkylakeX SINGLE_THREADED
        Core in use  :  SkylakeX
   Copyright (c) 2011-2014, The OpenBLAS Project


Your calculation utilizes the SMD solvation module
Please cite in your paper:
A.V. Marenich, C.J. Cramer, D.G. Truhlar J. Phys. Chem. B, 113, (2009), 6378 

================================================================================

----- Orbital basis set information -----
Your calculation utilizes the basis: aug-cc-pVTZ 
    H, B-Ne : Obtained from the ccRepo (grant-hill.group.shef.ac.uk/ccrepo) Feb. 2017
              R. A. Kendall, T. H. Dunning, Jr., R. J. Harrison, J. Chem. Phys. 96, 6796 (1992)
         He : Obtained from the ccRepo (grant-hill.group.shef.ac.uk/ccrepo) Feb. 2017
              D. E. Woon, T. H. Dunning, Jr., J. Chem. Phys. 100, 2975 (1994)
  Li-Be, Na : Obtained from the ccRepo (grant-hill.group.shef.ac.uk/ccrepo) Feb. 2017
              B. P. Prascher, D. E. Woon, K. A. Peterson, T. H. Dunning, Jr., A. K. Wilson, Theor. Chem. Acc. 128, 69 (2011)
         Mg : Obtained from the Peterson Research Group Website (tyr0.chem.wsu.edu/~kipeters) Feb. 2017
              B. P. Prascher, D. E. Woon, K. A. Peterson, T. H. Dunning, Jr., A. K. Wilson, Theor. Chem. Acc. 128, 69 (2011)
      Al-Ar : Obtained from the ccRepo (grant-hill.group.shef.ac.uk/ccrepo) Feb. 2017
              D. E. Woon, T. H. Dunning, Jr., J. Chem. Phys. 98, 1358 (1993)
      Sc-Zn : Obtained from the ccRepo (grant-hill.group.shef.ac.uk/ccrepo) Feb. 2017
              N. B. Balabanov, K. A. Peterson, J. Chem. Phys. 123, 064107 (2005)
              N. B. Balabanov, K. A. Peterson, J. Chem. Phys. 125, 074110 (2006)
      Ga-Kr : Obtained from the ccRepo (grant-hill.group.shef.ac.uk/ccrepo) Feb. 2017
              A. K. Wilson, D. E. Woon, K. A. Peterson, T. H. Dunning, Jr., J. Chem. Phys. 110, 7667 (1999)
     Ag, Au : Obtained from the Peterson Research Group Website (tyr0.chem.wsu.edu/~kipeters) Feb. 2017
              K. A. Peterson, C. Puzzarini, Theor. Chem. Acc. 114, 283 (2005)

The basis set includes element-specific modifications.

Your calculation utilizes the basis: cc-pVTZ 
       H, B-Ne : Obtained from the ccRepo (grant-hill.group.shef.ac.uk/ccrepo) Feb. 2017
                 T. H. Dunning, Jr., J. Chem. Phys. 90, 1007 (1989)
            He : Obtained from the ccRepo (grant-hill.group.shef.ac.uk/ccrepo) Feb. 2017
                 D. E. Woon, T. H. Dunning, Jr., J. Chem. Phys. 100, 2975 (1994)
  Li-Be, Na-Mg : Obtained from the ccRepo (grant-hill.group.shef.ac.uk/ccrepo) Feb. 2017
                 B. P. Prascher, D. E. Woon, K. A. Peterson, T. H. Dunning, Jr., A. K. Wilson, Theor. Chem. Acc. 128, 69 (2011)
         Al-Ar : Obtained from the ccRepo (grant-hill.group.shef.ac.uk/ccrepo) Feb. 2017
                 D. E. Woon, T. H. Dunning, Jr., J. Chem. Phys. 98, 1358 (1993)
            Ca : Obtained from the Peterson Research Group Website (tyr0.chem.wsu.edu/~kipeters) Feb. 2017
                 J. Koput, K. A. Peterson, J. Phys. Chem. 106, 9595 (2002)
         Sc-Zn : Obtained from the ccRepo (grant-hill.group.shef.ac.uk/ccrepo) Feb. 2017
                 N. B. Balabanov, K. A. Peterson, J. Chem. Phys. 123, 064107 (2005)
                 N. B. Balabanov, K. A. Peterson, J. Chem. Phys. 125, 074110 (2006)
         Ga-Kr : Obtained from the ccRepo (grant-hill.group.shef.ac.uk/ccrepo) Feb. 2017
                 A. K. Wilson, D. E. Woon, K. A. Peterson, T. H. Dunning, Jr., J. Chem. Phys. 110, 7667 (1999)
             Y : Obtained from the ccRepo (grant-hill.group.shef.ac.uk/ccrepo) Feb. 2017
                 K. A. Peterson, D. Figgen, M. Dolg, H. Stoll, J. Chem. Phys. 126, 124101 (2007)
        Ag, Au : Obtained from the Peterson Research Group Website (tyr0.chem.wsu.edu/~kipeters) Feb. 2017
                 K. A. Peterson, C. Puzzarini, Theor. Chem. Acc. 114, 283 (2005)

----- AuxJ basis set information -----
Your calculation utilizes the auxiliary basis: aug-cc-pVTZ/JK 
  H, B-F, Al-Cl, Ga-Br : Obtained from the TURBOMOLE 7.0 basis set library

The basis set includes element-specific modifications.

Your calculation utilizes the auxiliary basis: cc-pVTZ/JK 
  H, B-F, Al-Cl, Ga-Br : Obtained from the TURBOMOLE 7.0 basis set library

----- AuxC basis set information -----
Your calculation utilizes the auxiliary basis: aug-cc-pVTZ/C 
  H-He, B-F, Al-Ar, Ga-Kr : Obtained from the EMSL Basis Set Exchange (bse.pnl.gov) Feb. 2017
                            F. Weigend, A. Kohn, C. Hattig, J. Chem. Phys. 116, 3175 (2002)
                   Be, Mg : Obtained from the TURBOMOLE 7.0 basis set library
                            C. Haettig, Phys. Chem. Chem. Phys. 7, 59 (2005)
                       Ne : Obtained from the EMSL Basis Set Exchange (bse.pnl.gov) Feb. 2017
                            C. Haettig, Phys. Chem. Chem. Phys. 7, 59 (2005)
                            F. Weigend, A. Kohn, C. Hattig, J. Chem. Phys. 116, 3175 (2002)
                    Sc-Zn : Obtained from the EMSL Basis Set Exchange (bse.pnl.gov) Feb. 2017
                            J. G. Hill, J. A. Platts, J. Chem. Phys. 128, 044104 (2008)

The basis set includes element-specific modifications.

Your calculation utilizes the auxiliary basis: cc-pVTZ/C 
  Obtained from the EMSL Basis Set Exchange (bse.pnl.gov) Feb. 2017
  H-He, B-F, Al-Ar, Ga-Kr : F. Weigend, A. Kohn, C. Hattig, J. Chem. Phys. 116, 3175 (2002)
             Li-Be, Na-Mg : C. Haettig, Phys. Chem. Chem. Phys. 7, 59 (2005)
                       Ne : C. Haettig, Phys. Chem. Chem. Phys. 7, 59 (2005)
                            F. Weigend, A. Kohn, C. Hattig, J. Chem. Phys. 116, 3175 (2002)
                    Sc-Zn : J. G. Hill, J. A. Platts, J. Chem. Phys. 128, 044104 (2008)

================================================================================
                                        WARNINGS
                       Please study these warnings very carefully!
================================================================================


WARNING: Geometry Optimization
  ===> : Switching off AutoStart
         For restart on a previous wavefunction, please use MOREAD

INFO   : the flag for use of the SHARK integral package has been found!



***************************************
The coordinates will be read from file: 
***************************************


Your calculation utilizes the SMD solvation module
Please cite in your paper:
A.V. Marenich, C.J. Cramer, D.G. Truhlar J. Phys. Chem. B, 113, (2009), 6378 

================================================================================

----- Orbital basis set information -----
Your calculation utilizes the basis: aug-cc-pVTZ 
    H, B-Ne : Obtained from the ccRepo (grant-hill.group.shef.ac.uk/ccrepo) Feb. 2017
              R. A. Kendall, T. H. Dunning, Jr., R. J. Harrison, J. Chem. Phys. 96, 6796 (1992)
         He : Obtained from the ccRepo (grant-hill.group.shef.ac.uk/ccrepo) Feb. 2017
              D. E. Woon, T. H. Dunning, Jr., J. Chem. Phys. 100, 2975 (1994)
  Li-Be, Na : Obtained from the ccRepo (grant-hill.group.shef.ac.uk/ccrepo) Feb. 2017
              B. P. Prascher, D. E. Woon, K. A. Peterson, T. H. Dunning, Jr., A. K. Wilson, Theor. Chem. Acc. 128, 69 (2011)
         Mg : Obtained from the Peterson Research Group Website (tyr0.chem.wsu.edu/~kipeters) Feb. 2017
              B. P. Prascher, D. E. Woon, K. A. Peterson, T. H. Dunning, Jr., A. K. Wilson, Theor. Chem. Acc. 128, 69 (2011)
      Al-Ar : Obtained from the ccRepo (grant-hill.group.shef.ac.uk/ccrepo) Feb. 2017
              D. E. Woon, T. H. Dunning, Jr., J. Chem. Phys. 98, 1358 (1993)
      Sc-Zn : Obtained from the ccRepo (grant-hill.group.shef.ac.uk/ccrepo) Feb. 2017
              N. B. Balabanov, K. A. Peterson, J. Chem. Phys. 123, 064107 (2005)
              N. B. Balabanov, K. A. Peterson, J. Chem. Phys. 125, 074110 (2006)
      Ga-Kr : Obtained from the ccRepo (grant-hill.group.shef.ac.uk/ccrepo) Feb. 2017
              A. K. Wilson, D. E. Woon, K. A. Peterson, T. H. Dunning, Jr., J. Chem. Phys. 110, 7667 (1999)
     Ag, Au : Obtained from the Peterson Research Group Website (tyr0.chem.wsu.edu/~kipeters) Feb. 2017
              K. A. Peterson, C. Puzzarini, Theor. Chem. Acc. 114, 283 (2005)

The basis set includes element-specific modifications.

Your calculation utilizes the basis: cc-pVTZ 
       H, B-Ne : Obtained from the ccRepo (grant-hill.group.shef.ac.uk/ccrepo) Feb. 2017
                 T. H. Dunning, Jr., J. Chem. Phys. 90, 1007 (1989)
            He : Obtained from the ccRepo (grant-hill.group.shef.ac.uk/ccrepo) Feb. 2017
                 D. E. Woon, T. H. Dunning, Jr., J. Chem. Phys. 100, 2975 (1994)
  Li-Be, Na-Mg : Obtained from the ccRepo (grant-hill.group.shef.ac.uk/ccrepo) Feb. 2017
                 B. P. Prascher, D. E. Woon, K. A. Peterson, T. H. Dunning, Jr., A. K. Wilson, Theor. Chem. Acc. 128, 69 (2011)
         Al-Ar : Obtained from the ccRepo (grant-hill.group.shef.ac.uk/ccrepo) Feb. 2017
                 D. E. Woon, T. H. Dunning, Jr., J. Chem. Phys. 98, 1358 (1993)
            Ca : Obtained from the Peterson Research Group Website (tyr0.chem.wsu.edu/~kipeters) Feb. 2017
                 J. Koput, K. A. Peterson, J. Phys. Chem. 106, 9595 (2002)
         Sc-Zn : Obtained from the ccRepo (grant-hill.group.shef.ac.uk/ccrepo) Feb. 2017
                 N. B. Balabanov, K. A. Peterson, J. Chem. Phys. 123, 064107 (2005)
                 N. B. Balabanov, K. A. Peterson, J. Chem. Phys. 125, 074110 (2006)
         Ga-Kr : Obtained from the ccRepo (grant-hill.group.shef.ac.uk/ccrepo) Feb. 2017
                 A. K. Wilson, D. E. Woon, K. A. Peterson, T. H. Dunning, Jr., J. Chem. Phys. 110, 7667 (1999)
             Y : Obtained from the ccRepo (grant-hill.group.shef.ac.uk/ccrepo) Feb. 2017
                 K. A. Peterson, D. Figgen, M. Dolg, H. Stoll, J. Chem. Phys. 126, 124101 (2007)
        Ag, Au : Obtained from the Peterson Research Group Website (tyr0.chem.wsu.edu/~kipeters) Feb. 2017
                 K. A. Peterson, C. Puzzarini, Theor. Chem. Acc. 114, 283 (2005)

----- AuxJ basis set information -----
Your calculation utilizes the auxiliary basis: aug-cc-pVTZ/JK 
  H, B-F, Al-Cl, Ga-Br : Obtained from the TURBOMOLE 7.0 basis set library

The basis set includes element-specific modifications.

Your calculation utilizes the auxiliary basis: cc-pVTZ/JK 
  H, B-F, Al-Cl, Ga-Br : Obtained from the TURBOMOLE 7.0 basis set library

----- AuxC basis set information -----
Your calculation utilizes the auxiliary basis: aug-cc-pVTZ/C 
  H-He, B-F, Al-Ar, Ga-Kr : Obtained from the EMSL Basis Set Exchange (bse.pnl.gov) Feb. 2017
                            F. Weigend, A. Kohn, C. Hattig, J. Chem. Phys. 116, 3175 (2002)
                   Be, Mg : Obtained from the TURBOMOLE 7.0 basis set library
                            C. Haettig, Phys. Chem. Chem. Phys. 7, 59 (2005)
                       Ne : Obtained from the EMSL Basis Set Exchange (bse.pnl.gov) Feb. 2017
                            C. Haettig, Phys. Chem. Chem. Phys. 7, 59 (2005)
                            F. Weigend, A. Kohn, C. Hattig, J. Chem. Phys. 116, 3175 (2002)
                    Sc-Zn : Obtained from the EMSL Basis Set Exchange (bse.pnl.gov) Feb. 2017
                            J. G. Hill, J. A. Platts, J. Chem. Phys. 128, 044104 (2008)

The basis set includes element-specific modifications.

Your calculation utilizes the auxiliary basis: cc-pVTZ/C 
  Obtained from the EMSL Basis Set Exchange (bse.pnl.gov) Feb. 2017
  H-He, B-F, Al-Ar, Ga-Kr : F. Weigend, A. Kohn, C. Hattig, J. Chem. Phys. 116, 3175 (2002)
             Li-Be, Na-Mg : C. Haettig, Phys. Chem. Chem. Phys. 7, 59 (2005)
                       Ne : C. Haettig, Phys. Chem. Chem. Phys. 7, 59 (2005)
                            F. Weigend, A. Kohn, C. Hattig, J. Chem. Phys. 116, 3175 (2002)
                    Sc-Zn : J. G. Hill, J. A. Platts, J. Chem. Phys. 128, 044104 (2008)

================================================================================
                                        WARNINGS
                       Please study these warnings very carefully!
================================================================================

INFO   : Checking CIS options ...

INFO   : the flag for use of the SHARK integral package has been found!

================================================================================
                                       INPUT FILE
================================================================================
NAME = pbe0-train-16.inp
|  1> ! pbe0 aug-cc-PVTZ RIJCOSX Opt
|  2> %maxcore 4000
|  3> %basis
|  4>  AuxJ "aug-cc-PVTZ/JK"
|  5>  AuxC "aug-cc-PVTZ/C"
|  6>  newGTO H "cc-PVTZ" end
|  7>  newAuxJGTO H "cc-PVTZ/JK" end
|  8>  newAuxCGTO H "cc-PVTZ/C" end
|  9> end
| 10> %cpcm
| 11>  SMD true
| 12>  SMDsolvent "dichloromethane"
| 13> end
| 14> %pal nprocs 4 end
| 15> * xyz 0 1
| 16> C         -2.42590        2.44530        1.32870
| 17> C         -1.53060        1.40970        0.75600
| 18> N         -0.22420        1.39910        0.85070
| 19> C          0.23760        0.30770        0.18880
| 20> C          1.66070        0.03280        0.11160
| 21> C          2.22290       -0.69570       -0.93590
| 22> C          3.58340       -0.93750       -0.96820
| 23> C          4.40530       -0.45170        0.03490
| 24> C          3.85890        0.29320        1.06810
| 25> C          2.50060        0.53550        1.10660
| 26> C         -0.84840       -0.40410       -0.32620
| 27> C         -1.04630       -1.61470       -1.01420
| 28> C         -2.30990       -2.01210       -1.33370
| 29> C         -3.42320       -1.21070       -0.97010
| 30> C         -3.24010       -0.05980       -0.28070
| 31> N         -1.97810        0.33520        0.05040
| 32> H         -3.12110        2.00510        2.04440
| 33> H         -1.81580        3.18530        1.83680
| 34> H         -3.00160        2.93770        0.54440
| 35> H          1.59870       -1.04840       -1.74300
| 36> H          4.00740       -1.50310       -1.78600
| 37> H          5.46780       -0.64500        0.00630
| 38> H          4.49780        0.68450        1.84690
| 39> H          2.06160        1.11650        1.90270
| 40> H         -0.19020       -2.21980       -1.26340
| 41> H         -2.47940       -2.93840       -1.85910
| 42> H         -4.41940       -1.52640       -1.23400
| 43> H         -4.04840        0.57990        0.03740
| 44> *
| 45> 
| 46> 
| 47> $new_job
| 48> ! pbe0 aug-cc-PVTZ RIJCOSX SP
| 49> %maxcore 4000
| 50> %basis
| 51>  AuxJ "aug-cc-PVTZ/JK"
| 52>  AuxC "aug-cc-PVTZ/C"
| 53>  newGTO H "cc-PVTZ" end
| 54>  newAuxJGTO H "cc-PVTZ/JK" end
| 55>  newAuxCGTO H "cc-PVTZ/C" end
| 56> end
| 57> %cpcm
| 58>  SMD true
| 59>  SMDsolvent "dichloromethane"
| 60> end
| 61> %pal nprocs 4 end
| 62> %tddft
| 63>  nroots 10
| 64>  maxdim 7
| 65> end
| 66> * xyzfile 0 1
| 67> 
| 68>                          ****END OF INPUT****
================================================================================


                 $$$$$$$$$$$$$$$$$$$$$$$$$$$$$$$$$$$$$$$$$$$$$$ 
                 $ THERE ARE  2 JOBS TO BE PROCESSED THIS RUN $
                 $$$$$$$$$$$$$$$$$$$$$$$$$$$$$$$$$$$$$$$$$$$$$$ 




                 $$$$$$$$$$$$$$$$  JOB NUMBER  1 $$$$$$$$$$$$$$


                       *****************************
                       * Geometry Optimization Run *
                       *****************************

Geometry optimization settings:
Update method            Update   .... BFGS
Choice of coordinates    CoordSys .... Z-matrix Internals
Initial Hessian          InHess   .... Almoef's Model

Convergence Tolerances:
Energy Change            TolE     ....  5.0000e-06 Eh
Max. Gradient            TolMAXG  ....  3.0000e-04 Eh/bohr
RMS Gradient             TolRMSG  ....  1.0000e-04 Eh/bohr
Max. Displacement        TolMAXD  ....  4.0000e-03 bohr
RMS Displacement         TolRMSD  ....  2.0000e-03 bohr
Strict Convergence                ....  False
------------------------------------------------------------------------------
                        ORCA OPTIMIZATION COORDINATE SETUP
------------------------------------------------------------------------------

The optimization will be done in new redundant internal coordinates
Making redundant internal coordinates   ...  (new redundants) done
Evaluating the initial hessian          ...  (Almloef) done
Evaluating the coordinates              ...  done
Calculating the B-matrix                .... done
Calculating the G-matrix                .... done
Diagonalizing the G-matrix              .... done
Small eigenvalue found = 7.428e-03
Small eigenvalue found = 2.903e-02
The first mode is                       ....   71
The number of degrees of freedom        ....   78

    -----------------------------------------------------------------
                    Redundant Internal Coordinates


    -----------------------------------------------------------------
         Definition                    Initial Value    Approx d2E/dq
    -----------------------------------------------------------------
      1. B(C   1,C   0)                  1.4839         0.442484   
      2. B(N   2,C   1)                  1.3099         0.751133   
      3. B(C   3,N   2)                  1.3574         0.630801   
      4. B(C   4,C   3)                  1.4515         0.498516   
      5. B(C   5,C   4)                  1.3943         0.615033   
      6. B(C   6,C   5)                  1.3822         0.642964   
      7. B(C   7,C   6)                  1.3848         0.636796   
      8. B(C   8,C   7)                  1.3860         0.634100   
      9. B(C   9,C   8)                  1.3803         0.647512   
     10. B(C   9,C   4)                  1.3958         0.611700   
     11. B(C  10,C   3)                  1.3969         0.609198   
     12. B(C  11,C  10)                  1.4064         0.588189   
     13. B(C  12,C  11)                  1.3626         0.690949   
     14. B(C  13,C  12)                  1.4191         0.561422   
     15. B(C  14,C  13)                  1.3540         0.713088   
     16. B(N  15,C  14)                  1.3632         0.617510   
     17. B(N  15,C  10)                  1.4016         0.536159   
     18. B(N  15,C   1)                  1.3611         0.622206   
     19. B(H  16,C   0)                  1.0906         0.359369   
     20. B(H  17,C   0)                  1.0854         0.366302   
     21. B(H  18,C   0)                  1.0904         0.359545   
     22. B(H  19,C   5)                  1.0796         0.374190   
     23. B(H  20,C   6)                  1.0810         0.372259   
     24. B(H  21,C   7)                  1.0803         0.373137   
     25. B(H  22,C   8)                  1.0807         0.372662   
     26. B(H  23,C   9)                  1.0789         0.375067   
     27. B(H  24,C  11)                  1.0776         0.376927   
     28. B(H  25,C  12)                  1.0783         0.375866   
     29. B(H  26,C  13)                  1.0778         0.376560   
     30. B(H  27,C  14)                  1.0788         0.375262   
     31. A(C   1,C   0,H  16)          110.8665         0.333398   
     32. A(H  16,C   0,H  17)          109.0455         0.291528   
     33. A(H  17,C   0,H  18)          109.0028         0.291550   
     34. A(H  16,C   0,H  18)          108.5267         0.290676   
     35. A(C   1,C   0,H  18)          110.8602         0.333425   
     36. A(C   1,C   0,H  17)          108.5025         0.334457   
     37. A(C   0,C   1,N   2)          125.4141         0.420143   
     38. A(C   0,C   1,N  15)          123.5475         0.406326   
     39. A(N   2,C   1,N  15)          111.0382         0.443759   
     40. A(C   1,N   2,C   3)          108.0931         0.444863   
     41. A(C   4,C   3,C  10)          130.2509         0.416143   
     42. A(N   2,C   3,C   4)          120.7824         0.416020   
     43. A(N   2,C   3,C  10)          108.9650         0.431203   
     44. A(C   5,C   4,C   9)          118.7579         0.432389   
     45. A(C   3,C   4,C   5)          122.2933         0.416849   
     46. A(C   3,C   4,C   9)          118.9379         0.416446   
     47. A(C   6,C   5,H  19)          119.6368         0.357412   
     48. A(C   4,C   5,C   6)          120.3876         0.436285   
     49. A(C   4,C   5,H  19)          119.9495         0.354727   
     50. A(C   5,C   6,C   7)          120.3906         0.439029   
     51. A(C   7,C   6,H  20)          119.9182         0.356513   
     52. A(C   5,C   6,H  20)          119.6896         0.357098   
     53. A(C   6,C   7,C   8)          119.6395         0.437931   
     54. A(C   8,C   7,H  21)          120.2407         0.356399   
     55. A(C   6,C   7,H  21)          120.1173         0.356656   
     56. A(C   7,C   8,C   9)          120.2051         0.439252   
     57. A(C   9,C   8,H  22)          119.8764         0.357592   
     58. A(C   7,C   8,H  22)          119.9184         0.356322   
     59. A(C   4,C   9,C   8)          120.6011         0.436412   
     60. A(C   8,C   9,H  23)          121.0325         0.357983   
     61. A(C   4,C   9,H  23)          118.3664         0.354541   
     62. A(C   3,C  10,C  11)          136.7487         0.428623   
     63. A(C   3,C  10,N  15)          104.9976         0.418841   
     64. A(C  11,C  10,N  15)          118.1663         0.416231   
     65. A(C  10,C  11,C  12)          119.7506         0.438442   
     66. A(C  12,C  11,H  24)          121.2485         0.362271   
     67. A(C  10,C  11,H  24)          118.9921         0.352491   
     68. A(C  13,C  12,H  25)          119.1188         0.349562   
     69. A(C  11,C  12,H  25)          120.6997         0.362097   
     70. A(C  11,C  12,C  13)          120.1806         0.434777   
     71. A(C  14,C  13,H  26)          119.9081         0.364168   
     72. A(C  12,C  13,H  26)          119.7982         0.349671   
     73. A(C  12,C  13,C  14)          120.2896         0.437255   
     74. A(N  15,C  14,H  27)          116.7572         0.352951   
     75. A(C  13,C  14,H  27)          123.5624         0.363953   
     76. A(C  13,C  14,N  15)          119.6795         0.441914   
     77. A(C  10,N  15,C  14)          121.8742         0.417132   
     78. A(C   1,N  15,C  14)          131.2250         0.428374   
     79. A(C   1,N  15,C  10)          106.8987         0.417695   
     80. D(N   2,C   1,C   0,H  18)    119.5743         0.014445   
     81. D(N   2,C   1,C   0,H  17)     -0.0936         0.014445   
     82. D(N  15,C   1,C   0,H  18)    -60.2250         0.014445   
     83. D(N   2,C   1,C   0,H  16)   -119.8177         0.014445   
     84. D(N  15,C   1,C   0,H  16)     60.3831         0.014445   
     85. D(N  15,C   1,C   0,H  17)   -179.8928         0.014445   
     86. D(C   3,N   2,C   1,N  15)      0.6115         0.042865   
     87. D(C   3,N   2,C   1,C   0)   -179.2092         0.042865   
     88. D(C  10,C   3,N   2,C   1)     -0.8911         0.029269   
     89. D(C   4,C   3,N   2,C   1)    179.5369         0.029269   
     90. D(C   5,C   4,C   3,C  10)     26.9820         0.016926   
     91. D(C   5,C   4,C   3,N   2)   -153.5482         0.016926   
     92. D(C   9,C   4,C   3,N   2)     25.2341         0.016926   
     93. D(C   9,C   4,C   3,C  10)   -154.2356         0.016926   
     94. D(C   6,C   5,C   4,C   3)   -179.8256         0.026150   
     95. D(H  19,C   5,C   4,C   9)   -176.7464         0.026150   
     96. D(H  19,C   5,C   4,C   3)      2.0380         0.026150   
     97. D(C   6,C   5,C   4,C   9)      1.3900         0.026150   
     98. D(H  20,C   6,C   5,H  19)     -1.8208         0.028741   
     99. D(H  20,C   6,C   5,C   4)   -179.9631         0.028741   
    100. D(C   7,C   6,C   5,H  19)    177.7238         0.028741   
    101. D(C   7,C   6,C   5,C   4)     -0.4185         0.028741   
    102. D(H  21,C   7,C   6,H  20)     -0.5793         0.028155   
    103. D(H  21,C   7,C   6,C   5)    179.8772         0.028155   
    104. D(C   8,C   7,C   6,H  20)    178.8467         0.028155   
    105. D(C   8,C   7,C   6,C   5)     -0.6969         0.028155   
    106. D(H  22,C   8,C   7,H  21)      0.1562         0.027902   
    107. D(H  22,C   8,C   7,C   6)   -179.2691         0.027902   
    108. D(C   9,C   8,C   7,H  21)   -179.7572         0.027902   
    109. D(C   9,C   8,C   7,C   6)      0.8176         0.027902   
    110. D(C   8,C   9,C   4,C   3)    179.9033         0.025851   
    111. D(H  23,C   9,C   8,H  22)      0.3019         0.029177   
    112. D(H  23,C   9,C   8,C   7)   -179.7846         0.029177   
    113. D(C   4,C   9,C   8,H  22)   -179.7380         0.029177   
    114. D(C   4,C   9,C   8,C   7)      0.1754         0.029177   
    115. D(H  23,C   9,C   4,C   5)    178.6902         0.025851   
    116. D(H  23,C   9,C   4,C   3)     -0.1356         0.025851   
    117. D(C   8,C   9,C   4,C   5)     -1.2709         0.025851   
    118. D(N  15,C  10,C   3,C   4)   -179.6707         0.025627   
    119. D(N  15,C  10,C   3,N   2)      0.8111         0.025627   
    120. D(C  11,C  10,C   3,C   4)      3.9824         0.025627   
    121. D(C  11,C  10,C   3,N   2)   -175.5359         0.025627   
    122. D(H  24,C  11,C  10,N  15)   -176.7455         0.023801   
    123. D(H  24,C  11,C  10,C   3)     -0.7486         0.023801   
    124. D(C  12,C  11,C  10,N  15)      2.1905         0.023801   
    125. D(C  12,C  11,C  10,C   3)    178.1874         0.023801   
    126. D(H  25,C  12,C  11,H  24)     -0.9571         0.033551   
    127. D(H  25,C  12,C  11,C  10)   -179.8685         0.033551   
    128. D(C  13,C  12,C  11,H  24)    178.6925         0.033551   
    129. D(C  13,C  12,C  11,C  10)     -0.2189         0.033551   
    130. D(H  26,C  13,C  12,H  25)     -0.9139         0.021595   
    131. D(H  26,C  13,C  12,C  11)    179.4311         0.021595   
    132. D(C  14,C  13,C  12,H  25)    178.3488         0.021595   
    133. D(C  14,C  13,C  12,C  11)     -1.3063         0.021595   
    134. D(H  27,C  14,C  13,H  26)      0.3767         0.035928   
    135. D(H  27,C  14,C  13,C  12)   -178.8851         0.035928   
    136. D(N  15,C  14,C  13,H  26)   -179.9867         0.035928   
    137. D(N  15,C  14,C  13,C  12)      0.7515         0.035928   
    138. D(C   1,N  15,C  10,C   3)     -0.4392         0.022853   
    139. D(C  14,N  15,C   1,N   2)    179.3660         0.031366   
    140. D(C  14,N  15,C   1,C   0)     -0.8093         0.031366   
    141. D(C  10,N  15,C   1,N   2)     -0.0944         0.031366   
    142. D(C  10,N  15,C   1,C   0)    179.7303         0.031366   
    143. D(C  10,N  15,C  14,H  27)   -179.0118         0.030858   
    144. D(C  10,N  15,C  14,C  13)      1.3274         0.030858   
    145. D(C   1,N  15,C  14,H  27)      1.5961         0.030858   
    146. D(C   1,N  15,C  14,C  13)   -178.0647         0.030858   
    147. D(C  14,N  15,C  10,C  11)     -2.7999         0.022853   
    148. D(C  14,N  15,C  10,C   3)   -179.9613         0.022853   
    149. D(C   1,N  15,C  10,C  11)    176.7223         0.022853   
    -----------------------------------------------------------------

Number of atoms                         .... 28
Number of degrees of freedom            .... 149

         *************************************************************
         *                GEOMETRY OPTIMIZATION CYCLE   1            *
         *************************************************************
---------------------------------
CARTESIAN COORDINATES (ANGSTROEM)
---------------------------------
  C     -2.425900    2.445300    1.328700
  C     -1.530600    1.409700    0.756000
  N     -0.224200    1.399100    0.850700
  C      0.237600    0.307700    0.188800
  C      1.660700    0.032800    0.111600
  C      2.222900   -0.695700   -0.935900
  C      3.583400   -0.937500   -0.968200
  C      4.405300   -0.451700    0.034900
  C      3.858900    0.293200    1.068100
  C      2.500600    0.535500    1.106600
  C     -0.848400   -0.404100   -0.326200
  C     -1.046300   -1.614700   -1.014200
  C     -2.309900   -2.012100   -1.333700
  C     -3.423200   -1.210700   -0.970100
  C     -3.240100   -0.059800   -0.280700
  N     -1.978100    0.335200    0.050400
  H     -3.121100    2.005100    2.044400
  H     -1.815800    3.185300    1.836800
  H     -3.001600    2.937700    0.544400
  H      1.598700   -1.048400   -1.743000
  H      4.007400   -1.503100   -1.786000
  H      5.467800   -0.645000    0.006300
  H      4.497800    0.684500    1.846900
  H      2.061600    1.116500    1.902700
  H     -0.190200   -2.219800   -1.263400
  H     -2.479400   -2.938400   -1.859100
  H     -4.419400   -1.526400   -1.234000
  H     -4.048400    0.579900    0.037400

----------------------------
CARTESIAN COORDINATES (A.U.)
----------------------------
  NO LB      ZA    FRAG     MASS         X           Y           Z
   0 C     6.0000    0    12.011   -4.584287    4.620947    2.510879
   1 C     6.0000    0    12.011   -2.892415    2.663947    1.428633
   2 N     7.0000    0    14.007   -0.423677    2.643916    1.607590
   3 C     6.0000    0    12.011    0.448999    0.581469    0.356780
   4 C     6.0000    0    12.011    3.138268    0.061983    0.210893
   5 C     6.0000    0    12.011    4.200672   -1.314682   -1.768595
   6 C     6.0000    0    12.011    6.771645   -1.771618   -1.829633
   7 C     6.0000    0    12.011    8.324811   -0.853589    0.065951
   8 C     6.0000    0    12.011    7.292264    0.554068    2.018416
   9 C     6.0000    0    12.011    4.725449    1.011948    2.091171
  10 C     6.0000    0    12.011   -1.603244   -0.763638   -0.616429
  11 C     6.0000    0    12.011   -1.977220   -3.051341   -1.916560
  12 C     6.0000    0    12.011   -4.365078   -3.802318   -2.520328
  13 C     6.0000    0    12.011   -6.468911   -2.287891   -1.833223
  14 C     6.0000    0    12.011   -6.122902   -0.113006   -0.530446
  15 N     7.0000    0    14.007   -3.738067    0.633436    0.095242
  16 H     1.0000    0     1.008   -5.898024    3.789090    3.863356
  17 H     1.0000    0     1.008   -3.431365    6.019345    3.471049
  18 H     1.0000    0     1.008   -5.672202    5.551448    1.028767
  19 H     1.0000    0     1.008    3.021105   -1.981189   -3.293793
  20 H     1.0000    0     1.008    7.572889   -2.840447   -3.375051
  21 H     1.0000    0     1.008   10.332645   -1.218873    0.011905
  22 H     1.0000    0     1.008    8.499610    1.293518    3.490135
  23 H     1.0000    0     1.008    3.895859    2.109879    3.595582
  24 H     1.0000    0     1.008   -0.359426   -4.194814   -2.387480
  25 H     1.0000    0     1.008   -4.685387   -5.552771   -3.513190
  26 H     1.0000    0     1.008   -8.351456   -2.884478   -2.331922
  27 H     1.0000    0     1.008   -7.650367    1.095852    0.070676

--------------------------------
INTERNAL COORDINATES (ANGSTROEM)
--------------------------------
 C      0   0   0     0.000000000000     0.00000000     0.00000000
 C      1   0   0     1.483918710712     0.00000000     0.00000000
 N      2   1   0     1.309870760800   125.41409020     0.00000000
 C      3   2   1     1.357396334900   108.09306578   180.79075047
 C      4   3   2     1.451462524490   120.78240295   179.53688809
 C      5   4   3     1.394287395052   122.29329295   206.45176150
 C      6   5   4     1.382197807841   120.38759193   180.17443566
 C      7   6   5     1.384821598618   120.39064671   359.58153455
 C      8   7   6     1.385976626787   119.63954357   359.30312191
 C      9   8   7     1.380279113078   120.20513001     0.81756277
 C      4   3   2     1.396882328616   108.96500817   359.10893680
 C     11   4   3     1.406435483767   136.74867014   184.46411861
 C     12  11   4     1.362604847342   119.75061050   178.18737383
 C     13  12  11     1.419113741037   120.18059904   359.78107897
 C     14  13  12     1.354019490259   120.28957672   358.69372019
 N      2   1   3     1.361131095817   123.54749799   180.20074730
 H      1   2   3     1.090552873546   110.86652580   240.18232450
 H      1   2   3     1.085351380890   108.50254932   359.90642043
 H      1   2   3     1.090419524770   110.86018585   119.57426001
 H      6   5   4     1.079552379461   119.94950218     2.03802958
 H      7   6   5     1.080960776347   119.68955625   180.03694347
 H      8   7   6     1.080318980672   120.11727840   179.87715109
 H      9   8   7     1.080665692987   119.91839854   180.73093975
 H     10   9   8     1.078914829817   121.03247064   180.21536137
 H     12  11   4     1.077568494343   118.99211909   359.25138845
 H     13  12  11     1.078335337453   120.69970331   180.13154070
 H     14  13  12     1.077833076130   119.79819163   179.43107316
 H     15  14  13     1.078773650957   123.56237407   181.11489043

---------------------------
INTERNAL COORDINATES (A.U.)
---------------------------
 C      0   0   0     0.000000000000     0.00000000     0.00000000
 C      1   0   0     2.804199968246     0.00000000     0.00000000
 N      2   1   0     2.475297008744   125.41409020     0.00000000
 C      3   2   1     2.565107328149   108.09306578   180.79075047
 C      4   3   2     2.742866664937   120.78240295   179.53688809
 C      5   4   3     2.634821328626   122.29329295   206.45176150
 C      6   5   4     2.611975319725   120.38759193   180.17443566
 C      7   6   5     2.616933565728   120.39064671   359.58153455
 C      8   7   6     2.619116252644   119.63954357   359.30312191
 C      9   8   7     2.608349512090   120.20513001     0.81756277
 C      4   3   2     2.639725042399   108.96500817   359.10893680
 C     11   4   3     2.657777889349   136.74867014   184.46411861
 C     12  11   4     2.574949990230   119.75061050   178.18737383
 C     13  12  11     2.681736323444   120.18059904   359.78107897
 C     14  13  12     2.558726016580   120.28957672   358.69372019
 N      2   1   3     2.572165003458   123.54749799   180.20074730
 H      1   2   3     2.060846265563   110.86652580   240.18232450
 H      1   2   3     2.051016868955   108.50254932   359.90642043
 H      1   2   3     2.060594272896   110.86018585   119.57426001
 H      6   5   4     2.040058344404   119.94950218     2.03802958
 H      7   6   5     2.042719828806   119.68955625   180.03694347
 H      8   7   6     2.041507010747   120.11727840   179.87715109
 H      9   8   7     2.042162202070   119.91839854   180.73093975
 H     10   9   8     2.038853550181   121.03247064   180.21536137
 H     12  11   4     2.036309344850   118.99211909   359.25138845
 H     13  12  11     2.037758468316   120.69970331   180.13154070
 H     14  13  12     2.036809331968   119.79819163   179.43107316
 H     15  14  13     2.038586760800   123.56237407   181.11489043

---------------------
BASIS SET INFORMATION
---------------------
There are 3 groups of distinct atoms

 Group   1 Type C   : 19s6p3d2f contracted to 5s4p3d2f pattern {88111/3111/111/11}
 Group   2 Type N   : 19s6p3d2f contracted to 5s4p3d2f pattern {88111/3111/111/11}
 Group   3 Type H   : 5s2p1d contracted to 3s2p1d pattern {311/11/1}

Atom   0C    basis set group =>   1
Atom   1C    basis set group =>   1
Atom   2N    basis set group =>   2
Atom   3C    basis set group =>   1
Atom   4C    basis set group =>   1
Atom   5C    basis set group =>   1
Atom   6C    basis set group =>   1
Atom   7C    basis set group =>   1
Atom   8C    basis set group =>   1
Atom   9C    basis set group =>   1
Atom  10C    basis set group =>   1
Atom  11C    basis set group =>   1
Atom  12C    basis set group =>   1
Atom  13C    basis set group =>   1
Atom  14C    basis set group =>   1
Atom  15N    basis set group =>   2
Atom  16H    basis set group =>   3
Atom  17H    basis set group =>   3
Atom  18H    basis set group =>   3
Atom  19H    basis set group =>   3
Atom  20H    basis set group =>   3
Atom  21H    basis set group =>   3
Atom  22H    basis set group =>   3
Atom  23H    basis set group =>   3
Atom  24H    basis set group =>   3
Atom  25H    basis set group =>   3
Atom  26H    basis set group =>   3
Atom  27H    basis set group =>   3
---------------------------------
AUXILIARY/J BASIS SET INFORMATION
---------------------------------
There are 3 groups of distinct atoms

 Group   1 Type C   : 10s7p5d2f1g contracted to 10s7p5d2f1g pattern {1111111111/1111111/11111/11/1}
 Group   2 Type N   : 10s7p5d2f1g contracted to 10s7p5d2f1g pattern {1111111111/1111111/11111/11/1}
 Group   3 Type H   : 4s3p2d1f contracted to 4s3p2d1f pattern {1111/111/11/1}

Atom   0C    basis set group =>   1
Atom   1C    basis set group =>   1
Atom   2N    basis set group =>   2
Atom   3C    basis set group =>   1
Atom   4C    basis set group =>   1
Atom   5C    basis set group =>   1
Atom   6C    basis set group =>   1
Atom   7C    basis set group =>   1
Atom   8C    basis set group =>   1
Atom   9C    basis set group =>   1
Atom  10C    basis set group =>   1
Atom  11C    basis set group =>   1
Atom  12C    basis set group =>   1
Atom  13C    basis set group =>   1
Atom  14C    basis set group =>   1
Atom  15N    basis set group =>   2
Atom  16H    basis set group =>   3
Atom  17H    basis set group =>   3
Atom  18H    basis set group =>   3
Atom  19H    basis set group =>   3
Atom  20H    basis set group =>   3
Atom  21H    basis set group =>   3
Atom  22H    basis set group =>   3
Atom  23H    basis set group =>   3
Atom  24H    basis set group =>   3
Atom  25H    basis set group =>   3
Atom  26H    basis set group =>   3
Atom  27H    basis set group =>   3
---------------------------------
AUXILIARY/C BASIS SET INFORMATION
---------------------------------
There are 3 groups of distinct atoms

 Group   1 Type C   : 9s7p6d4f2g contracted to 9s7p6d4f2g pattern {111111111/1111111/111111/1111/11}
 Group   2 Type N   : 9s7p6d4f2g contracted to 9s7p6d4f2g pattern {111111111/1111111/111111/1111/11}
 Group   3 Type H   : 4s3p2d1f contracted to 4s3p2d1f pattern {1111/111/11/1}

Atom   0C    basis set group =>   1
Atom   1C    basis set group =>   1
Atom   2N    basis set group =>   2
Atom   3C    basis set group =>   1
Atom   4C    basis set group =>   1
Atom   5C    basis set group =>   1
Atom   6C    basis set group =>   1
Atom   7C    basis set group =>   1
Atom   8C    basis set group =>   1
Atom   9C    basis set group =>   1
Atom  10C    basis set group =>   1
Atom  11C    basis set group =>   1
Atom  12C    basis set group =>   1
Atom  13C    basis set group =>   1
Atom  14C    basis set group =>   1
Atom  15N    basis set group =>   2
Atom  16H    basis set group =>   3
Atom  17H    basis set group =>   3
Atom  18H    basis set group =>   3
Atom  19H    basis set group =>   3
Atom  20H    basis set group =>   3
Atom  21H    basis set group =>   3
Atom  22H    basis set group =>   3
Atom  23H    basis set group =>   3
Atom  24H    basis set group =>   3
Atom  25H    basis set group =>   3
Atom  26H    basis set group =>   3
Atom  27H    basis set group =>   3


           ************************************************************
           *        Program running with 4 parallel MPI-processes     *
           *              working on a common directory               *
           ************************************************************
------------------------------------------------------------------------------
                           ORCA GTO INTEGRAL CALCULATION
                           -- RI-GTO INTEGRALS CHOSEN --
------------------------------------------------------------------------------
------------------------------------------------------------------------------
                   ___                                                        
                  /   \      - P O W E R E D   B Y -                         
                 /     \                                                     
                 |  |  |   _    _      __       _____    __    __             
                 |  |  |  | |  | |    /  \     |  _  \  |  |  /  |          
                  \  \/   | |  | |   /    \    | | | |  |  | /  /          
                 / \  \   | |__| |  /  /\  \   | |_| |  |  |/  /          
                |  |  |   |  __  | /  /__\  \  |    /   |      \           
                |  |  |   | |  | | |   __   |  |    \   |  |\   \          
                \     /   | |  | | |  |  |  |  | |\  \  |  | \   \       
                 \___/    |_|  |_| |__|  |__|  |_| \__\ |__|  \__/        
                                                                              
                      - O R C A' S   B I G   F R I E N D -                    
                                      &                                       
                       - I N T E G R A L  F E E D E R -                       
                                                                              
 v1 FN, 2020, v2 2021                                                         
------------------------------------------------------------------------------


Reading SHARK input file pbe0-train-16.SHARKINP.tmp ... ok
----------------------
SHARK INTEGRAL PACKAGE
----------------------

Number of atoms                             ...     28
Number of basis functions                   ...   1000
Number of shells                            ...    392
Maximum angular momentum                    ...      3
Integral batch strategy                     ... SHARK/LIBINT Hybrid
RI-J (if used) integral strategy            ... SPLIT-RIJ (Revised 2003 algorithm where possible)
Printlevel                                  ...      1
Contraction scheme used                     ... PARTIAL GENERAL contraction
Coulomb Range Separation                    ... NOT USED
Exchange Range Separation                   ... NOT USED
Finite Nucleus Model                        ... NOT USED
Auxiliary Coulomb fitting basis             ... AVAILABLE
   # of basis functions in Aux-J            ...   1624
   # of shells in Aux-J                     ...    520
   Maximum angular momentum in Aux-J        ...      4
Auxiliary J/K fitting basis                 ... NOT available
Auxiliary Correlation fitting basis         ... AVAILABLE
   # of basis functions in Aux-C            ...   2056
   # of shells in Aux-C                     ...    568
   Maximum angular momentum in Aux-C        ...      4
Auxiliary 'external' fitting basis          ... NOT available
Integral threshold                          ...     2.500000e-11
Primitive cut-off                           ...     2.500000e-12
Primitive pair pre-selection threshold      ...     2.500000e-12

Calculating pre-screening integrals         ... done (  0.2 sec) Dimension = 392
Calculating pre-screening integrals (ORCA)  ... done (  0.5 sec) Dimension = 296
Organizing shell pair data                  ... done (  2.6 sec)
Shell pair information
Total number of shell pairs                 ...     77028
Shell pairs after pre-screening             ...     54819
Total number of primitive shell pairs       ...    100660
Primitive shell pairs kept                  ...     65058
          la=0 lb=0:  12676 shell pairs
          la=1 lb=0:  13885 shell pairs
          la=1 lb=1:   3336 shell pairs
          la=2 lb=0:   9260 shell pairs
          la=2 lb=1:   4434 shell pairs
          la=2 lb=2:   1532 shell pairs
          la=3 lb=0:   5140 shell pairs
          la=3 lb=1:   2426 shell pairs
          la=3 lb=2:   1649 shell pairs
          la=3 lb=3:    481 shell pairs

Calculating one electron integrals          ... done (  0.3 sec)
Calculating RI/J V-Matrix + Cholesky decomp.... done (  1.8 sec)
Calculating RI/C V-Matrix + Cholesky decomp.... done (  1.3 sec)
Calculating Nuclear repulsion               ... done (  0.0 sec) ENN=    995.829503392840 Eh

SHARK setup successfully completed in  14.0 seconds

Maximum memory used throughout the entire GTOINT-calculation: 83.0 MB


           ************************************************************
           *        Program running with 4 parallel MPI-processes     *
           *              working on a common directory               *
           ************************************************************
-------------------------------------------------------------------------------
                                 ORCA SCF
-------------------------------------------------------------------------------

------------
SCF SETTINGS
------------
Hamiltonian:
 Density Functional     Method          .... DFT(GTOs)
 Exchange Functional    Exchange        .... PBE
   PBE kappa parameter   XKappa         ....  0.804000
   PBE mue parameter    XMuePBE         ....  0.219520
 Correlation Functional Correlation     .... PBE
   PBE beta parameter  CBetaPBE         ....  0.066725
 LDA part of GGA corr.  LDAOpt          .... PW91-LDA
 Gradients option       PostSCFGGA      .... off
 Hybrid DFT is turned on
   Fraction HF Exchange ScalHFX         ....  0.250000
   Scaling of DF-GGA-X  ScalDFX         ....  0.750000
   Scaling of DF-GGA-C  ScalDFC         ....  1.000000
   Scaling of DF-LDA-C  ScalLDAC        ....  1.000000
   Perturbative correction              ....  0.000000
   Density functional embedding theory  .... OFF
   NL short-range parameter             ....  6.900000
 RI-approximation to the Coulomb term is turned on
   Number of AuxJ basis functions       .... 1624
   RIJ-COSX (HFX calculated with COS-X)).... on


General Settings:
 Integral files         IntName         .... pbe0-train-16
 Hartree-Fock type      HFTyp           .... RHF
 Total Charge           Charge          ....    0
 Multiplicity           Mult            ....    1
 Number of Electrons    NEL             ....  110
 Basis Dimension        Dim             ....  904
 Nuclear Repulsion      ENuc            ....    995.8295033928 Eh

Convergence Acceleration:
 DIIS                   CNVDIIS         .... on
   Start iteration      DIISMaxIt       ....    12
   Startup error        DIISStart       ....  0.200000
   # of expansion vecs  DIISMaxEq       ....     5
   Bias factor          DIISBfac        ....   1.050
   Max. coefficient     DIISMaxC        ....  10.000
 Trust-Rad. Augm. Hess. CNVTRAH         .... auto
   Auto Start mean grad. ratio tolernc. ....  1.125000
   Auto Start start iteration           ....    20
   Auto Start num. interpolation iter.  ....    10
   Max. Number of Micro iterations      ....    16
   Max. Number of Macro iterations      .... Maxiter - #DIIS iter
   Number of Davidson start vectors     ....     2
   Converg. threshold I  (grad. norm)   ....   1.000e-05
   Converg. threshold II (energy diff.) ....   1.000e-08
   Grad. Scal. Fac. for Micro threshold ....   0.100
   Minimum threshold for Micro iter.    ....   0.010
   NR start threshold (gradient norm)   ....   0.001
   Initial trust radius                 ....   0.400
   Minimum AH scaling param. (alpha)    ....   1.000
   Maximum AH scaling param. (alpha)    .... 1000.000
   Orbital update algorithm             .... Taylor
   White noise on init. David. guess    .... on
   Maximum white noise                  ....   0.010
   Quad. conv. algorithm                .... NR
 SOSCF                  CNVSOSCF        .... on
   Start iteration      SOSCFMaxIt      ....   150
   Startup grad/error   SOSCFStart      ....  0.003300
 Level Shifting         CNVShift        .... on
   Level shift para.    LevelShift      ....    0.2500
   Turn off err/grad.   ShiftErr        ....    0.0010
 Zerner damping         CNVZerner       .... off
 Static damping         CNVDamp         .... on
   Fraction old density DampFac         ....    0.7000
   Max. Damping (<1)    DampMax         ....    0.9800
   Min. Damping (>=0)   DampMin         ....    0.0000
   Turn off err/grad.   DampErr         ....    0.1000
 Fernandez-Rico         CNVRico         .... off

SCF Procedure:
 Maximum # iterations   MaxIter         ....   125
 SCF integral mode      SCFMode         .... Direct
   Integral package                     .... SHARK and LIBINT hybrid scheme
 Reset frequency        DirectResetFreq ....    20
 Integral Threshold     Thresh          ....  2.500e-11 Eh
 Primitive CutOff       TCut            ....  2.500e-12 Eh

Convergence Tolerance:
 Convergence Check Mode ConvCheckMode   .... Total+1el-Energy
 Convergence forced     ConvForced      .... 0
 Energy Change          TolE            ....  1.000e-08 Eh
 1-El. energy change                    ....  1.000e-05 Eh
 Orbital Gradient       TolG            ....  1.000e-05
 Orbital Rotation angle TolX            ....  1.000e-05
 DIIS Error             TolErr          ....  5.000e-07


Diagonalization of the overlap matrix:
Smallest eigenvalue                        ... 7.622e-07
Time for diagonalization                   ...    0.347 sec
Threshold for overlap eigenvalues          ... 1.000e-08
Number of eigenvalues below threshold      ... 0
Time for construction of square roots      ...    0.232 sec
Total time needed                          ...    0.588 sec

Time for model grid setup =    0.791 sec

------------------------------
INITIAL GUESS: MODEL POTENTIAL
------------------------------
Loading Hartree-Fock densities                     ... done
Calculating cut-offs                               ... done
Initializing the effective Hamiltonian             ... done
Setting up the integral package (SHARK)            ... done
Starting the Coulomb interaction                   ... done (   2.5 sec)
Reading the grid                                   ... done
Mapping shells                                     ... done
Starting the XC term evaluation                    ... done (   2.4 sec)
  promolecular density results
     # of electrons  =    109.995033999
     EX              =    -88.329993185
     EC              =     -3.689415904
     EX+EC           =    -92.019409088
Transforming the Hamiltonian                       ... done (   0.2 sec)
Diagonalizing the Hamiltonian                      ... done (   0.3 sec)
Back transforming the eigenvectors                 ... done (   0.1 sec)
Now organizing SCF variables                       ... done
                      ------------------
                      INITIAL GUESS DONE (   6.4 sec)
                      ------------------
-------------------
DFT GRID GENERATION
-------------------

General Integration Accuracy     IntAcc      ... 4.388
Radial Grid Type                 RadialGrid  ... OptM3 with GC (2021)
Angular Grid (max. ang.)         AngularGrid ... 4 (Lebedev-302)
Angular grid pruning method      GridPruning ... 4 (adaptive)
Weight generation scheme         WeightScheme... Becke
Basis function cutoff            BFCut       ... 1.0000e-11
Integration weight cutoff        WCut        ... 1.0000e-14
Angular grids for H and He will be reduced by one unit
Partially contracted basis set               ... off
Rotationally invariant grid construction     ... off

Total number of grid points                  ...   138123
Total number of batches                      ...     2171
Average number of points per batch           ...       63
Average number of grid points per atom       ...     4933
Time for grid setup =    2.556 sec

--------------------
COSX GRID GENERATION
--------------------

GRIDX 1
-------
General Integration Accuracy     IntAcc      ... 3.816
Radial Grid Type                 RadialGrid  ... OptM3 with GC (2021)
Angular Grid (max. ang.)         AngularGrid ... 1 (Lebedev-50)
Angular grid pruning method      GridPruning ... 4 (adaptive)
Weight generation scheme         WeightScheme... Becke
Basis function cutoff            BFCut       ... 1.0000e-11
Integration weight cutoff        WCut        ... 1.0000e-14
Angular grids for H and He will be reduced by one unit
Partially contracted basis set               ... on
Rotationally invariant grid construction     ... off

Total number of grid points                  ...    17610
Total number of batches                      ...      292
Average number of points per batch           ...       60
Average number of grid points per atom       ...      629
UseSFitting                                  ... on

GRIDX 2
-------
General Integration Accuracy     IntAcc      ... 4.020
Radial Grid Type                 RadialGrid  ... OptM3 with GC (2021)
Angular Grid (max. ang.)         AngularGrid ... 2 (Lebedev-110)
Angular grid pruning method      GridPruning ... 4 (adaptive)
Weight generation scheme         WeightScheme... Becke
Basis function cutoff            BFCut       ... 1.0000e-11
Integration weight cutoff        WCut        ... 1.0000e-14
Angular grids for H and He will be reduced by one unit
Partially contracted basis set               ... on
Rotationally invariant grid construction     ... off

Total number of grid points                  ...    41694
Total number of batches                      ...      665
Average number of points per batch           ...       62
Average number of grid points per atom       ...     1489
UseSFitting                                  ... on

GRIDX 3
-------
General Integration Accuracy     IntAcc      ... 4.338
Radial Grid Type                 RadialGrid  ... OptM3 with GC (2021)
Angular Grid (max. ang.)         AngularGrid ... 3 (Lebedev-194)
Angular grid pruning method      GridPruning ... 4 (adaptive)
Weight generation scheme         WeightScheme... Becke
Basis function cutoff            BFCut       ... 1.0000e-11
Integration weight cutoff        WCut        ... 1.0000e-14
Angular grids for H and He will be reduced by one unit
Partially contracted basis set               ... on
Rotationally invariant grid construction     ... off

Total number of grid points                  ...    89873
Total number of batches                      ...     1418
Average number of points per batch           ...       63
Average number of grid points per atom       ...     3210
UseSFitting                                  ... on

Time for X-Grid setup             =    6.306 sec


--------------------
CPCM SOLVATION MODEL
--------------------
CPCM parameters:
  Epsilon                                         ...       8.9300
  Refrac                                          ...       1.4242
  Rsolv                                           ...       1.3000
  Surface type                                    ... GAUSSIAN VDW
  Epsilon function type                           ...         CPCM
Solvent:                                     ... DICHLOROMETHANE
SMD-CDS solvent descriptors:
  Soln                                       ...    1.4242
  Soln25                                     ...    1.4212
  Sola                                       ...    0.1000
  Solb                                       ...    0.0500
  Solg                                       ...   39.1500
  Solc                                       ...    0.0000
  Solh                                       ...    0.6670
Radii:
 Radius for C  used is    3.4960 Bohr (=   1.8500 Ang.)
 Radius for N  used is    3.5716 Bohr (=   1.8900 Ang.)
 Radius for H  used is    2.2677 Bohr (=   1.2000 Ang.)
Calculating surface                               ...        done! (  0.0s)
GEPOL surface points                              ...         1639
GEPOL Volume                                      ...    1486.1740
GEPOL Surface-area                                ...     847.8508
Calculating surface distance matrix               ...        done! (  0.1s)
Performing Cholesky decomposition & store         ...        done! (  8.5s)
Overall time for CPCM initialization              ...                 8.5s
 re-compute Schwartz prescreening matrix in partically contracted basis (1) ...done (   0.227 sec)
--------------
SCF ITERATIONS
--------------
ITER       Energy         Delta-E        Max-DP      RMS-DP      [F,P]     Damp
               ***  Starting incremental Fock matrix formation  ***
  0   -649.3600920897   0.000000000000 0.13069695  0.00096538  0.2056550 0.7000
  1   -649.5046877109  -0.144595621194 0.10619866  0.00075520  0.1002323 0.7000
                               ***Turning on DIIS***
  2   -649.5720758819  -0.067388170947 0.29061911  0.00164991  0.0434043 0.0000
  3   -649.6715848709  -0.099508989038 0.07378654  0.00041655  0.0475375 0.0000
  4   -649.6935485018  -0.021963630849 0.01719201  0.00015907  0.0086224 0.0000
  5   -649.6944669799  -0.000918478141 0.00817154  0.00005541  0.0051422 0.0000
                      *** Initiating the SOSCF procedure ***
                           *** Shutting down DIIS ***
                      *** Re-Reading the Fockian *** 
                      *** Removing any level shift *** 
ITER      Energy       Delta-E        Grad      Rot      Max-DP    RMS-DP
  6   -649.69456305  -0.0000960709  0.000314  0.000314  0.019875  0.000050
               *** Restarting incremental Fock matrix formation ***
  7   -649.69458101  -0.0000179550  0.000215  0.001033  0.017795  0.000257
  8   -649.69457802   0.0000029862  0.000361  0.000649  0.005612  0.000021
  9   -649.69458396  -0.0000059371  0.000030  0.000099  0.011740  0.000030
 10   -649.69458390   0.0000000533  0.000037  0.000097  0.004508  0.000013
 11   -649.69458403  -0.0000001311  0.000004  0.000022  0.010600  0.000032
 12   -649.69458404  -0.0000000042  0.000007  0.000009  0.005402  0.000020
                 **** Energy Check signals convergence ****
              ***Rediagonalizing the Fockian in SOSCF/NRSCF***

               *****************************************************
               *                     SUCCESS                       *
               *           SCF CONVERGED AFTER  13 CYCLES          *
               *****************************************************

Old exchange energy                            =    -22.549019107 Eh
New exchange energy                            =    -22.549016629 Eh
Exchange energy change after final integration =      0.000002478 Eh
Total energy after final integration           =   -649.694581552 Eh
Final COS-X integration done in                =   135.848 sec

SMD CDS free energy correction energy :                -6.98495     Kcal/mol
Total Energy after SMD CDS correction =              -649.705712782 Eh

----------------
TOTAL SCF ENERGY
----------------

Total Energy       :         -649.70571278 Eh          -17679.39125 eV

Components:
Nuclear Repulsion  :          995.82950339 Eh           27097.89842 eV
Electronic Energy  :        -1645.53521618 Eh          -44777.28967 eV
One Electron Energy:        -2854.76591108 Eh          -77682.12972 eV
Two Electron Energy:         1209.23069490 Eh           32904.84006 eV
Max COSX asymmetry :            0.00003067 Eh               0.00083 eV
CPCM Dielectric    :           -0.01900211 Eh              -0.51707 eV
SMD CDS (Gcds)     :           -0.01113123 Eh              -0.30290 eV

Virial components:
Potential Energy   :        -1295.79225842 Eh          -35260.29995 eV
Kinetic Energy     :          646.08654564 Eh           17580.90870 eV
Virial Ratio       :            2.00560168


DFT components:
N(Alpha)           :       55.000056311829 electrons
N(Beta)            :       55.000056311829 electrons
N(Total)           :      110.000112623659 electrons
E(X)               :      -67.454812599192 Eh       
E(C)               :       -3.692982215929 Eh       
E(XC)              :      -71.147794815121 Eh       
DFET-embed. en.    :        0.000000000000 Eh       
CPCM Solvation Model Properties:
Surface-charge          :           -0.05848348
Charge-correction       :           -0.00002385 Eh              -0.00065 eV
Free-energy (cav+disp)  :           -0.01113123 Eh              -0.30290 eV

---------------
SCF CONVERGENCE
---------------

  Last Energy change         ...    8.9810e-09  Tolerance :   1.0000e-08
  Last MAX-Density change    ...    5.1070e-15  Tolerance :   1.0000e-07
  Last RMS-Density change    ...    1.5450e-17  Tolerance :   5.0000e-09
  Last Orbital Gradient      ...    1.4053e-06  Tolerance :   1.0000e-05
  Last Orbital Rotation      ...    2.8741e-06  Tolerance :   1.0000e-05

             **** THE GBW FILE WAS UPDATED (pbe0-train-16.gbw) ****
             **** DENSITY pbe0-train-16.scfp WAS UPDATED ****
             **** ENERGY FILE WAS UPDATED (pbe0-train-16.en.tmp) ****
             **** THE GBW FILE WAS UPDATED (pbe0-train-16.gbw) ****
             **** DENSITY pbe0-train-16.scfp WAS UPDATED ****
----------------
ORBITAL ENERGIES
----------------

  NO   OCC          E(Eh)            E(eV) 
   0   2.0000     -14.465238      -393.6191 
   1   2.0000     -14.375033      -391.1645 
   2   2.0000     -10.283756      -279.8352 
   3   2.0000     -10.274617      -279.5866 
   4   2.0000     -10.267479      -279.3923 
   5   2.0000     -10.246186      -278.8129 
   6   2.0000     -10.240283      -278.6523 
   7   2.0000     -10.237538      -278.5776 
   8   2.0000     -10.235684      -278.5271 
   9   2.0000     -10.234871      -278.5050 
  10   2.0000     -10.223865      -278.2055 
  11   2.0000     -10.223240      -278.1885 
  12   2.0000     -10.222988      -278.1816 
  13   2.0000     -10.221120      -278.1308 
  14   2.0000     -10.220947      -278.1261 
  15   2.0000     -10.220312      -278.1088 
  16   2.0000      -1.071918       -29.1684 
  17   2.0000      -0.947845       -25.7922 
  18   2.0000      -0.887769       -24.1574 
  19   2.0000      -0.853533       -23.2258 
  20   2.0000      -0.813887       -22.1470 
  21   2.0000      -0.790187       -21.5021 
  22   2.0000      -0.770784       -20.9741 
  23   2.0000      -0.766307       -20.8523 
  24   2.0000      -0.704818       -19.1791 
  25   2.0000      -0.676116       -18.3981 
  26   2.0000      -0.654869       -17.8199 
  27   2.0000      -0.629193       -17.1212 
  28   2.0000      -0.607155       -16.5215 
  29   2.0000      -0.597986       -16.2720 
  30   2.0000      -0.543303       -14.7840 
  31   2.0000      -0.524142       -14.2626 
  32   2.0000      -0.512029       -13.9330 
  33   2.0000      -0.497441       -13.5361 
  34   2.0000      -0.495366       -13.4796 
  35   2.0000      -0.474700       -12.9172 
  36   2.0000      -0.469342       -12.7715 
  37   2.0000      -0.457381       -12.4460 
  38   2.0000      -0.439559       -11.9610 
  39   2.0000      -0.429442       -11.6857 
  40   2.0000      -0.422307       -11.4916 
  41   2.0000      -0.419222       -11.4076 
  42   2.0000      -0.406959       -11.0739 
  43   2.0000      -0.398552       -10.8452 
  44   2.0000      -0.391565       -10.6550 
  45   2.0000      -0.375883       -10.2283 
  46   2.0000      -0.365383        -9.9426 
  47   2.0000      -0.354674        -9.6512 
  48   2.0000      -0.348086        -9.4719 
  49   2.0000      -0.331504        -9.0207 
  50   2.0000      -0.298749        -8.1294 
  51   2.0000      -0.280084        -7.6215 
  52   2.0000      -0.273212        -7.4345 
  53   2.0000      -0.267681        -7.2840 
  54   2.0000      -0.196327        -5.3423 
  55   0.0000      -0.042586        -1.1588 
  56   0.0000      -0.017053        -0.4640 
  57   0.0000      -0.007200        -0.1959 
  58   0.0000       0.005546         0.1509 
  59   0.0000       0.012102         0.3293 
  60   0.0000       0.013981         0.3804 
  61   0.0000       0.018498         0.5034 
  62   0.0000       0.029884         0.8132 
  63   0.0000       0.030561         0.8316 
  64   0.0000       0.034444         0.9373 
  65   0.0000       0.039547         1.0761 
  66   0.0000       0.046706         1.2709 
  67   0.0000       0.048529         1.3205 
  68   0.0000       0.049585         1.3493 
  69   0.0000       0.053265         1.4494 
  70   0.0000       0.061637         1.6772 
  71   0.0000       0.068847         1.8734 
  72   0.0000       0.069678         1.8960 
  73   0.0000       0.073991         2.0134 
  74   0.0000       0.075025         2.0415 
  75   0.0000       0.078816         2.1447 
  76   0.0000       0.081620         2.2210 
  77   0.0000       0.091394         2.4870 
  78   0.0000       0.091763         2.4970 
  79   0.0000       0.099082         2.6962 
  80   0.0000       0.101304         2.7566 
  81   0.0000       0.108959         2.9649 
  82   0.0000       0.112359         3.0575 
  83   0.0000       0.114506         3.1159 
  84   0.0000       0.117060         3.1854 
  85   0.0000       0.119304         3.2464 
  86   0.0000       0.121337         3.3018 
  87   0.0000       0.127037         3.4568 
  88   0.0000       0.129945         3.5360 
  89   0.0000       0.131795         3.5863 
  90   0.0000       0.135349         3.6830 
  91   0.0000       0.136838         3.7235 
  92   0.0000       0.139864         3.8059 
  93   0.0000       0.145207         3.9513 
  94   0.0000       0.146134         3.9765 
  95   0.0000       0.148843         4.0502 
  96   0.0000       0.150059         4.0833 
  97   0.0000       0.153342         4.1727 
  98   0.0000       0.155123         4.2211 
  99   0.0000       0.158550         4.3144 
 100   0.0000       0.160981         4.3805 
 101   0.0000       0.163991         4.4624 
 102   0.0000       0.167099         4.5470 
 103   0.0000       0.168718         4.5910 
 104   0.0000       0.169610         4.6153 
 105   0.0000       0.171246         4.6598 
 106   0.0000       0.175152         4.7661 
 107   0.0000       0.178653         4.8614 
 108   0.0000       0.183730         4.9996 
 109   0.0000       0.184268         5.0142 
 110   0.0000       0.187675         5.1069 
 111   0.0000       0.189321         5.1517 
 112   0.0000       0.194959         5.3051 
 113   0.0000       0.198739         5.4080 
 114   0.0000       0.201660         5.4874 
 115   0.0000       0.204775         5.5722 
 116   0.0000       0.206760         5.6262 
 117   0.0000       0.208379         5.6703 
 118   0.0000       0.209706         5.7064 
 119   0.0000       0.213769         5.8170 
 120   0.0000       0.221324         6.0225 
 121   0.0000       0.222697         6.0599 
 122   0.0000       0.224101         6.0981 
 123   0.0000       0.226843         6.1727 
 124   0.0000       0.230148         6.2626 
 125   0.0000       0.231872         6.3096 
 126   0.0000       0.237768         6.4700 
 127   0.0000       0.242517         6.5992 
 128   0.0000       0.246642         6.7115 
 129   0.0000       0.250677         6.8213 
 130   0.0000       0.254782         6.9330 
 131   0.0000       0.257080         6.9955 
 132   0.0000       0.263540         7.1713 
 133   0.0000       0.264999         7.2110 
 134   0.0000       0.268530         7.3071 
 135   0.0000       0.271406         7.3853 
 136   0.0000       0.275084         7.4854 
 137   0.0000       0.279221         7.5980 
 138   0.0000       0.282892         7.6979 
 139   0.0000       0.284934         7.7535 
 140   0.0000       0.289422         7.8756 
 141   0.0000       0.292690         7.9645 
 142   0.0000       0.296436         8.0664 
 143   0.0000       0.299468         8.1489 
 144   0.0000       0.303413         8.2563 
 145   0.0000       0.307878         8.3778 
 146   0.0000       0.312400         8.5008 
 147   0.0000       0.316899         8.6233 
 148   0.0000       0.318794         8.6748 
 149   0.0000       0.325056         8.8452 
 150   0.0000       0.326009         8.8711 
 151   0.0000       0.332213         9.0400 
 152   0.0000       0.335101         9.1186 
 153   0.0000       0.342540         9.3210 
 154   0.0000       0.343448         9.3457 
 155   0.0000       0.346581         9.4310 
 156   0.0000       0.351752         9.5717 
 157   0.0000       0.355365         9.6700 
 158   0.0000       0.360007         9.7963 
 159   0.0000       0.363281         9.8854 
 160   0.0000       0.365024         9.9328 
 161   0.0000       0.367996        10.0137 
 162   0.0000       0.373312        10.1583 
 163   0.0000       0.376882        10.2555 
 164   0.0000       0.382011        10.3951 
 165   0.0000       0.386206        10.5092 
 166   0.0000       0.392625        10.6839 
 167   0.0000       0.395720        10.7681 
 168   0.0000       0.399821        10.8797 
 169   0.0000       0.400394        10.8953 
 170   0.0000       0.403894        10.9905 
 171   0.0000       0.408234        11.1086 
 172   0.0000       0.413292        11.2462 
 173   0.0000       0.415877        11.3166 
 174   0.0000       0.416922        11.3450 
 175   0.0000       0.420924        11.4539 
 176   0.0000       0.423759        11.5311 
 177   0.0000       0.426573        11.6076 
 178   0.0000       0.427207        11.6249 
 179   0.0000       0.431801        11.7499 
 180   0.0000       0.435514        11.8509 
 181   0.0000       0.438277        11.9261 
 182   0.0000       0.440991        12.0000 
 183   0.0000       0.442653        12.0452 
 184   0.0000       0.447714        12.1829 
 185   0.0000       0.451126        12.2758 
 186   0.0000       0.453690        12.3455 
 187   0.0000       0.457280        12.4432 
 188   0.0000       0.467563        12.7230 
 189   0.0000       0.468291        12.7429 
 190   0.0000       0.473707        12.8902 
 191   0.0000       0.478002        13.0071 
 192   0.0000       0.480326        13.0703 
 193   0.0000       0.484287        13.1781 
 194   0.0000       0.486576        13.2404 
 195   0.0000       0.488342        13.2884 
 196   0.0000       0.493834        13.4379 
 197   0.0000       0.497656        13.5419 
 198   0.0000       0.500134        13.6093 
 199   0.0000       0.507779        13.8174 
 200   0.0000       0.511486        13.9182 
 201   0.0000       0.514087        13.9890 
 202   0.0000       0.517176        14.0731 
 203   0.0000       0.518478        14.1085 
 204   0.0000       0.520161        14.1543 
 205   0.0000       0.524348        14.2682 
 206   0.0000       0.530990        14.4490 
 207   0.0000       0.536392        14.5960 
 208   0.0000       0.539197        14.6723 
 209   0.0000       0.546973        14.8839 
 210   0.0000       0.547510        14.8985 
 211   0.0000       0.552342        15.0300 
 212   0.0000       0.562720        15.3124 
 213   0.0000       0.570920        15.5355 
 214   0.0000       0.574165        15.6238 
 215   0.0000       0.581755        15.8304 
 216   0.0000       0.583988        15.8911 
 217   0.0000       0.587710        15.9924 
 218   0.0000       0.592678        16.1276 
 219   0.0000       0.599316        16.3082 
 220   0.0000       0.606193        16.4954 
 221   0.0000       0.613423        16.6921 
 222   0.0000       0.619528        16.8582 
 223   0.0000       0.624740        17.0001 
 224   0.0000       0.632654        17.2154 
 225   0.0000       0.633489        17.2381 
 226   0.0000       0.643721        17.5166 
 227   0.0000       0.645642        17.5688 
 228   0.0000       0.651946        17.7404 
 229   0.0000       0.654842        17.8192 
 230   0.0000       0.658477        17.9181 
 231   0.0000       0.662728        18.0337 
 232   0.0000       0.666060        18.1244 
 233   0.0000       0.673471        18.3261 
 234   0.0000       0.676233        18.4012 
 235   0.0000       0.677112        18.4251 
 236   0.0000       0.685759        18.6605 
 237   0.0000       0.686439        18.6790 
 238   0.0000       0.689781        18.7699 
 239   0.0000       0.692263        18.8374 
 240   0.0000       0.697913        18.9912 
 241   0.0000       0.706656        19.2291 
 242   0.0000       0.708811        19.2877 
 243   0.0000       0.712971        19.4009 
 244   0.0000       0.715796        19.4778 
 245   0.0000       0.721005        19.6195 
 246   0.0000       0.724150        19.7051 
[...]
B(  7-C , 21-H ) :   0.8993 B(  8-C ,  9-C ) :   1.2829 B(  8-C , 22-H ) :   0.9056 
B(  9-C , 23-H ) :   1.0694 B( 10-C , 11-C ) :   0.9982 B( 10-C , 12-C ) :   0.1633 
B( 10-C , 14-C ) :   0.2772 B( 10-C , 15-N ) :   0.6049 B( 11-C , 12-C ) :   1.4605 
B( 11-C , 14-C ) :  -0.1088 B( 11-C , 15-N ) :  -0.1412 B( 11-C , 24-H ) :   1.1129 
B( 12-C , 13-C ) :   1.1832 B( 12-C , 14-C ) :   0.1768 B( 12-C , 15-N ) :  -0.1441 
B( 12-C , 25-H ) :   0.8731 B( 13-C , 14-C ) :   1.3055 B( 13-C , 15-N ) :  -0.2039 
B( 13-C , 26-H ) :   0.9555 B( 14-C , 15-N ) :   1.2031 B( 14-C , 27-H ) :   0.8628 


-------
TIMINGS
-------

Total SCF time: 0 days 0 hours 3 min 53 sec 

Total time                  ....     233.634 sec
Sum of individual times     ....     230.289 sec  ( 98.6%)

Fock matrix formation       ....     221.030 sec  ( 94.6%)
  Split-RI-J                ....      11.633 sec  (  5.3% of F)
  Chain of spheres X        ....     185.442 sec  ( 83.9% of F)
  XC integration            ....      13.089 sec  (  5.9% of F)
    Basis function eval.    ....       2.069 sec  ( 15.8% of XC)
    Density eval.           ....       4.872 sec  ( 37.2% of XC)
    XC-Functional eval.     ....       0.127 sec  (  1.0% of XC)
    XC-Potential eval.      ....       4.774 sec  ( 36.5% of XC)
Diagonalization             ....       0.521 sec  (  0.2%)
Density matrix formation    ....       0.045 sec  (  0.0%)
Population analysis         ....       0.341 sec  (  0.1%)
Initial guess               ....       0.624 sec  (  0.3%)
Orbital Transformation      ....       0.000 sec  (  0.0%)
Orbital Orthonormalization  ....       0.558 sec  (  0.2%)
DIIS solution               ....       0.187 sec  (  0.1%)
SOSCF solution              ....       0.396 sec  (  0.2%)
Grid generation             ....       7.146 sec  (  3.1%)

Maximum memory used throughout the entire SCF-calculation: 224.3 MB


           ************************************************************
           *        Program running with 4 parallel MPI-processes     *
           *              working on a common directory               *
           ************************************************************
------------------------------------------------------------------------------
                        ORCA TD-DFT/TDA CALCULATION
------------------------------------------------------------------------------

Input orbitals are from        ... pbe0-train-16_job2.gbw
CI-vector output               ... pbe0-train-16_job2.cis
Tamm-Dancoff approximation     ... operative
CIS-Integral strategy          ... AO-integrals
Integral handling              ... AO integral Direct
Max. core memory used          ... 4000 MB
Reference state                ... RHF
Generation of triplets         ... off
Follow IRoot                   ... off
Number of operators            ... 1
Orbital ranges used for CIS calculation:
 Operator 0:  Orbitals  16... 54  to  55...903
XAS localization array:
 Operator 0:  Orbitals  -1... -1

-------------------
XC-INTEGRATION GRID
-------------------

General Integration Accuracy     IntAcc      ... 3.467
Radial Grid Type                 RadialGrid  ... OptM3 with GC (2021)
Angular Grid (max. ang.)         AngularGrid ... 1 (Lebedev-50)
Angular grid pruning method      GridPruning ... 4 (adaptive)
Weight generation scheme         WeightScheme... Becke
Basis function cutoff            BFCut       ... 1.0000e-11
Integration weight cutoff        WCut        ... 1.0000e-14
Angular grids for H and He will be reduced by one unit
Partially contracted basis set               ... off
Rotationally invariant grid construction     ... off

Total number of grid points                  ...    20520
Total number of batches                      ...      333
Average number of points per batch           ...       61
Average number of grid points per atom       ...      733

---------------------
COSX-INTEGRATION GRID
---------------------

General Integration Accuracy     IntAcc      ... 3.067
Radial Grid Type                 RadialGrid  ... OptM3 with GC (2021)
Angular Grid (max. ang.)         AngularGrid ... 1 (Lebedev-50)
Angular grid pruning method      GridPruning ... 4 (adaptive)
Weight generation scheme         WeightScheme... Becke
Basis function cutoff            BFCut       ... 1.0000e-11
Integration weight cutoff        WCut        ... 1.0000e-14
Angular grids for H and He will be reduced by one unit
Partially contracted basis set               ... on
Rotationally invariant grid construction     ... off

Total number of grid points                  ...     9336
Total number of batches                      ...      161
Average number of points per batch           ...       57
Average number of grid points per atom       ...      333

---------------
TD-DFT XC SETUP
---------------

DFT calculation                         ... on
Name of the grid file                   ... pbe0-train-16_job2.grid_cis.tmp
Exchange functional (TD-DFT)            ... PBE
   PBE kappa parameter  XKappa (TD-DFT) ...  0.804000
   PBE mue parameter   XMuePBE (TD-DFT) ...  0.219520
Correlation functional (TD-DFT)         ... PBE
   PBE beta parameter CBetaPBE (TD-DFT) ...  0.066725
 LDA part of GGA corr.  LDAOpt (TD-DFT) ... PW91-LDA
Hybrid DFT                              ... on
   Exchange mixing (TD-DFT)             ...  0.250
   GGA exch. scaling (TD-DFT)           ...  0.750
   GGA corr. scaling (TD-DFT)           ...  1.000

Building densities             ... done
Calculating rho(r) on the grid ... done
Building xc-kernel on the grid ... done
                    *** TD-DFT CALCULATION INITIALIZED ***

---------------------------------
    LR-CPCM (non-equilibrium)
---------------------------------

Setting up LR-CPCM             ... done

------------------------
DAVIDSON-DIAGONALIZATION
------------------------

Dimension of the eigenvalue problem            ...  33111
Number of roots to be determined               ...     10
Maximum size of the expansion space            ...     70
Maximum number of iterations                   ...    100
Convergence tolerance for the residual         ...    1.000e-06
Convergence tolerance for the energies         ...    1.000e-06
Orthogonality tolerance                        ...    1.000e-14
Level Shift                                    ...    0.000e+00
Constructing the preconditioner                ... o.k.
Building the initial guess                     ... o.k.
Number of trial vectors determined             ...     70


                       ****Iteration    0****

   Memory handling for direct AO based CIS:
   Memory per vector needed      ...    37 MB
   Memory needed                 ...  1122 MB
   Memory available              ...  4000 MB
   Number of vectors per batch   ...   106
   Number of batches             ...     1
   Time for densities:            0.423
   Time for RI-J (Direct):       16.521
   Time for K (COSX):            83.479
   Time for XC-Integration:      46.469
   Time for LR-CPCM terms:       19.677
   Time for Sigma-Completion:     0.297
   Size of expansion space: 30
   Lowest Energy          :     0.139732314667
   Maximum Energy change  :     0.201863771769 (vector 9)
   Maximum residual norm  :     0.010895578121

                       ****Iteration    1****
   Time for densities:            0.141
   Time for RI-J (Direct):       10.032
   Time for K (COSX):            31.748
   Time for XC-Integration:      16.239
   Time for LR-CPCM terms:        9.544
   Time for Sigma-Completion:     0.132
   Size of expansion space: 40
   Lowest Energy          :     0.127905980917
   Maximum Energy change  :     0.011826333749 (vector 0)
   Maximum residual norm  :     0.000425326279

                       ****Iteration    2****
   Time for densities:            0.141
   Time for RI-J (Direct):        9.999
   Time for K (COSX):            29.771
   Time for XC-Integration:      16.700
   Time for LR-CPCM terms:        9.781
   Time for Sigma-Completion:     0.101
   Size of expansion space: 50
   Lowest Energy          :     0.127608266321
   Maximum Energy change  :     0.000600693364 (vector 4)
   Maximum residual norm  :     0.000032309783

                       ****Iteration    3****
   Time for densities:            0.143
   Time for RI-J (Direct):       10.255
   Time for K (COSX):            31.627
   Time for XC-Integration:      16.349
   Time for LR-CPCM terms:        9.709
   Time for Sigma-Completion:     0.102
   Size of expansion space: 60
   Lowest Energy          :     0.127580641880
   Maximum Energy change  :     0.000043530908 (vector 4)
   Maximum residual norm  :     0.000001486253

                       ****Iteration    4****
   Time for densities:            0.146
   Time for RI-J (Direct):       10.318
   Time for K (COSX):            31.495
   Time for XC-Integration:      16.660
   Time for LR-CPCM terms:        9.635
   Time for Sigma-Completion:     0.100
   Size of expansion space: 70
   Lowest Energy          :     0.127579748198
   Maximum Energy change  :     0.000001924444 (vector 7)
   Maximum residual norm  :     0.000000070282

      *** CONVERGENCE OF RESIDUAL NORM REACHED ***

Storing the converged CI vectors               ... pbe0-train-16_job2.cis1

                 *** DAVIDSON DONE ***

Total time for solving the CIS problem:   440.337sec

------------------------------------
TD-DFT/TDA EXCITED STATES (SINGLETS)
------------------------------------

the weight of the individual excitations are printed if larger than 1.0e-02

STATE  1:  E=   0.127580 au      3.472 eV    28000.5 cm**-1 <S**2> =   0.000000
    54a ->  55a  :     0.921392 (c=  0.95989189)
    54a ->  56a  :     0.043974 (c= -0.20969962)

STATE  2:  E=   0.153010 au      4.164 eV    33581.8 cm**-1 <S**2> =   0.000000
    51a ->  55a  :     0.022809 (c=  0.15102668)
    54a ->  55a  :     0.045296 (c=  0.21282878)
    54a ->  56a  :     0.895739 (c=  0.94643497)

STATE  3:  E=   0.158761 au      4.320 eV    34844.1 cm**-1 <S**2> =   0.000000
    53a ->  55a  :     0.022386 (c= -0.14961831)
    53a ->  56a  :     0.021864 (c= -0.14786556)
    54a ->  57a  :     0.925770 (c=  0.96216949)

STATE  4:  E=   0.171541 au      4.668 eV    37648.8 cm**-1 <S**2> =   0.000000
    54a ->  58a  :     0.944428 (c= -0.97181690)
    54a ->  65a  :     0.017451 (c= -0.13210364)

STATE  5:  E=   0.181825 au      4.948 eV    39905.9 cm**-1 <S**2> =   0.000000
    51a ->  55a  :     0.113038 (c=  0.33621160)
    52a ->  55a  :     0.067017 (c= -0.25887609)
    54a ->  59a  :     0.788355 (c= -0.88789335)

STATE  6:  E=   0.185540 au      5.049 eV    40721.2 cm**-1 <S**2> =   0.000000
    54a ->  60a  :     0.919256 (c=  0.95877817)
    54a ->  61a  :     0.038895 (c= -0.19721864)

STATE  7:  E=   0.189225 au      5.149 eV    41530.1 cm**-1 <S**2> =   0.000000
    54a ->  60a  :     0.031299 (c=  0.17691632)
    54a ->  61a  :     0.926773 (c=  0.96269048)

STATE  8:  E=   0.195648 au      5.324 eV    42939.8 cm**-1 <S**2> =   0.000000
    52a ->  57a  :     0.085807 (c= -0.29292765)
    53a ->  55a  :     0.796899 (c= -0.89269213)
    53a ->  56a  :     0.021618 (c= -0.14703154)
    54a ->  57a  :     0.028803 (c= -0.16971491)
    54a ->  62a  :     0.010748 (c= -0.10367260)

STATE  9:  E=   0.198881 au      5.412 eV    43649.2 cm**-1 <S**2> =   0.000000
    54a ->  62a  :     0.295126 (c=  0.54325464)
    54a ->  63a  :     0.417086 (c=  0.64582186)
    54a ->  64a  :     0.249154 (c= -0.49915334)

STATE 10:  E=   0.200374 au      5.452 eV    43977.1 cm**-1 <S**2> =   0.000000
    53a ->  55a  :     0.025603 (c=  0.16000913)
    54a ->  58a  :     0.026016 (c= -0.16129379)
    54a ->  60a  :     0.013206 (c= -0.11491841)
    54a ->  62a  :     0.422968 (c= -0.65035963)
    54a ->  63a  :     0.356491 (c=  0.59706878)
    54a ->  65a  :     0.100090 (c=  0.31636964)
    54a ->  68a  :     0.014502 (c= -0.12042371)


-----------------------------
TD-DFT/TDA-EXCITATION SPECTRA
-----------------------------

Center of mass = (  0.1104, -0.0265, -0.0158)
Calculating the Dipole integrals                  ... done
Transforming integrals                            ... done
Calculating the Linear Momentum integrals         ... done
Transforming integrals                            ... done
Calculating angular momentum integrals            ... done
Transforming integrals                            ... done

-----------------------------------------------------------------------------
         ABSORPTION SPECTRUM VIA TRANSITION ELECTRIC DIPOLE MOMENTS
-----------------------------------------------------------------------------
State   Energy    Wavelength  fosc         T2        TX        TY        TZ  
        (cm-1)      (nm)                 (au**2)    (au)      (au)      (au) 
-----------------------------------------------------------------------------
   1   28000.5    357.1   0.317884781   3.73748   1.92906  -0.00740   0.12718
   2   33581.8    297.8   0.466209077   4.57038   2.06582   0.42176   0.35337
   3   34844.1    287.0   0.042561699   0.40213   0.56694   0.13588   0.24949
   4   37648.8    265.6   0.002980237   0.02606  -0.11353   0.09150  -0.06927
   5   39905.9    250.6   0.096397687   0.79525  -0.21436   0.72696   0.46992
   6   40721.2    245.6   0.004738800   0.03831   0.03267   0.15364  -0.11679
   7   41530.1    240.8   0.003624646   0.02873  -0.09095   0.01043   0.14266
   8   42939.8    232.9   0.020014705   0.15345  -0.09420  -0.08922  -0.36961
   9   43649.2    229.1   0.013620184   0.10273   0.22169   0.21968   0.07294
  10   43977.1    227.4   0.004484929   0.03357   0.06028   0.15957  -0.06691

-----------------------------------------------------------------------------
         ABSORPTION SPECTRUM VIA TRANSITION VELOCITY DIPOLE MOMENTS
-----------------------------------------------------------------------------
State   Energy    Wavelength   fosc        P2         PX        PY        PZ  
        (cm-1)      (nm)                 (au**2)     (au)      (au)      (au) 
-----------------------------------------------------------------------------
   1   28000.5    357.1   0.027652164   0.00529  -0.06714  -0.02071  -0.01884
   2   33581.8    297.8   0.194254759   0.04458  -0.21026  -0.00278  -0.01920
   3   34844.1    287.0   0.015307591   0.00365  -0.05935   0.00571   0.00948
   4   37648.8    265.6   0.001313195   0.00034   0.01507  -0.00954   0.00445
   5   39905.9    250.6   0.024422441   0.00666   0.04300  -0.06065  -0.03366
   6   40721.2    245.6   0.005727917   0.00159  -0.00408  -0.02336   0.03212
   7   41530.1    240.8   0.003126885   0.00089   0.01633   0.00504  -0.02440
   8   42939.8    232.9   0.000929397   0.00027   0.00675   0.00035   0.01507
   9   43649.2    229.1   0.006773540   0.00202  -0.02719  -0.03349  -0.01263
  10   43977.1    227.4   0.007650079   0.00230  -0.00899  -0.03580   0.03060

-------------------------------------------------------------------
                             CD SPECTRUM
-------------------------------------------------------------------
State  Energy     Wavelength     R         MX        MY        MZ   
       (cm-1)       (nm)     (1e40*cgs)   (au)      (au)      (au)  
-------------------------------------------------------------------
   1   28000.5    357.1     -5.64750  -0.02655  -0.16987   0.29856
   2   33581.8    297.8     -1.51827   0.00359   0.21946  -0.29201
   3   34844.1    287.0     -9.47592  -0.04008  -0.17362   0.10508
   4   37648.8    265.6      5.56843  -0.10263  -0.05590  -0.07615
   5   39905.9    250.6     13.91780   0.02475  -0.05358   0.15699
   6   40721.2    245.6     -6.40002   0.00252  -0.19643  -0.14147
   7   41530.1    240.8      2.58809  -0.11367  -0.01126  -0.03317
   8   42939.8    232.9     19.87767   0.01235   0.20841  -0.16753
   9   43649.2    229.1      2.82886  -0.00847   0.08240  -0.14019
  10   43977.1    227.4     -6.21637   0.02752  -0.04835   0.10656

-------------------------------------------------------------------
         CD SPECTRUM VIA TRANSITION VELOCITY DIPOLE MOMENTS        
-------------------------------------------------------------------
State  Energy     Wavelength     R         MX        MY        MZ   
       (cm-1)       (nm)     (1e40*cgs)   (au)      (au)      (au)  
-------------------------------------------------------------------
   1   28000.5    357.1     -1.19945  -0.02655  -0.16987   0.29856
   2   33581.8    297.8     13.07212   0.00359   0.21946  -0.29201
   3   34844.1    287.0      7.08008  -0.04008  -0.17362   0.10508
   4   37648.8    265.6     -3.71767  -0.10263  -0.05590  -0.07615
   5   39905.9    250.6     -2.51840   0.02475  -0.05358   0.15699
   6   40721.2    245.6      0.08840   0.00252  -0.19643  -0.14147
   7   41530.1    240.8     -2.75156  -0.11367  -0.01126  -0.03317
   8   42939.8    232.9     -5.70877   0.01235   0.20841  -0.16753
   9   43649.2    229.1     -1.79942  -0.00847   0.08240  -0.14019
  10   43977.1    227.4     11.16359   0.02752  -0.04835   0.10656

Total run time:      447.436 sec

           *** ORCA-CIS/TD-DFT FINISHED WITHOUT ERROR ***

Maximum memory used throughout the entire CIS-calculation: 1061.6 MB

-----------------------
CIS/TD-DFT TOTAL ENERGY
-----------------------

    E(SCF)  =   -649.706644653 Eh
    DE(CIS) =      0.127579748 Eh (Root  1)
    ----------------------------- ---------
    E(tot)  =   -649.579064904 Eh


-------------------------   --------------------
FINAL SINGLE POINT ENERGY      -649.579064904498
-------------------------   --------------------


                            ***************************************
                            *     ORCA property calculations      *
                            ***************************************

                                    ---------------------
                                    Active property flags
                                    ---------------------
   (+) Dipole Moment


------------------------------------------------------------------------------
                       ORCA ELECTRIC PROPERTIES CALCULATION
------------------------------------------------------------------------------

Dipole Moment Calculation                       ... on
Quadrupole Moment Calculation                   ... off
Polarizability Calculation                      ... off
GBWName                                         ... pbe0-train-16_job2.gbw
Electron density                                ... pbe0-train-16_job2.scfp
The origin for moment calculation is the CENTER OF MASS  = ( 0.110433, -0.026460 -0.015785)

-------------
DIPOLE MOMENT
-------------
                                X             Y             Z
Electronic contribution:      0.13811      -1.33671      -0.88933
Nuclear contribution   :     -2.08299       0.71560       0.40138
                        -----------------------------------------
Total Dipole Moment    :     -1.94488      -0.62110      -0.48795
                        -----------------------------------------
Magnitude (a.u.)       :      2.09915
Magnitude (Debye)      :      5.33561



--------------------
Rotational spectrum 
--------------------
 
Rotational constants in cm-1:     0.037276     0.011929     0.009202 
Rotational constants in MHz :  1117.516585   357.623642   275.862984 

 Dipole components along the rotational axes: 
x,y,z [a.u.] :    -1.942215    -0.791620     0.086981 
x,y,z [Debye]:    -4.936718    -2.012138     0.221089 

 

Timings for individual modules:

Sum of individual times         ...      691.383 sec (=  11.523 min)
GTO integral calculation        ...        5.176 sec (=   0.086 min)   0.7 %
SCF iterations                  ...      236.436 sec (=   3.941 min)  34.2 %
CIS module                      ...      449.772 sec (=   7.496 min)  65.1 %



                             ****ORCA TERMINATED NORMALLY****
TOTAL RUN TIME: 0 days 1 hours 41 minutes 6 seconds 691 msec
