
                                 *****************
                                 * O   R   C   A *
                                 *****************

                                            #,                                       
                                            ###                                      
                                            ####                                     
                                            #####                                    
                                            ######                                   
                                           ########,                                 
                                     ,,################,,,,,                         
                               ,,#################################,,                 
                          ,,##########################################,,             
                       ,#########################################, ''#####,          
                    ,#############################################,,   '####,        
                  ,##################################################,,,,####,       
                ,###########''''           ''''###############################       
              ,#####''   ,,,,##########,,,,          '''####'''          '####       
            ,##' ,,,,###########################,,,                        '##       
           ' ,,###''''                  '''############,,,                           
         ,,##''                                '''############,,,,        ,,,,,,###''
      ,#''                                            '''#######################'''  
     '                                                          ''''####''''         
             ,#######,   #######,   ,#######,      ##                                
            ,#'     '#,  ##    ##  ,#'     '#,    #''#        ######   ,####,        
            ##       ##  ##   ,#'  ##            #'  '#       #        #'  '#        
            ##       ##  #######   ##           ,######,      #####,   #    #        
            '#,     ,#'  ##    ##  '#,     ,#' ,#      #,         ##   #,  ,#        
             '#######'   ##     ##  '#######'  #'      '#     #####' # '####'        



                  #######################################################
                  #                        -***-                        #
                  #          Department of theory and spectroscopy      #
                  #    Directorship and core code : Frank Neese         #
                  #        Max Planck Institute fuer Kohlenforschung    #
                  #                Kaiser Wilhelm Platz 1               #
                  #                 D-45470 Muelheim/Ruhr               #
                  #                      Germany                        #
                  #                                                     #
                  #                  All rights reserved                #
                  #                        -***-                        #
                  #######################################################


                         Program Version 5.0.2 -  RELEASE  -


 With contributions from (in alphabetic order):
   Daniel Aravena         : Magnetic Suceptibility
   Michael Atanasov       : Ab Initio Ligand Field Theory (pilot matlab implementation)
   Alexander A. Auer      : GIAO ZORA, VPT2 properties, NMR spectrum
   Ute Becker             : Parallelization
   Giovanni Bistoni       : ED, misc. LED, open-shell LED, HFLD
   Martin Brehm           : Molecular dynamics
   Dmytro Bykov           : SCF Hessian
   Vijay G. Chilkuri      : MRCI spin determinant printing, contributions to CSF-ICE
   Dipayan Datta          : RHF DLPNO-CCSD density
   Achintya Kumar Dutta   : EOM-CC, STEOM-CC
   Dmitry Ganyushin       : Spin-Orbit,Spin-Spin,Magnetic field MRCI
   Miquel Garcia          : C-PCM and meta-GGA Hessian, CC/C-PCM, Gaussian charge scheme
   Yang Guo               : DLPNO-NEVPT2, F12-NEVPT2, CIM, IAO-localization
   Andreas Hansen         : Spin unrestricted coupled pair/coupled cluster methods
   Benjamin Helmich-Paris : MC-RPA, TRAH-SCF, COSX integrals
   Lee Huntington         : MR-EOM, pCC
   Robert Izsak           : Overlap fitted RIJCOSX, COSX-SCS-MP3, EOM
   Marcus Kettner         : VPT2
   Christian Kollmar      : KDIIS, OOCD, Brueckner-CCSD(T), CCSD density, CASPT2, CASPT2-K
   Simone Kossmann        : Meta GGA functionals, TD-DFT gradient, OOMP2, MP2 Hessian
   Martin Krupicka        : Initial AUTO-CI
   Lucas Lang             : DCDCAS
   Marvin Lechner         : AUTO-CI (C++ implementation), FIC-MRCC
   Dagmar Lenk            : GEPOL surface, SMD
   Dimitrios Liakos       : Extrapolation schemes; Compound Job, initial MDCI parallelization
   Dimitrios Manganas     : Further ROCIS development; embedding schemes
   Dimitrios Pantazis     : SARC Basis sets
   Anastasios Papadopoulos: AUTO-CI, single reference methods and gradients
   Taras Petrenko         : DFT Hessian,TD-DFT gradient, ASA, ECA, R-Raman, ABS, FL, XAS/XES, NRVS
   Peter Pinski           : DLPNO-MP2, DLPNO-MP2 Gradient
   Christoph Reimann      : Effective Core Potentials
   Marius Retegan         : Local ZFS, SOC
   Christoph Riplinger    : Optimizer, TS searches, QM/MM, DLPNO-CCSD(T), (RO)-DLPNO pert. Triples
   Tobias Risthaus        : Range-separated hybrids, TD-DFT gradient, RPA, STAB
   Michael Roemelt        : Original ROCIS implementation
   Masaaki Saitow         : Open-shell DLPNO-CCSD energy and density
   Barbara Sandhoefer     : DKH picture change effects
   Avijit Sen             : IP-ROCIS
   Kantharuban Sivalingam : CASSCF convergence, NEVPT2, FIC-MRCI
   Bernardo de Souza      : ESD, SOC TD-DFT
   Georgi Stoychev        : AutoAux, RI-MP2 NMR, DLPNO-MP2 response
   Willem Van den Heuvel  : Paramagnetic NMR
   Boris Wezisla          : Elementary symmetry handling
   Frank Wennmohs         : Technical directorship


 We gratefully acknowledge several colleagues who have allowed us to
 interface, adapt or use parts of their codes:
   Stefan Grimme, W. Hujo, H. Kruse, P. Pracht,  : VdW corrections, initial TS optimization,
                  C. Bannwarth, S. Ehlert          DFT functionals, gCP, sTDA/sTD-DF
   Ed Valeev, F. Pavosevic, A. Kumar             : LibInt (2-el integral package), F12 methods
   Garnet Chan, S. Sharma, J. Yang, R. Olivares  : DMRG
   Ulf Ekstrom                                   : XCFun DFT Library
   Mihaly Kallay                                 : mrcc  (arbitrary order and MRCC methods)
   Jiri Pittner, Ondrej Demel                    : Mk-CCSD
   Frank Weinhold                                : gennbo (NPA and NBO analysis)
   Christopher J. Cramer and Donald G. Truhlar   : smd solvation model
   Lars Goerigk                                  : TD-DFT with DH, B97 family of functionals
   V. Asgeirsson, H. Jonsson                     : NEB implementation
   FAccTs GmbH                                   : IRC, NEB, NEB-TS, DLPNO-Multilevel, CI-OPT
                                                   MM, QMMM, 2- and 3-layer-ONIOM, Crystal-QMMM,
                                                   LR-CPCM, SF, NACMEs, symmetry and pop. for TD-DFT,
                                                   nearIR, NL-DFT gradient (VV10), updates on ESD,
                                                   ML-optimized integration grids
   S Lehtola, MJT Oliveira, MAL Marques          : LibXC Library
   Liviu Ungur et al                             : ANISO software


 Your calculation uses the libint2 library for the computation of 2-el integrals
 For citations please refer to: http://libint.valeyev.net

 Your ORCA version has been built with support for libXC version: 5.1.0
 For citations please refer to: https://tddft.org/programs/libxc/

 This ORCA versions uses:
   CBLAS   interface :  Fast vector & matrix operations
   LAPACKE interface :  Fast linear algebra routines
   SCALAPACK package :  Parallel linear algebra routines
   Shared memory     :  Shared parallel matrices
   BLAS/LAPACK       :  OpenBLAS 0.3.15  USE64BITINT DYNAMIC_ARCH NO_AFFINITY SkylakeX SINGLE_THREADED
        Core in use  :  SkylakeX
   Copyright (c) 2011-2014, The OpenBLAS Project


Your calculation utilizes the atom-pairwise dispersion correction
with the zero-damping scheme (D30)
Cite in your paper:
S.Grimme, J.Antony, S.Ehrlich and H.Krieg, J.Chem.Phys., 132, (2010), 154104 
   

Your calculation utilizes the SMD solvation module
Please cite in your paper:
A.V. Marenich, C.J. Cramer, D.G. Truhlar J. Phys. Chem. B, 113, (2009), 6378 

XCFun DFT library Copyright 2009-2010 Ulf Ekstrom and contributors.
See http://admol.org/xcfun for more information.
This is free software; see the source code for copying conditions.
There is ABSOLUTELY NO WARRANTY; not even for MERCHANTABILITY or FITNESS FOR A PARTICULAR PURPOSE.
For details see the documentation.
Scientific users of this library should cite U. Ekstrom, L. Visscher, R. Bast, A. J. Thorvaldsen and K. Ruud;
J.Chem.Theor.Comp. 2010, DOI: 10.1021/ct100117s
XCFun Version 0.99 

================================================================================

----- Orbital basis set information -----
Your calculation utilizes the basis: aug-cc-pVTZ 
    H, B-Ne : Obtained from the ccRepo (grant-hill.group.shef.ac.uk/ccrepo) Feb. 2017
              R. A. Kendall, T. H. Dunning, Jr., R. J. Harrison, J. Chem. Phys. 96, 6796 (1992)
         He : Obtained from the ccRepo (grant-hill.group.shef.ac.uk/ccrepo) Feb. 2017
              D. E. Woon, T. H. Dunning, Jr., J. Chem. Phys. 100, 2975 (1994)
  Li-Be, Na : Obtained from the ccRepo (grant-hill.group.shef.ac.uk/ccrepo) Feb. 2017
              B. P. Prascher, D. E. Woon, K. A. Peterson, T. H. Dunning, Jr., A. K. Wilson, Theor. Chem. Acc. 128, 69 (2011)
         Mg : Obtained from the Peterson Research Group Website (tyr0.chem.wsu.edu/~kipeters) Feb. 2017
              B. P. Prascher, D. E. Woon, K. A. Peterson, T. H. Dunning, Jr., A. K. Wilson, Theor. Chem. Acc. 128, 69 (2011)
      Al-Ar : Obtained from the ccRepo (grant-hill.group.shef.ac.uk/ccrepo) Feb. 2017
              D. E. Woon, T. H. Dunning, Jr., J. Chem. Phys. 98, 1358 (1993)
      Sc-Zn : Obtained from the ccRepo (grant-hill.group.shef.ac.uk/ccrepo) Feb. 2017
              N. B. Balabanov, K. A. Peterson, J. Chem. Phys. 123, 064107 (2005)
              N. B. Balabanov, K. A. Peterson, J. Chem. Phys. 125, 074110 (2006)
      Ga-Kr : Obtained from the ccRepo (grant-hill.group.shef.ac.uk/ccrepo) Feb. 2017
              A. K. Wilson, D. E. Woon, K. A. Peterson, T. H. Dunning, Jr., J. Chem. Phys. 110, 7667 (1999)
     Ag, Au : Obtained from the Peterson Research Group Website (tyr0.chem.wsu.edu/~kipeters) Feb. 2017
              K. A. Peterson, C. Puzzarini, Theor. Chem. Acc. 114, 283 (2005)

The basis set includes element-specific modifications.

Your calculation utilizes the basis: cc-pVTZ 
       H, B-Ne : Obtained from the ccRepo (grant-hill.group.shef.ac.uk/ccrepo) Feb. 2017
                 T. H. Dunning, Jr., J. Chem. Phys. 90, 1007 (1989)
            He : Obtained from the ccRepo (grant-hill.group.shef.ac.uk/ccrepo) Feb. 2017
                 D. E. Woon, T. H. Dunning, Jr., J. Chem. Phys. 100, 2975 (1994)
  Li-Be, Na-Mg : Obtained from the ccRepo (grant-hill.group.shef.ac.uk/ccrepo) Feb. 2017
                 B. P. Prascher, D. E. Woon, K. A. Peterson, T. H. Dunning, Jr., A. K. Wilson, Theor. Chem. Acc. 128, 69 (2011)
         Al-Ar : Obtained from the ccRepo (grant-hill.group.shef.ac.uk/ccrepo) Feb. 2017
                 D. E. Woon, T. H. Dunning, Jr., J. Chem. Phys. 98, 1358 (1993)
            Ca : Obtained from the Peterson Research Group Website (tyr0.chem.wsu.edu/~kipeters) Feb. 2017
                 J. Koput, K. A. Peterson, J. Phys. Chem. 106, 9595 (2002)
         Sc-Zn : Obtained from the ccRepo (grant-hill.group.shef.ac.uk/ccrepo) Feb. 2017
                 N. B. Balabanov, K. A. Peterson, J. Chem. Phys. 123, 064107 (2005)
                 N. B. Balabanov, K. A. Peterson, J. Chem. Phys. 125, 074110 (2006)
         Ga-Kr : Obtained from the ccRepo (grant-hill.group.shef.ac.uk/ccrepo) Feb. 2017
                 A. K. Wilson, D. E. Woon, K. A. Peterson, T. H. Dunning, Jr., J. Chem. Phys. 110, 7667 (1999)
             Y : Obtained from the ccRepo (grant-hill.group.shef.ac.uk/ccrepo) Feb. 2017
                 K. A. Peterson, D. Figgen, M. Dolg, H. Stoll, J. Chem. Phys. 126, 124101 (2007)
        Ag, Au : Obtained from the Peterson Research Group Website (tyr0.chem.wsu.edu/~kipeters) Feb. 2017
                 K. A. Peterson, C. Puzzarini, Theor. Chem. Acc. 114, 283 (2005)

----- AuxJ basis set information -----
Your calculation utilizes the auxiliary basis: aug-cc-pVTZ/JK 
  H, B-F, Al-Cl, Ga-Br : Obtained from the TURBOMOLE 7.0 basis set library

The basis set includes element-specific modifications.

Your calculation utilizes the auxiliary basis: cc-pVTZ/JK 
  H, B-F, Al-Cl, Ga-Br : Obtained from the TURBOMOLE 7.0 basis set library

----- AuxC basis set information -----
Your calculation utilizes the auxiliary basis: aug-cc-pVTZ/C 
  H-He, B-F, Al-Ar, Ga-Kr : Obtained from the EMSL Basis Set Exchange (bse.pnl.gov) Feb. 2017
                            F. Weigend, A. Kohn, C. Hattig, J. Chem. Phys. 116, 3175 (2002)
                   Be, Mg : Obtained from the TURBOMOLE 7.0 basis set library
                            C. Haettig, Phys. Chem. Chem. Phys. 7, 59 (2005)
                       Ne : Obtained from the EMSL Basis Set Exchange (bse.pnl.gov) Feb. 2017
                            C. Haettig, Phys. Chem. Chem. Phys. 7, 59 (2005)
                            F. Weigend, A. Kohn, C. Hattig, J. Chem. Phys. 116, 3175 (2002)
                    Sc-Zn : Obtained from the EMSL Basis Set Exchange (bse.pnl.gov) Feb. 2017
                            J. G. Hill, J. A. Platts, J. Chem. Phys. 128, 044104 (2008)

The basis set includes element-specific modifications.

Your calculation utilizes the auxiliary basis: cc-pVTZ/C 
  Obtained from the EMSL Basis Set Exchange (bse.pnl.gov) Feb. 2017
  H-He, B-F, Al-Ar, Ga-Kr : F. Weigend, A. Kohn, C. Hattig, J. Chem. Phys. 116, 3175 (2002)
             Li-Be, Na-Mg : C. Haettig, Phys. Chem. Chem. Phys. 7, 59 (2005)
                       Ne : C. Haettig, Phys. Chem. Chem. Phys. 7, 59 (2005)
                            F. Weigend, A. Kohn, C. Hattig, J. Chem. Phys. 116, 3175 (2002)
                    Sc-Zn : J. G. Hill, J. A. Platts, J. Chem. Phys. 128, 044104 (2008)

================================================================================
                                        WARNINGS
                       Please study these warnings very carefully!
================================================================================


WARNING: Geometry Optimization
  ===> : Switching off AutoStart
         For restart on a previous wavefunction, please use MOREAD

INFO   : the flag for use of the SHARK integral package has been found!



***************************************
The coordinates will be read from file: 
***************************************


Your calculation utilizes the atom-pairwise dispersion correction
with the zero-damping scheme (D30)
Cite in your paper:
S.Grimme, J.Antony, S.Ehrlich and H.Krieg, J.Chem.Phys., 132, (2010), 154104 
   

Your calculation utilizes the SMD solvation module
Please cite in your paper:
A.V. Marenich, C.J. Cramer, D.G. Truhlar J. Phys. Chem. B, 113, (2009), 6378 

XCFun DFT library Copyright 2009-2010 Ulf Ekstrom and contributors.
See http://admol.org/xcfun for more information.
This is free software; see the source code for copying conditions.
There is ABSOLUTELY NO WARRANTY; not even for MERCHANTABILITY or FITNESS FOR A PARTICULAR PURPOSE.
For details see the documentation.
Scientific users of this library should cite U. Ekstrom, L. Visscher, R. Bast, A. J. Thorvaldsen and K. Ruud;
J.Chem.Theor.Comp. 2010, DOI: 10.1021/ct100117s
XCFun Version 0.99 

================================================================================

----- Orbital basis set information -----
Your calculation utilizes the basis: aug-cc-pVTZ 
    H, B-Ne : Obtained from the ccRepo (grant-hill.group.shef.ac.uk/ccrepo) Feb. 2017
              R. A. Kendall, T. H. Dunning, Jr., R. J. Harrison, J. Chem. Phys. 96, 6796 (1992)
         He : Obtained from the ccRepo (grant-hill.group.shef.ac.uk/ccrepo) Feb. 2017
              D. E. Woon, T. H. Dunning, Jr., J. Chem. Phys. 100, 2975 (1994)
  Li-Be, Na : Obtained from the ccRepo (grant-hill.group.shef.ac.uk/ccrepo) Feb. 2017
              B. P. Prascher, D. E. Woon, K. A. Peterson, T. H. Dunning, Jr., A. K. Wilson, Theor. Chem. Acc. 128, 69 (2011)
         Mg : Obtained from the Peterson Research Group Website (tyr0.chem.wsu.edu/~kipeters) Feb. 2017
              B. P. Prascher, D. E. Woon, K. A. Peterson, T. H. Dunning, Jr., A. K. Wilson, Theor. Chem. Acc. 128, 69 (2011)
      Al-Ar : Obtained from the ccRepo (grant-hill.group.shef.ac.uk/ccrepo) Feb. 2017
              D. E. Woon, T. H. Dunning, Jr., J. Chem. Phys. 98, 1358 (1993)
      Sc-Zn : Obtained from the ccRepo (grant-hill.group.shef.ac.uk/ccrepo) Feb. 2017
              N. B. Balabanov, K. A. Peterson, J. Chem. Phys. 123, 064107 (2005)
              N. B. Balabanov, K. A. Peterson, J. Chem. Phys. 125, 074110 (2006)
      Ga-Kr : Obtained from the ccRepo (grant-hill.group.shef.ac.uk/ccrepo) Feb. 2017
              A. K. Wilson, D. E. Woon, K. A. Peterson, T. H. Dunning, Jr., J. Chem. Phys. 110, 7667 (1999)
     Ag, Au : Obtained from the Peterson Research Group Website (tyr0.chem.wsu.edu/~kipeters) Feb. 2017
              K. A. Peterson, C. Puzzarini, Theor. Chem. Acc. 114, 283 (2005)

The basis set includes element-specific modifications.

Your calculation utilizes the basis: cc-pVTZ 
       H, B-Ne : Obtained from the ccRepo (grant-hill.group.shef.ac.uk/ccrepo) Feb. 2017
                 T. H. Dunning, Jr., J. Chem. Phys. 90, 1007 (1989)
            He : Obtained from the ccRepo (grant-hill.group.shef.ac.uk/ccrepo) Feb. 2017
                 D. E. Woon, T. H. Dunning, Jr., J. Chem. Phys. 100, 2975 (1994)
  Li-Be, Na-Mg : Obtained from the ccRepo (grant-hill.group.shef.ac.uk/ccrepo) Feb. 2017
                 B. P. Prascher, D. E. Woon, K. A. Peterson, T. H. Dunning, Jr., A. K. Wilson, Theor. Chem. Acc. 128, 69 (2011)
         Al-Ar : Obtained from the ccRepo (grant-hill.group.shef.ac.uk/ccrepo) Feb. 2017
                 D. E. Woon, T. H. Dunning, Jr., J. Chem. Phys. 98, 1358 (1993)
            Ca : Obtained from the Peterson Research Group Website (tyr0.chem.wsu.edu/~kipeters) Feb. 2017
                 J. Koput, K. A. Peterson, J. Phys. Chem. 106, 9595 (2002)
         Sc-Zn : Obtained from the ccRepo (grant-hill.group.shef.ac.uk/ccrepo) Feb. 2017
                 N. B. Balabanov, K. A. Peterson, J. Chem. Phys. 123, 064107 (2005)
                 N. B. Balabanov, K. A. Peterson, J. Chem. Phys. 125, 074110 (2006)
         Ga-Kr : Obtained from the ccRepo (grant-hill.group.shef.ac.uk/ccrepo) Feb. 2017
                 A. K. Wilson, D. E. Woon, K. A. Peterson, T. H. Dunning, Jr., J. Chem. Phys. 110, 7667 (1999)
             Y : Obtained from the ccRepo (grant-hill.group.shef.ac.uk/ccrepo) Feb. 2017
                 K. A. Peterson, D. Figgen, M. Dolg, H. Stoll, J. Chem. Phys. 126, 124101 (2007)
        Ag, Au : Obtained from the Peterson Research Group Website (tyr0.chem.wsu.edu/~kipeters) Feb. 2017
                 K. A. Peterson, C. Puzzarini, Theor. Chem. Acc. 114, 283 (2005)

----- AuxJ basis set information -----
Your calculation utilizes the auxiliary basis: aug-cc-pVTZ/JK 
  H, B-F, Al-Cl, Ga-Br : Obtained from the TURBOMOLE 7.0 basis set library

The basis set includes element-specific modifications.

Your calculation utilizes the auxiliary basis: cc-pVTZ/JK 
  H, B-F, Al-Cl, Ga-Br : Obtained from the TURBOMOLE 7.0 basis set library

----- AuxC basis set information -----
Your calculation utilizes the auxiliary basis: aug-cc-pVTZ/C 
  H-He, B-F, Al-Ar, Ga-Kr : Obtained from the EMSL Basis Set Exchange (bse.pnl.gov) Feb. 2017
                            F. Weigend, A. Kohn, C. Hattig, J. Chem. Phys. 116, 3175 (2002)
                   Be, Mg : Obtained from the TURBOMOLE 7.0 basis set library
                            C. Haettig, Phys. Chem. Chem. Phys. 7, 59 (2005)
                       Ne : Obtained from the EMSL Basis Set Exchange (bse.pnl.gov) Feb. 2017
                            C. Haettig, Phys. Chem. Chem. Phys. 7, 59 (2005)
                            F. Weigend, A. Kohn, C. Hattig, J. Chem. Phys. 116, 3175 (2002)
                    Sc-Zn : Obtained from the EMSL Basis Set Exchange (bse.pnl.gov) Feb. 2017
                            J. G. Hill, J. A. Platts, J. Chem. Phys. 128, 044104 (2008)

The basis set includes element-specific modifications.

Your calculation utilizes the auxiliary basis: cc-pVTZ/C 
  Obtained from the EMSL Basis Set Exchange (bse.pnl.gov) Feb. 2017
  H-He, B-F, Al-Ar, Ga-Kr : F. Weigend, A. Kohn, C. Hattig, J. Chem. Phys. 116, 3175 (2002)
             Li-Be, Na-Mg : C. Haettig, Phys. Chem. Chem. Phys. 7, 59 (2005)
                       Ne : C. Haettig, Phys. Chem. Chem. Phys. 7, 59 (2005)
                            F. Weigend, A. Kohn, C. Hattig, J. Chem. Phys. 116, 3175 (2002)
                    Sc-Zn : J. G. Hill, J. A. Platts, J. Chem. Phys. 128, 044104 (2008)

================================================================================
                                        WARNINGS
                       Please study these warnings very carefully!
================================================================================

INFO   : Checking CIS options ...

INFO   : the flag for use of the SHARK integral package has been found!

================================================================================
                                       INPUT FILE
================================================================================
NAME = wb97x-d3-train-16.inp
|  1> ! wb97x-d3 aug-cc-PVTZ RIJCOSX Opt
|  2> %maxcore 4000
|  3> %basis
|  4>  AuxJ "aug-cc-PVTZ/JK"
|  5>  AuxC "aug-cc-PVTZ/C"
|  6>  newGTO H "cc-PVTZ" end
|  7>  newAuxJGTO H "cc-PVTZ/JK" end
|  8>  newAuxCGTO H "cc-PVTZ/C" end
|  9> end
| 10> %cpcm
| 11>  SMD true
| 12>  SMDsolvent "dichloromethane"
| 13> end
| 14> %pal nprocs 4 end
| 15> * xyz 0 1
| 16> C         -2.42590        2.44530        1.32870
| 17> C         -1.53060        1.40970        0.75600
| 18> N         -0.22420        1.39910        0.85070
| 19> C          0.23760        0.30770        0.18880
| 20> C          1.66070        0.03280        0.11160
| 21> C          2.22290       -0.69570       -0.93590
| 22> C          3.58340       -0.93750       -0.96820
| 23> C          4.40530       -0.45170        0.03490
| 24> C          3.85890        0.29320        1.06810
| 25> C          2.50060        0.53550        1.10660
| 26> C         -0.84840       -0.40410       -0.32620
| 27> C         -1.04630       -1.61470       -1.01420
| 28> C         -2.30990       -2.01210       -1.33370
| 29> C         -3.42320       -1.21070       -0.97010
| 30> C         -3.24010       -0.05980       -0.28070
| 31> N         -1.97810        0.33520        0.05040
| 32> H         -3.12110        2.00510        2.04440
| 33> H         -1.81580        3.18530        1.83680
| 34> H         -3.00160        2.93770        0.54440
| 35> H          1.59870       -1.04840       -1.74300
| 36> H          4.00740       -1.50310       -1.78600
| 37> H          5.46780       -0.64500        0.00630
| 38> H          4.49780        0.68450        1.84690
| 39> H          2.06160        1.11650        1.90270
| 40> H         -0.19020       -2.21980       -1.26340
| 41> H         -2.47940       -2.93840       -1.85910
| 42> H         -4.41940       -1.52640       -1.23400
| 43> H         -4.04840        0.57990        0.03740
| 44> *
| 45> 
| 46> 
| 47> $new_job
| 48> ! wb97x-d3 aug-cc-PVTZ RIJCOSX SP
| 49> %maxcore 4000
| 50> %basis
| 51>  AuxJ "aug-cc-PVTZ/JK"
| 52>  AuxC "aug-cc-PVTZ/C"
| 53>  newGTO H "cc-PVTZ" end
| 54>  newAuxJGTO H "cc-PVTZ/JK" end
| 55>  newAuxCGTO H "cc-PVTZ/C" end
| 56> end
| 57> %cpcm
| 58>  SMD true
| 59>  SMDsolvent "dichloromethane"
| 60> end
| 61> %pal nprocs 4 end
| 62> %tddft
| 63>  nroots 10
| 64>  maxdim 7
| 65> end
| 66> * xyzfile 0 1
| 67> 
| 68>                          ****END OF INPUT****
================================================================================


                 $$$$$$$$$$$$$$$$$$$$$$$$$$$$$$$$$$$$$$$$$$$$$$ 
                 $ THERE ARE  2 JOBS TO BE PROCESSED THIS RUN $
                 $$$$$$$$$$$$$$$$$$$$$$$$$$$$$$$$$$$$$$$$$$$$$$ 




                 $$$$$$$$$$$$$$$$  JOB NUMBER  1 $$$$$$$$$$$$$$


                       *****************************
                       * Geometry Optimization Run *
                       *****************************

Geometry optimization settings:
Update method            Update   .... BFGS
Choice of coordinates    CoordSys .... Z-matrix Internals
Initial Hessian          InHess   .... Almoef's Model

Convergence Tolerances:
Energy Change            TolE     ....  5.0000e-06 Eh
Max. Gradient            TolMAXG  ....  3.0000e-04 Eh/bohr
RMS Gradient             TolRMSG  ....  1.0000e-04 Eh/bohr
Max. Displacement        TolMAXD  ....  4.0000e-03 bohr
RMS Displacement         TolRMSD  ....  2.0000e-03 bohr
Strict Convergence                ....  False
------------------------------------------------------------------------------
                        ORCA OPTIMIZATION COORDINATE SETUP
------------------------------------------------------------------------------

The optimization will be done in new redundant internal coordinates
Making redundant internal coordinates   ...  (new redundants) done
Evaluating the initial hessian          ...  (Almloef) done
Evaluating the coordinates              ...  done
Calculating the B-matrix                .... done
Calculating the G-matrix                .... done
Diagonalizing the G-matrix              .... done
Small eigenvalue found = 7.428e-03
Small eigenvalue found = 2.903e-02
The first mode is                       ....   71
The number of degrees of freedom        ....   78

    -----------------------------------------------------------------
                    Redundant Internal Coordinates


    -----------------------------------------------------------------
         Definition                    Initial Value    Approx d2E/dq
    -----------------------------------------------------------------
      1. B(C   1,C   0)                  1.4839         0.442484   
      2. B(N   2,C   1)                  1.3099         0.751133   
      3. B(C   3,N   2)                  1.3574         0.630801   
      4. B(C   4,C   3)                  1.4515         0.498516   
      5. B(C   5,C   4)                  1.3943         0.615033   
      6. B(C   6,C   5)                  1.3822         0.642964   
      7. B(C   7,C   6)                  1.3848         0.636796   
      8. B(C   8,C   7)                  1.3860         0.634100   
      9. B(C   9,C   8)                  1.3803         0.647512   
     10. B(C   9,C   4)                  1.3958         0.611700   
     11. B(C  10,C   3)                  1.3969         0.609198   
     12. B(C  11,C  10)                  1.4064         0.588189   
     13. B(C  12,C  11)                  1.3626         0.690949   
     14. B(C  13,C  12)                  1.4191         0.561422   
     15. B(C  14,C  13)                  1.3540         0.713088   
     16. B(N  15,C  14)                  1.3632         0.617510   
     17. B(N  15,C  10)                  1.4016         0.536159   
     18. B(N  15,C   1)                  1.3611         0.622206   
     19. B(H  16,C   0)                  1.0906         0.359369   
     20. B(H  17,C   0)                  1.0854         0.366302   
     21. B(H  18,C   0)                  1.0904         0.359545   
     22. B(H  19,C   5)                  1.0796         0.374190   
     23. B(H  20,C   6)                  1.0810         0.372259   
     24. B(H  21,C   7)                  1.0803         0.373137   
     25. B(H  22,C   8)                  1.0807         0.372662   
     26. B(H  23,C   9)                  1.0789         0.375067   
     27. B(H  24,C  11)                  1.0776         0.376927   
     28. B(H  25,C  12)                  1.0783         0.375866   
     29. B(H  26,C  13)                  1.0778         0.376560   
     30. B(H  27,C  14)                  1.0788         0.375262   
     31. A(C   1,C   0,H  16)          110.8665         0.333398   
     32. A(H  16,C   0,H  17)          109.0455         0.291528   
     33. A(H  17,C   0,H  18)          109.0028         0.291550   
     34. A(H  16,C   0,H  18)          108.5267         0.290676   
     35. A(C   1,C   0,H  18)          110.8602         0.333425   
     36. A(C   1,C   0,H  17)          108.5025         0.334457   
     37. A(C   0,C   1,N   2)          125.4141         0.420143   
     38. A(C   0,C   1,N  15)          123.5475         0.406326   
     39. A(N   2,C   1,N  15)          111.0382         0.443759   
     40. A(C   1,N   2,C   3)          108.0931         0.444863   
     41. A(C   4,C   3,C  10)          130.2509         0.416143   
     42. A(N   2,C   3,C   4)          120.7824         0.416020   
     43. A(N   2,C   3,C  10)          108.9650         0.431203   
     44. A(C   5,C   4,C   9)          118.7579         0.432389   
     45. A(C   3,C   4,C   5)          122.2933         0.416849   
     46. A(C   3,C   4,C   9)          118.9379         0.416446   
     47. A(C   6,C   5,H  19)          119.6368         0.357412   
     48. A(C   4,C   5,C   6)          120.3876         0.436285   
     49. A(C   4,C   5,H  19)          119.9495         0.354727   
     50. A(C   5,C   6,C   7)          120.3906         0.439029   
     51. A(C   7,C   6,H  20)          119.9182         0.356513   
     52. A(C   5,C   6,H  20)          119.6896         0.357098   
     53. A(C   6,C   7,C   8)          119.6395         0.437931   
     54. A(C   8,C   7,H  21)          120.2407         0.356399   
     55. A(C   6,C   7,H  21)          120.1173         0.356656   
     56. A(C   7,C   8,C   9)          120.2051         0.439252   
     57. A(C   9,C   8,H  22)          119.8764         0.357592   
     58. A(C   7,C   8,H  22)          119.9184         0.356322   
     59. A(C   4,C   9,C   8)          120.6011         0.436412   
     60. A(C   8,C   9,H  23)          121.0325         0.357983   
     61. A(C   4,C   9,H  23)          118.3664         0.354541   
     62. A(C   3,C  10,C  11)          136.7487         0.428623   
     63. A(C   3,C  10,N  15)          104.9976         0.418841   
     64. A(C  11,C  10,N  15)          118.1663         0.416231   
     65. A(C  10,C  11,C  12)          119.7506         0.438442   
     66. A(C  12,C  11,H  24)          121.2485         0.362271   
     67. A(C  10,C  11,H  24)          118.9921         0.352491   
     68. A(C  13,C  12,H  25)          119.1188         0.349562   
     69. A(C  11,C  12,H  25)          120.6997         0.362097   
     70. A(C  11,C  12,C  13)          120.1806         0.434777   
     71. A(C  14,C  13,H  26)          119.9081         0.364168   
     72. A(C  12,C  13,H  26)          119.7982         0.349671   
     73. A(C  12,C  13,C  14)          120.2896         0.437255   
     74. A(N  15,C  14,H  27)          116.7572         0.352951   
     75. A(C  13,C  14,H  27)          123.5624         0.363953   
     76. A(C  13,C  14,N  15)          119.6795         0.441914   
     77. A(C  10,N  15,C  14)          121.8742         0.417132   
     78. A(C   1,N  15,C  14)          131.2250         0.428374   
     79. A(C   1,N  15,C  10)          106.8987         0.417695   
     80. D(N   2,C   1,C   0,H  18)    119.5743         0.014445   
     81. D(N   2,C   1,C   0,H  17)     -0.0936         0.014445   
     82. D(N  15,C   1,C   0,H  18)    -60.2250         0.014445   
     83. D(N   2,C   1,C   0,H  16)   -119.8177         0.014445   
     84. D(N  15,C   1,C   0,H  16)     60.3831         0.014445   
     85. D(N  15,C   1,C   0,H  17)   -179.8928         0.014445   
     86. D(C   3,N   2,C   1,N  15)      0.6115         0.042865   
     87. D(C   3,N   2,C   1,C   0)   -179.2092         0.042865   
     88. D(C  10,C   3,N   2,C   1)     -0.8911         0.029269   
     89. D(C   4,C   3,N   2,C   1)    179.5369         0.029269   
     90. D(C   5,C   4,C   3,C  10)     26.9820         0.016926   
     91. D(C   5,C   4,C   3,N   2)   -153.5482         0.016926   
     92. D(C   9,C   4,C   3,N   2)     25.2341         0.016926   
     93. D(C   9,C   4,C   3,C  10)   -154.2356         0.016926   
     94. D(C   6,C   5,C   4,C   3)   -179.8256         0.026150   
     95. D(H  19,C   5,C   4,C   9)   -176.7464         0.026150   
     96. D(H  19,C   5,C   4,C   3)      2.0380         0.026150   
     97. D(C   6,C   5,C   4,C   9)      1.3900         0.026150   
     98. D(H  20,C   6,C   5,H  19)     -1.8208         0.028741   
     99. D(H  20,C   6,C   5,C   4)   -179.9631         0.028741   
    100. D(C   7,C   6,C   5,H  19)    177.7238         0.028741   
    101. D(C   7,C   6,C   5,C   4)     -0.4185         0.028741   
    102. D(H  21,C   7,C   6,H  20)     -0.5793         0.028155   
    103. D(H  21,C   7,C   6,C   5)    179.8772         0.028155   
    104. D(C   8,C   7,C   6,H  20)    178.8467         0.028155   
    105. D(C   8,C   7,C   6,C   5)     -0.6969         0.028155   
    106. D(H  22,C   8,C   7,H  21)      0.1562         0.027902   
    107. D(H  22,C   8,C   7,C   6)   -179.2691         0.027902   
    108. D(C   9,C   8,C   7,H  21)   -179.7572         0.027902   
    109. D(C   9,C   8,C   7,C   6)      0.8176         0.027902   
    110. D(C   8,C   9,C   4,C   3)    179.9033         0.025851   
    111. D(H  23,C   9,C   8,H  22)      0.3019         0.029177   
    112. D(H  23,C   9,C   8,C   7)   -179.7846         0.029177   
    113. D(C   4,C   9,C   8,H  22)   -179.7380         0.029177   
    114. D(C   4,C   9,C   8,C   7)      0.1754         0.029177   
    115. D(H  23,C   9,C   4,C   5)    178.6902         0.025851   
    116. D(H  23,C   9,C   4,C   3)     -0.1356         0.025851   
    117. D(C   8,C   9,C   4,C   5)     -1.2709         0.025851   
    118. D(N  15,C  10,C   3,C   4)   -179.6707         0.025627   
    119. D(N  15,C  10,C   3,N   2)      0.8111         0.025627   
    120. D(C  11,C  10,C   3,C   4)      3.9824         0.025627   
    121. D(C  11,C  10,C   3,N   2)   -175.5359         0.025627   
    122. D(H  24,C  11,C  10,N  15)   -176.7455         0.023801   
    123. D(H  24,C  11,C  10,C   3)     -0.7486         0.023801   
    124. D(C  12,C  11,C  10,N  15)      2.1905         0.023801   
    125. D(C  12,C  11,C  10,C   3)    178.1874         0.023801   
    126. D(H  25,C  12,C  11,H  24)     -0.9571         0.033551   
    127. D(H  25,C  12,C  11,C  10)   -179.8685         0.033551   
    128. D(C  13,C  12,C  11,H  24)    178.6925         0.033551   
    129. D(C  13,C  12,C  11,C  10)     -0.2189         0.033551   
    130. D(H  26,C  13,C  12,H  25)     -0.9139         0.021595   
    131. D(H  26,C  13,C  12,C  11)    179.4311         0.021595   
    132. D(C  14,C  13,C  12,H  25)    178.3488         0.021595   
    133. D(C  14,C  13,C  12,C  11)     -1.3063         0.021595   
    134. D(H  27,C  14,C  13,H  26)      0.3767         0.035928   
    135. D(H  27,C  14,C  13,C  12)   -178.8851         0.035928   
    136. D(N  15,C  14,C  13,H  26)   -179.9867         0.035928   
    137. D(N  15,C  14,C  13,C  12)      0.7515         0.035928   
    138. D(C   1,N  15,C  10,C   3)     -0.4392         0.022853   
    139. D(C  14,N  15,C   1,N   2)    179.3660         0.031366   
    140. D(C  14,N  15,C   1,C   0)     -0.8093         0.031366   
    141. D(C  10,N  15,C   1,N   2)     -0.0944         0.031366   
    142. D(C  10,N  15,C   1,C   0)    179.7303         0.031366   
    143. D(C  10,N  15,C  14,H  27)   -179.0118         0.030858   
    144. D(C  10,N  15,C  14,C  13)      1.3274         0.030858   
    145. D(C   1,N  15,C  14,H  27)      1.5961         0.030858   
    146. D(C   1,N  15,C  14,C  13)   -178.0647         0.030858   
    147. D(C  14,N  15,C  10,C  11)     -2.7999         0.022853   
    148. D(C  14,N  15,C  10,C   3)   -179.9613         0.022853   
    149. D(C   1,N  15,C  10,C  11)    176.7223         0.022853   
    -----------------------------------------------------------------

Number of atoms                         .... 28
Number of degrees of freedom            .... 149

         *************************************************************
         *                GEOMETRY OPTIMIZATION CYCLE   1            *
         *************************************************************
---------------------------------
CARTESIAN COORDINATES (ANGSTROEM)
---------------------------------
  C     -2.425900    2.445300    1.328700
  C     -1.530600    1.409700    0.756000
  N     -0.224200    1.399100    0.850700
  C      0.237600    0.307700    0.188800
  C      1.660700    0.032800    0.111600
  C      2.222900   -0.695700   -0.935900
  C      3.583400   -0.937500   -0.968200
  C      4.405300   -0.451700    0.034900
  C      3.858900    0.293200    1.068100
  C      2.500600    0.535500    1.106600
  C     -0.848400   -0.404100   -0.326200
  C     -1.046300   -1.614700   -1.014200
  C     -2.309900   -2.012100   -1.333700
  C     -3.423200   -1.210700   -0.970100
  C     -3.240100   -0.059800   -0.280700
  N     -1.978100    0.335200    0.050400
  H     -3.121100    2.005100    2.044400
  H     -1.815800    3.185300    1.836800
  H     -3.001600    2.937700    0.544400
  H      1.598700   -1.048400   -1.743000
  H      4.007400   -1.503100   -1.786000
  H      5.467800   -0.645000    0.006300
  H      4.497800    0.684500    1.846900
  H      2.061600    1.116500    1.902700
  H     -0.190200   -2.219800   -1.263400
  H     -2.479400   -2.938400   -1.859100
  H     -4.419400   -1.526400   -1.234000
  H     -4.048400    0.579900    0.037400

----------------------------
CARTESIAN COORDINATES (A.U.)
----------------------------
  NO LB      ZA    FRAG     MASS         X           Y           Z
   0 C     6.0000    0    12.011   -4.584287    4.620947    2.510879
   1 C     6.0000    0    12.011   -2.892415    2.663947    1.428633
   2 N     7.0000    0    14.007   -0.423677    2.643916    1.607590
   3 C     6.0000    0    12.011    0.448999    0.581469    0.356780
   4 C     6.0000    0    12.011    3.138268    0.061983    0.210893
   5 C     6.0000    0    12.011    4.200672   -1.314682   -1.768595
   6 C     6.0000    0    12.011    6.771645   -1.771618   -1.829633
   7 C     6.0000    0    12.011    8.324811   -0.853589    0.065951
   8 C     6.0000    0    12.011    7.292264    0.554068    2.018416
   9 C     6.0000    0    12.011    4.725449    1.011948    2.091171
  10 C     6.0000    0    12.011   -1.603244   -0.763638   -0.616429
  11 C     6.0000    0    12.011   -1.977220   -3.051341   -1.916560
  12 C     6.0000    0    12.011   -4.365078   -3.802318   -2.520328
  13 C     6.0000    0    12.011   -6.468911   -2.287891   -1.833223
  14 C     6.0000    0    12.011   -6.122902   -0.113006   -0.530446
  15 N     7.0000    0    14.007   -3.738067    0.633436    0.095242
  16 H     1.0000    0     1.008   -5.898024    3.789090    3.863356
  17 H     1.0000    0     1.008   -3.431365    6.019345    3.471049
  18 H     1.0000    0     1.008   -5.672202    5.551448    1.028767
  19 H     1.0000    0     1.008    3.021105   -1.981189   -3.293793
  20 H     1.0000    0     1.008    7.572889   -2.840447   -3.375051
  21 H     1.0000    0     1.008   10.332645   -1.218873    0.011905
  22 H     1.0000    0     1.008    8.499610    1.293518    3.490135
  23 H     1.0000    0     1.008    3.895859    2.109879    3.595582
  24 H     1.0000    0     1.008   -0.359426   -4.194814   -2.387480
  25 H     1.0000    0     1.008   -4.685387   -5.552771   -3.513190
  26 H     1.0000    0     1.008   -8.351456   -2.884478   -2.331922
  27 H     1.0000    0     1.008   -7.650367    1.095852    0.070676

--------------------------------
INTERNAL COORDINATES (ANGSTROEM)
--------------------------------
 C      0   0   0     0.000000000000     0.00000000     0.00000000
 C      1   0   0     1.483918710712     0.00000000     0.00000000
 N      2   1   0     1.309870760800   125.41409020     0.00000000
 C      3   2   1     1.357396334900   108.09306578   180.79075047
 C      4   3   2     1.451462524490   120.78240295   179.53688809
 C      5   4   3     1.394287395052   122.29329295   206.45176150
 C      6   5   4     1.382197807841   120.38759193   180.17443566
 C      7   6   5     1.384821598618   120.39064671   359.58153455
 C      8   7   6     1.385976626787   119.63954357   359.30312191
 C      9   8   7     1.380279113078   120.20513001     0.81756277
 C      4   3   2     1.396882328616   108.96500817   359.10893680
 C     11   4   3     1.406435483767   136.74867014   184.46411861
 C     12  11   4     1.362604847342   119.75061050   178.18737383
 C     13  12  11     1.419113741037   120.18059904   359.78107897
 C     14  13  12     1.354019490259   120.28957672   358.69372019
 N      2   1   3     1.361131095817   123.54749799   180.20074730
 H      1   2   3     1.090552873546   110.86652580   240.18232450
 H      1   2   3     1.085351380890   108.50254932   359.90642043
 H      1   2   3     1.090419524770   110.86018585   119.57426001
 H      6   5   4     1.079552379461   119.94950218     2.03802958
 H      7   6   5     1.080960776347   119.68955625   180.03694347
 H      8   7   6     1.080318980672   120.11727840   179.87715109
 H      9   8   7     1.080665692987   119.91839854   180.73093975
 H     10   9   8     1.078914829817   121.03247064   180.21536137
 H     12  11   4     1.077568494343   118.99211909   359.25138845
 H     13  12  11     1.078335337453   120.69970331   180.13154070
 H     14  13  12     1.077833076130   119.79819163   179.43107316
 H     15  14  13     1.078773650957   123.56237407   181.11489043

---------------------------
INTERNAL COORDINATES (A.U.)
---------------------------
 C      0   0   0     0.000000000000     0.00000000     0.00000000
 C      1   0   0     2.804199968246     0.00000000     0.00000000
 N      2   1   0     2.475297008744   125.41409020     0.00000000
 C      3   2   1     2.565107328149   108.09306578   180.79075047
 C      4   3   2     2.742866664937   120.78240295   179.53688809
 C      5   4   3     2.634821328626   122.29329295   206.45176150
 C      6   5   4     2.611975319725   120.38759193   180.17443566
 C      7   6   5     2.616933565728   120.39064671   359.58153455
 C      8   7   6     2.619116252644   119.63954357   359.30312191
 C      9   8   7     2.608349512090   120.20513001     0.81756277
 C      4   3   2     2.639725042399   108.96500817   359.10893680
 C     11   4   3     2.657777889349   136.74867014   184.46411861
 C     12  11   4     2.574949990230   119.75061050   178.18737383
 C     13  12  11     2.681736323444   120.18059904   359.78107897
 C     14  13  12     2.558726016580   120.28957672   358.69372019
 N      2   1   3     2.572165003458   123.54749799   180.20074730
 H      1   2   3     2.060846265563   110.86652580   240.18232450
 H      1   2   3     2.051016868955   108.50254932   359.90642043
 H      1   2   3     2.060594272896   110.86018585   119.57426001
 H      6   5   4     2.040058344404   119.94950218     2.03802958
 H      7   6   5     2.042719828806   119.68955625   180.03694347
 H      8   7   6     2.041507010747   120.11727840   179.87715109
 H      9   8   7     2.042162202070   119.91839854   180.73093975
 H     10   9   8     2.038853550181   121.03247064   180.21536137
 H     12  11   4     2.036309344850   118.99211909   359.25138845
 H     13  12  11     2.037758468316   120.69970331   180.13154070
 H     14  13  12     2.036809331968   119.79819163   179.43107316
 H     15  14  13     2.038586760800   123.56237407   181.11489043

---------------------
BASIS SET INFORMATION
---------------------
There are 3 groups of distinct atoms

 Group   1 Type C   : 19s6p3d2f contracted to 5s4p3d2f pattern {88111/3111/111/11}
 Group   2 Type N   : 19s6p3d2f contracted to 5s4p3d2f pattern {88111/3111/111/11}
 Group   3 Type H   : 5s2p1d contracted to 3s2p1d pattern {311/11/1}

Atom   0C    basis set group =>   1
Atom   1C    basis set group =>   1
Atom   2N    basis set group =>   2
Atom   3C    basis set group =>   1
Atom   4C    basis set group =>   1
Atom   5C    basis set group =>   1
Atom   6C    basis set group =>   1
Atom   7C    basis set group =>   1
Atom   8C    basis set group =>   1
Atom   9C    basis set group =>   1
Atom  10C    basis set group =>   1
Atom  11C    basis set group =>   1
Atom  12C    basis set group =>   1
Atom  13C    basis set group =>   1
Atom  14C    basis set group =>   1
Atom  15N    basis set group =>   2
Atom  16H    basis set group =>   3
Atom  17H    basis set group =>   3
Atom  18H    basis set group =>   3
Atom  19H    basis set group =>   3
Atom  20H    basis set group =>   3
Atom  21H    basis set group =>   3
Atom  22H    basis set group =>   3
Atom  23H    basis set group =>   3
Atom  24H    basis set group =>   3
Atom  25H    basis set group =>   3
Atom  26H    basis set group =>   3
Atom  27H    basis set group =>   3
---------------------------------
AUXILIARY/J BASIS SET INFORMATION
---------------------------------
There are 3 groups of distinct atoms

 Group   1 Type C   : 10s7p5d2f1g contracted to 10s7p5d2f1g pattern {1111111111/1111111/11111/11/1}
 Group   2 Type N   : 10s7p5d2f1g contracted to 10s7p5d2f1g pattern {1111111111/1111111/11111/11/1}
 Group   3 Type H   : 4s3p2d1f contracted to 4s3p2d1f pattern {1111/111/11/1}

Atom   0C    basis set group =>   1
Atom   1C    basis set group =>   1
Atom   2N    basis set group =>   2
Atom   3C    basis set group =>   1
Atom   4C    basis set group =>   1
Atom   5C    basis set group =>   1
Atom   6C    basis set group =>   1
Atom   7C    basis set group =>   1
Atom   8C    basis set group =>   1
Atom   9C    basis set group =>   1
Atom  10C    basis set group =>   1
Atom  11C    basis set group =>   1
Atom  12C    basis set group =>   1
Atom  13C    basis set group =>   1
Atom  14C    basis set group =>   1
Atom  15N    basis set group =>   2
Atom  16H    basis set group =>   3
Atom  17H    basis set group =>   3
Atom  18H    basis set group =>   3
Atom  19H    basis set group =>   3
Atom  20H    basis set group =>   3
Atom  21H    basis set group =>   3
Atom  22H    basis set group =>   3
Atom  23H    basis set group =>   3
Atom  24H    basis set group =>   3
Atom  25H    basis set group =>   3
Atom  26H    basis set group =>   3
Atom  27H    basis set group =>   3
---------------------------------
AUXILIARY/C BASIS SET INFORMATION
---------------------------------
There are 3 groups of distinct atoms

 Group   1 Type C   : 9s7p6d4f2g contracted to 9s7p6d4f2g pattern {111111111/1111111/111111/1111/11}
 Group   2 Type N   : 9s7p6d4f2g contracted to 9s7p6d4f2g pattern {111111111/1111111/111111/1111/11}
 Group   3 Type H   : 4s3p2d1f contracted to 4s3p2d1f pattern {1111/111/11/1}

Atom   0C    basis set group =>   1
Atom   1C    basis set group =>   1
Atom   2N    basis set group =>   2
Atom   3C    basis set group =>   1
Atom   4C    basis set group =>   1
Atom   5C    basis set group =>   1
Atom   6C    basis set group =>   1
Atom   7C    basis set group =>   1
Atom   8C    basis set group =>   1
Atom   9C    basis set group =>   1
Atom  10C    basis set group =>   1
Atom  11C    basis set group =>   1
Atom  12C    basis set group =>   1
Atom  13C    basis set group =>   1
Atom  14C    basis set group =>   1
Atom  15N    basis set group =>   2
Atom  16H    basis set group =>   3
Atom  17H    basis set group =>   3
Atom  18H    basis set group =>   3
Atom  19H    basis set group =>   3
Atom  20H    basis set group =>   3
Atom  21H    basis set group =>   3
Atom  22H    basis set group =>   3
Atom  23H    basis set group =>   3
Atom  24H    basis set group =>   3
Atom  25H    basis set group =>   3
Atom  26H    basis set group =>   3
Atom  27H    basis set group =>   3


           ************************************************************
           *        Program running with 4 parallel MPI-processes     *
           *              working on a common directory               *
           ************************************************************
------------------------------------------------------------------------------
                           ORCA GTO INTEGRAL CALCULATION
                           -- RI-GTO INTEGRALS CHOSEN --
------------------------------------------------------------------------------
------------------------------------------------------------------------------
                   ___                                                        
                  /   \      - P O W E R E D   B Y -                         
                 /     \                                                     
                 |  |  |   _    _      __       _____    __    __             
                 |  |  |  | |  | |    /  \     |  _  \  |  |  /  |          
                  \  \/   | |  | |   /    \    | | | |  |  | /  /          
                 / \  \   | |__| |  /  /\  \   | |_| |  |  |/  /          
                |  |  |   |  __  | /  /__\  \  |    /   |      \           
                |  |  |   | |  | | |   __   |  |    \   |  |\   \          
                \     /   | |  | | |  |  |  |  | |\  \  |  | \   \       
                 \___/    |_|  |_| |__|  |__|  |_| \__\ |__|  \__/        
                                                                              
                      - O R C A' S   B I G   F R I E N D -                    
                                      &                                       
                       - I N T E G R A L  F E E D E R -                       
                                                                              
 v1 FN, 2020, v2 2021                                                         
------------------------------------------------------------------------------


Reading SHARK input file wb97x-d3-train-16.SHARKINP.tmp ... ok
----------------------
SHARK INTEGRAL PACKAGE
----------------------

Number of atoms                             ...     28
Number of basis functions                   ...   1000
Number of shells                            ...    392
Maximum angular momentum                    ...      3
Integral batch strategy                     ... SHARK/LIBINT Hybrid
RI-J (if used) integral strategy            ... SPLIT-RIJ (Revised 2003 algorithm where possible)
Printlevel                                  ...      1
Contraction scheme used                     ... PARTIAL GENERAL contraction
Coulomb Range Separation                    ... NOT USED
Exchange Range Separation                   ... Long Range
   Mu parameter                             ...  0.250000
   Scaling (regular/separated)              ...  0.195728  0.804272
Finite Nucleus Model                        ... NOT USED
Auxiliary Coulomb fitting basis             ... AVAILABLE
   # of basis functions in Aux-J            ...   1624
   # of shells in Aux-J                     ...    520
   Maximum angular momentum in Aux-J        ...      4
Auxiliary J/K fitting basis                 ... NOT available
Auxiliary Correlation fitting basis         ... AVAILABLE
   # of basis functions in Aux-C            ...   2056
   # of shells in Aux-C                     ...    568
   Maximum angular momentum in Aux-C        ...      4
Auxiliary 'external' fitting basis          ... NOT available
Integral threshold                          ...     2.500000e-11
Primitive cut-off                           ...     2.500000e-12
Primitive pair pre-selection threshold      ...     2.500000e-12

Calculating pre-screening integrals         ... done (  0.2 sec) Dimension = 392
Calculating pre-screening integrals (ORCA)  ... done (  0.5 sec) Dimension = 296
Organizing shell pair data                  ... done (  4.2 sec)
Shell pair information
Total number of shell pairs                 ...     77028
Shell pairs after pre-screening             ...     54819
Total number of primitive shell pairs       ...    100660
Primitive shell pairs kept                  ...     65058
          la=0 lb=0:  12676 shell pairs
          la=1 lb=0:  13885 shell pairs
          la=1 lb=1:   3336 shell pairs
          la=2 lb=0:   9260 shell pairs
          la=2 lb=1:   4434 shell pairs
          la=2 lb=2:   1532 shell pairs
          la=3 lb=0:   5140 shell pairs
          la=3 lb=1:   2426 shell pairs
          la=3 lb=2:   1649 shell pairs
          la=3 lb=3:    481 shell pairs

Calculating one electron integrals          ... done (  0.3 sec)
Calculating RI/J V-Matrix + Cholesky decomp.... done (  1.5 sec)
Calculating RI/C V-Matrix + Cholesky decomp.... done (  2.8 sec)
Calculating Nuclear repulsion               ... done (  0.0 sec) ENN=    995.829503392840 Eh

SHARK setup successfully completed in  12.5 seconds

Maximum memory used throughout the entire GTOINT-calculation: 83.0 MB


           ************************************************************
           *        Program running with 4 parallel MPI-processes     *
           *              working on a common directory               *
           ************************************************************
-------------------------------------------------------------------------------
                                 ORCA SCF
-------------------------------------------------------------------------------

------------
SCF SETTINGS
------------
Hamiltonian:
 Density Functional     Method          .... DFT(GTOs)
 Exchange Functional    Exchange        .... WB97X-D3
 Correlation Functional Correlation     .... WB97X-D3
 Gradients option       PostSCFGGA      .... off
 Hybrid DFT is turned on
   Fraction HF Exchange ScalHFX         ....  0.195728
   Scaling of DF-GGA-X  ScalDFX         ....  0.000000
   Scaling of DF-GGA-C  ScalDFC         ....  1.000000
   Scaling of DF-LDA-C  ScalLDAC        ....  1.000000
   Perturbative correction              ....  0.000000
   Density functional embedding theory  .... OFF
 Long-range corrected/Screened/Range-Separated Hybrid DFT is turned on
   Amount of maximum screened exact exchange              ....  0.804272
   Range separation parameter mu (erf(mu*r12)/r12)        ....  0.250000
 RI-approximation to the Coulomb term is turned on
   Number of AuxJ basis functions       .... 1624
   RIJ-COSX (HFX calculated with COS-X)).... on


General Settings:
 Integral files         IntName         .... wb97x-d3-train-16
 Hartree-Fock type      HFTyp           .... RHF
 Total Charge           Charge          ....    0
 Multiplicity           Mult            ....    1
 Number of Electrons    NEL             ....  110
 Basis Dimension        Dim             ....  904
 Nuclear Repulsion      ENuc            ....    995.8295033928 Eh

Convergence Acceleration:
 DIIS                   CNVDIIS         .... on
   Start iteration      DIISMaxIt       ....    12
   Startup error        DIISStart       ....  0.200000
   # of expansion vecs  DIISMaxEq       ....     5
   Bias factor          DIISBfac        ....   1.050
   Max. coefficient     DIISMaxC        ....  10.000
 Trust-Rad. Augm. Hess. CNVTRAH         .... auto
   Auto Start mean grad. ratio tolernc. ....  1.125000
   Auto Start start iteration           ....    20
   Auto Start num. interpolation iter.  ....    10
   Max. Number of Micro iterations      ....    16
   Max. Number of Macro iterations      .... Maxiter - #DIIS iter
   Number of Davidson start vectors     ....     2
   Converg. threshold I  (grad. norm)   ....   1.000e-05
   Converg. threshold II (energy diff.) ....   1.000e-08
   Grad. Scal. Fac. for Micro threshold ....   0.100
   Minimum threshold for Micro iter.    ....   0.010
   NR start threshold (gradient norm)   ....   0.001
   Initial trust radius                 ....   0.400
   Minimum AH scaling param. (alpha)    ....   1.000
   Maximum AH scaling param. (alpha)    .... 1000.000
   Orbital update algorithm             .... Taylor
   White noise on init. David. guess    .... on
   Maximum white noise                  ....   0.010
   Quad. conv. algorithm                .... NR
 SOSCF                  CNVSOSCF        .... on
   Start iteration      SOSCFMaxIt      ....   150
   Startup grad/error   SOSCFStart      ....  0.003300
 Level Shifting         CNVShift        .... on
   Level shift para.    LevelShift      ....    0.2500
   Turn off err/grad.   ShiftErr        ....    0.0010
 Zerner damping         CNVZerner       .... off
 Static damping         CNVDamp         .... on
   Fraction old density DampFac         ....    0.7000
   Max. Damping (<1)    DampMax         ....    0.9800
   Min. Damping (>=0)   DampMin         ....    0.0000
   Turn off err/grad.   DampErr         ....    0.1000
 Fernandez-Rico         CNVRico         .... off

SCF Procedure:
 Maximum # iterations   MaxIter         ....   125
 SCF integral mode      SCFMode         .... Direct
   Integral package                     .... SHARK and LIBINT hybrid scheme
 Reset frequency        DirectResetFreq ....    20
 Integral Threshold     Thresh          ....  2.500e-11 Eh
 Primitive CutOff       TCut            ....  2.500e-12 Eh

Convergence Tolerance:
 Convergence Check Mode ConvCheckMode   .... Total+1el-Energy
 Convergence forced     ConvForced      .... 0
 Energy Change          TolE            ....  1.000e-08 Eh
 1-El. energy change                    ....  1.000e-05 Eh
 Orbital Gradient       TolG            ....  1.000e-05
 Orbital Rotation angle TolX            ....  1.000e-05
 DIIS Error             TolErr          ....  5.000e-07


Diagonalization of the overlap matrix:
Smallest eigenvalue                        ... 7.622e-07
Time for diagonalization                   ...    0.269 sec
Threshold for overlap eigenvalues          ... 1.000e-08
Number of eigenvalues below threshold      ... 0
Time for construction of square roots      ...    0.252 sec
Total time needed                          ...    0.528 sec

Time for model grid setup =    0.778 sec

------------------------------
INITIAL GUESS: MODEL POTENTIAL
------------------------------
Loading Hartree-Fock densities                     ... done
Calculating cut-offs                               ... done
Initializing the effective Hamiltonian             ... done
Setting up the integral package (SHARK)            ... done
Starting the Coulomb interaction                   ... done (   2.1 sec)
Reading the grid                                   ... done
Mapping shells                                     ... done
Starting the XC term evaluation                    ... done (   2.0 sec)
  promolecular density results
     # of electrons  =    109.995033999
     EX              =    -88.329993185
     EC              =     -3.689415904
     EX+EC           =    -92.019409088
Transforming the Hamiltonian                       ... done (   0.2 sec)
Diagonalizing the Hamiltonian                      ... done (   0.3 sec)
Back transforming the eigenvectors                 ... done (   0.1 sec)
Now organizing SCF variables                       ... done
                      ------------------
                      INITIAL GUESS DONE (  11.0 sec)
                      ------------------
-------------------
DFT GRID GENERATION
-------------------

General Integration Accuracy     IntAcc      ... 4.388
Radial Grid Type                 RadialGrid  ... OptM3 with GC (2021)
Angular Grid (max. ang.)         AngularGrid ... 4 (Lebedev-302)
Angular grid pruning method      GridPruning ... 4 (adaptive)
Weight generation scheme         WeightScheme... Becke
Basis function cutoff            BFCut       ... 1.0000e-11
Integration weight cutoff        WCut        ... 1.0000e-14
Angular grids for H and He will be reduced by one unit
Partially contracted basis set               ... off
Rotationally invariant grid construction     ... off

Total number of grid points                  ...   138123
Total number of batches                      ...     2171
Average number of points per batch           ...       63
Average number of grid points per atom       ...     4933
Time for grid setup =    2.157 sec

--------------------
COSX GRID GENERATION
--------------------

GRIDX 1
-------
General Integration Accuracy     IntAcc      ... 3.816
Radial Grid Type                 RadialGrid  ... OptM3 with GC (2021)
Angular Grid (max. ang.)         AngularGrid ... 1 (Lebedev-50)
Angular grid pruning method      GridPruning ... 4 (adaptive)
Weight generation scheme         WeightScheme... Becke
Basis function cutoff            BFCut       ... 1.0000e-11
Integration weight cutoff        WCut        ... 1.0000e-14
Angular grids for H and He will be reduced by one unit
Partially contracted basis set               ... on
Rotationally invariant grid construction     ... off

Total number of grid points                  ...    17610
Total number of batches                      ...      292
Average number of points per batch           ...       60
Average number of grid points per atom       ...      629
UseSFitting                                  ... on

GRIDX 2
-------
General Integration Accuracy     IntAcc      ... 4.020
Radial Grid Type                 RadialGrid  ... OptM3 with GC (2021)
Angular Grid (max. ang.)         AngularGrid ... 2 (Lebedev-110)
Angular grid pruning method      GridPruning ... 4 (adaptive)
Weight generation scheme         WeightScheme... Becke
Basis function cutoff            BFCut       ... 1.0000e-11
Integration weight cutoff        WCut        ... 1.0000e-14
Angular grids for H and He will be reduced by one unit
Partially contracted basis set               ... on
Rotationally invariant grid construction     ... off

Total number of grid points                  ...    41694
Total number of batches                      ...      665
Average number of points per batch           ...       62
Average number of grid points per atom       ...     1489
UseSFitting                                  ... on

GRIDX 3
-------
General Integration Accuracy     IntAcc      ... 4.338
Radial Grid Type                 RadialGrid  ... OptM3 with GC (2021)
Angular Grid (max. ang.)         AngularGrid ... 3 (Lebedev-194)
Angular grid pruning method      GridPruning ... 4 (adaptive)
Weight generation scheme         WeightScheme... Becke
Basis function cutoff            BFCut       ... 1.0000e-11
Integration weight cutoff        WCut        ... 1.0000e-14
Angular grids for H and He will be reduced by one unit
Partially contracted basis set               ... on
Rotationally invariant grid construction     ... off

Total number of grid points                  ...    89873
Total number of batches                      ...     1418
Average number of points per batch           ...       63
Average number of grid points per atom       ...     3210
UseSFitting                                  ... on

Time for X-Grid setup             =    6.164 sec


--------------------
CPCM SOLVATION MODEL
--------------------
CPCM parameters:
  Epsilon                                         ...       8.9300
  Refrac                                          ...       1.4242
  Rsolv                                           ...       1.3000
  Surface type                                    ... GAUSSIAN VDW
  Epsilon function type                           ...         CPCM
Solvent:                                     ... DICHLOROMETHANE
SMD-CDS solvent descriptors:
  Soln                                       ...    1.4242
  Soln25                                     ...    1.4212
  Sola                                       ...    0.1000
  Solb                                       ...    0.0500
  Solg                                       ...   39.1500
  Solc                                       ...    0.0000
  Solh                                       ...    0.6670
Radii:
 Radius for C  used is    3.4960 Bohr (=   1.8500 Ang.)
 Radius for N  used is    3.5716 Bohr (=   1.8900 Ang.)
 Radius for H  used is    2.2677 Bohr (=   1.2000 Ang.)
Calculating surface                               ...        done! (  0.0s)
GEPOL surface points                              ...         1639
GEPOL Volume                                      ...    1486.1740
GEPOL Surface-area                                ...     847.8508
Calculating surface distance matrix               ...        done! (  0.0s)
Performing Cholesky decomposition & store         ...        done! (  3.2s)
Overall time for CPCM initialization              ...                 3.2s
 re-compute Schwartz prescreening matrix in partically contracted basis (1) ...done (   0.238 sec)
--------------
SCF ITERATIONS
--------------
ITER       Energy         Delta-E        Max-DP      RMS-DP      [F,P]     Damp
               ***  Starting incremental Fock matrix formation  ***
  0   -649.9278093713   0.000000000000 0.17286471  0.00108209  0.1992799 0.7000
                      *** Initiating the SOSCF procedure ***
                      *** Re-Reading the Fockian *** 
                      *** Removing any level shift *** 
ITER      Energy       Delta-E        Grad      Rot      Max-DP    RMS-DP
  1   -650.05522697  -0.1274175965  0.003237  0.003237  0.328885  0.002618
               *** Restarting incremental Fock matrix formation ***
  2   -650.21960256  -0.1643755911  0.009958  0.017624  0.484638  0.002305
  3   -650.23239857  -0.0127960102  0.010748  0.012523  0.096412  0.000559
  4   -650.25880146  -0.0264028960  0.001828  0.002632  0.017099  0.000167
  5   -650.25905753  -0.0002560640  0.001269  0.001717  0.013165  0.000094
  6   -650.25958226  -0.0005247348  0.000292  0.001042  0.008303  0.000037
  7   -650.25959156  -0.0000092944  0.000243  0.000809  0.002453  0.000018
  8   -650.25959836  -0.0000067999  0.000092  0.000525  0.015662  0.000037
  9   -650.25959901  -0.0000006486  0.000029  0.000210  0.005017  0.000017
 10   -650.25959912  -0.0000001093  0.000013  0.000031  0.007745  0.000021
 11   -650.25959915  -0.0000000334  0.000004  0.000018  0.016135  0.000049
 12   -650.25959917  -0.0000000197  0.000003  0.000015  0.013725  0.000030
                  ***Gradient check signals convergence***
              ***Rediagonalizing the Fockian in SOSCF/NRSCF***

               *****************************************************
               *                     SUCCESS                       *
               *           SCF CONVERGED AFTER  13 CYCLES          *
               *****************************************************

Old exchange energy                            =    -29.416463211 Eh
New exchange energy                            =    -29.416459646 Eh
Exchange energy change after final integration =      0.000003565 Eh
Total energy after final integration           =   -650.259595601 Eh
Final COS-X integration done in                =   197.245 sec

SMD CDS free energy correction energy :                -6.98495     Kcal/mol
Total Energy after SMD CDS correction =              -650.270726831 Eh

----------------
TOTAL SCF ENERGY
----------------

Total Energy       :         -650.27072683 Eh          -17694.76606 eV

Components:
Nuclear Repulsion  :          995.82950339 Eh           27097.89842 eV
Electronic Energy  :        -1646.10023022 Eh          -44792.66448 eV
One Electron Energy:        -2854.88718349 Eh          -77685.42971 eV
Two Electron Energy:         1208.78695326 Eh           32892.76523 eV
Max COSX asymmetry :            0.00002535 Eh               0.00069 eV
CPCM Dielectric    :           -0.01924314 Eh              -0.52363 eV
SMD CDS (Gcds)     :           -0.01113123 Eh              -0.30290 eV

Virial components:
Potential Energy   :        -1297.06476592 Eh          -35294.92664 eV
Kinetic Energy     :          646.79403909 Eh           17600.16058 eV
Virial Ratio       :            2.00537526


DFT components:
N(Alpha)           :       55.000053929864 electrons
N(Beta)            :       55.000053929864 electrons
N(Total)           :      110.000107859729 electrons
E(XC)              :      -64.897237584499 Eh       
DFET-embed. en.    :        0.000000000000 Eh       
CPCM Solvation Model Properties:
Surface-charge          :           -0.05701226
Charge-correction       :           -0.00005781 Eh              -0.00157 eV
Free-energy (cav+disp)  :           -0.01113123 Eh              -0.30290 eV

---------------
SCF CONVERGENCE
---------------

  Last Energy change         ...    2.7563e-09  Tolerance :   1.0000e-08
  Last MAX-Density change    ...    2.4425e-15  Tolerance :   1.0000e-07
  Last RMS-Density change    ...    1.3392e-17  Tolerance :   5.0000e-09
  Last Orbital Gradient      ...    1.1587e-06  Tolerance :   1.0000e-05
  Last Orbital Rotation      ...    1.3925e-05  Tolerance :   1.0000e-05

             **** THE GBW FILE WAS UPDATED (wb97x-d3-train-16.gbw) ****
             **** DENSITY wb97x-d3-train-16.scfp WAS UPDATED ****
             **** ENERGY FILE WAS UPDATED (wb97x-d3-train-16.en.tmp) ****
             **** THE GBW FILE WAS UPDATED (wb97x-d3-train-16.gbw) ****
             **** DENSITY wb97x-d3-train-16.scfp WAS UPDATED ****
----------------
ORBITAL ENERGIES
----------------

  NO   OCC          E(Eh)            E(eV) 
   0   2.0000     -14.502100      -394.6222 
   1   2.0000     -14.412576      -392.1861 
   2   2.0000     -10.337248      -281.2908 
   3   2.0000     -10.328590      -281.0552 
   4   2.0000     -10.320333      -280.8305 
   5   2.0000     -10.297985      -280.2224 
   6   2.0000     -10.293401      -280.0977 
   7   2.0000     -10.291061      -280.0340 
   8   2.0000     -10.288858      -279.9740 
   9   2.0000     -10.288246      -279.9574 
  10   2.0000     -10.277402      -279.6623 
  11   2.0000     -10.276760      -279.6449 
  12   2.0000     -10.276532      -279.6387 
  13   2.0000     -10.274917      -279.5947 
  14   2.0000     -10.274555      -279.5849 
  15   2.0000     -10.273659      -279.5605 
  16   2.0000      -1.161154       -31.5966 
  17   2.0000      -1.037762       -28.2389 
  18   2.0000      -0.980815       -26.6893 
  19   2.0000      -0.945937       -25.7403 
  20   2.0000      -0.905858       -24.6497 
  21   2.0000      -0.882571       -24.0160 
  22   2.0000      -0.863750       -23.5038 
  23   2.0000      -0.858820       -23.3697 
  24   2.0000      -0.796103       -21.6631 
  25   2.0000      -0.765121       -20.8200 
  26   2.0000      -0.744367       -20.2552 
  27   2.0000      -0.719440       -19.5770 
  28   2.0000      -0.695691       -18.9307 
  29   2.0000      -0.686901       -18.6915 
  30   2.0000      -0.631812       -17.1925 
  31   2.0000      -0.609705       -16.5909 
  32   2.0000      -0.598248       -16.2792 
  33   2.0000      -0.585528       -15.9330 
  34   2.0000      -0.584124       -15.8948 
  35   2.0000      -0.560863       -15.2619 
  36   2.0000      -0.555348       -15.1118 
  37   2.0000      -0.542286       -14.7564 
  38   2.0000      -0.524108       -14.2617 
  39   2.0000      -0.514597       -14.0029 
  40   2.0000      -0.508115       -13.8265 
  41   2.0000      -0.502517       -13.6742 
  42   2.0000      -0.490723       -13.3533 
  43   2.0000      -0.485128       -13.2010 
  44   2.0000      -0.474938       -12.9237 
  45   2.0000      -0.457111       -12.4386 
  46   2.0000      -0.450434       -12.2569 
  47   2.0000      -0.435602       -11.8533 
  48   2.0000      -0.429523       -11.6879 
  49   2.0000      -0.412785       -11.2325 
  50   2.0000      -0.380427       -10.3519 
  51   2.0000      -0.353587        -9.6216 
  52   2.0000      -0.346955        -9.4411 
  53   2.0000      -0.341724        -9.2988 
  54   2.0000      -0.260335        -7.0841 
  55   0.0000       0.024458         0.6655 
  56   0.0000       0.049506         1.3471 
  57   0.0000       0.052082         1.4172 
  58   0.0000       0.053488         1.4555 
  59   0.0000       0.056232         1.5302 
  60   0.0000       0.062280         1.6947 
  61   0.0000       0.066598         1.8122 
  62   0.0000       0.068238         1.8569 
  63   0.0000       0.071384         1.9425 
  64   0.0000       0.078462         2.1351 
  65   0.0000       0.082138         2.2351 
  66   0.0000       0.083612         2.2752 
  67   0.0000       0.085368         2.3230 
  68   0.0000       0.088790         2.4161 
  69   0.0000       0.091616         2.4930 
  70   0.0000       0.098495         2.6802 
  71   0.0000       0.102551         2.7906 
  72   0.0000       0.104996         2.8571 
  73   0.0000       0.112396         3.0585 
  74   0.0000       0.115588         3.1453 
  75   0.0000       0.120037         3.2664 
  76   0.0000       0.125116         3.4046 
  77   0.0000       0.129031         3.5111 
  78   0.0000       0.133604         3.6355 
  79   0.0000       0.138423         3.7667 
  80   0.0000       0.145150         3.9497 
  81   0.0000       0.147665         4.0182 
  82   0.0000       0.149981         4.0812 
  83   0.0000       0.151940         4.1345 
  84   0.0000       0.157035         4.2731 
  85   0.0000       0.160008         4.3540 
  86   0.0000       0.163957         4.4615 
  87   0.0000       0.167608         4.5608 
  88   0.0000       0.169504         4.6124 
  89   0.0000       0.173731         4.7275 
  90   0.0000       0.177167         4.8210 
  91   0.0000       0.178938         4.8692 
  92   0.0000       0.182253         4.9594 
  93   0.0000       0.189750         5.1634 
  94   0.0000       0.191231         5.2037 
  95   0.0000       0.193265         5.2590 
  96   0.0000       0.195105         5.3091 
  97   0.0000       0.197121         5.3639 
  98   0.0000       0.200430         5.4540 
  99   0.0000       0.201875         5.4933 
 100   0.0000       0.207737         5.6528 
 101   0.0000       0.211691         5.7604 
 102   0.0000       0.212835         5.7915 
 103   0.0000       0.214005         5.8234 
 104   0.0000       0.217821         5.9272 
 105   0.0000       0.219729         5.9791 
 106   0.0000       0.221122         6.0170 
 107   0.0000       0.224273         6.1028 
 108   0.0000       0.227398         6.1878 
 109   0.0000       0.231252         6.2927 
 110   0.0000       0.232706         6.3323 
 111   0.0000       0.236600         6.4382 
 112   0.0000       0.242343         6.5945 
 113   0.0000       0.246200         6.6995 
 114   0.0000       0.247959         6.7473 
 115   0.0000       0.253268         6.8918 
 116   0.0000       0.256270         6.9735 
 117   0.0000       0.260181         7.0799 
 118   0.0000       0.263999         7.1838 
 119   0.0000       0.265362         7.2209 
 120   0.0000       0.269523         7.3341 
 121   0.0000       0.272845         7.4245 
 122   0.0000       0.276356         7.5200 
 123   0.0000       0.283574         7.7164 
 124   0.0000       0.286865         7.8060 
 125   0.0000       0.289294         7.8721 
 126   0.0000       0.294229         8.0064 
 127   0.0000       0.296649         8.0722 
 128   0.0000       0.301158         8.1949 
 129   0.0000       0.308278         8.3887 
 130   0.0000       0.312452         8.5023 
 131   0.0000       0.318008         8.6535 
 132   0.0000       0.322626         8.7791 
 133   0.0000       0.324994         8.8435 
 134   0.0000       0.328744         8.9456 
 135   0.0000       0.331735         9.0270 
 136   0.0000       0.333625         9.0784 
 137   0.0000       0.341939         9.3046 
 138   0.0000       0.346635         9.4324 
 139   0.0000       0.349779         9.5180 
 140   0.0000       0.353614         9.6223 
 141   0.0000       0.355569         9.6755 
 142   0.0000       0.357391         9.7251 
 143   0.0000       0.362031         9.8514 
 144   0.0000       0.367945        10.0123 
 145   0.0000       0.371908        10.1201 
 146   0.0000       0.374504        10.1908 
 147   0.0000       0.377509        10.2725 
 148   0.0000       0.381409        10.3787 
 149   0.0000       0.385059        10.4780 
 150   0.0000       0.388097        10.5607 
 151   0.0000       0.397648        10.8205 
 152   0.0000       0.399604        10.8738 
 153   0.0000       0.402866        10.9625 
 154   0.0000       0.407768        11.0959 
 155   0.0000       0.410536        11.1713 
 156   0.0000       0.411714        11.2033 
 157   0.0000       0.418904        11.3989 
 158   0.0000       0.422639        11.5006 
 159   0.0000       0.423675        11.5288 
 160   0.0000       0.428586        11.6624 
 161   0.0000       0.431930        11.7534 
 162   0.0000       0.436645        11.8817 
 163   0.0000       0.440341        11.9823 
 164   0.0000       0.442948        12.0532 
 165   0.0000       0.445844        12.1320 
 166   0.0000       0.453921        12.3518 
 167   0.0000       0.457094        12.4382 
 168   0.0000       0.459702        12.5091 
 169   0.0000       0.464455        12.6385 
 170   0.0000       0.465750        12.6737 
 171   0.0000       0.471707        12.8358 
 172   0.0000       0.475290        12.9333 
 173   0.0000       0.478590        13.0231 
 174   0.0000       0.480294        13.0695 
 175   0.0000       0.484123        13.1737 
 176   0.0000       0.487455        13.2643 
 177   0.0000       0.489899        13.3308 
 178   0.0000       0.492092        13.3905 
 179   0.0000       0.496641        13.5143 
 180   0.0000       0.499422        13.5900 
 181   0.0000       0.500658        13.6236 
 182   0.0000       0.505162        13.7462 
 183   0.0000       0.508222        13.8294 
 184   0.0000       0.512513        13.9462 
 185   0.0000       0.516174        14.0458 
 186   0.0000       0.520532        14.1644 
 187   0.0000       0.524816        14.2810 
 188   0.0000       0.533433        14.5155 
 189   0.0000       0.536275        14.5928 
 190   0.0000       0.538181        14.6447 
 191   0.0000       0.544761        14.8237 
 192   0.0000       0.545196        14.8355 
 193   0.0000       0.549369        14.9491 
 194   0.0000       0.550919        14.9913 
 195   0.0000       0.554260        15.0822 
 196   0.0000       0.558752        15.2044 
 197   0.0000       0.564918        15.3722 
 198   0.0000       0.566267        15.4089 
 199   0.0000       0.576561        15.6890 
 200   0.0000       0.577074        15.7030 
 201   0.0000       0.582344        15.8464 
 202   0.0000       0.584536        15.9060 
 203   0.0000       0.586499        15.9595 
 204   0.0000       0.587575        15.9887 
 205   0.0000       0.592177        16.1139 
 206   0.0000       0.599170        16.3042 
 207   0.0000       0.602735        16.4012 
 208   0.0000       0.609521        16.5859 
 209   0.0000       0.614918        16.7328 
 210   0.0000       0.616313        16.7707 
 211   0.0000       0.623041        16.9538 
 212   0.0000       0.632790        17.2191 
 213   0.0000       0.639819        17.4104 
 214   0.0000       0.644495        17.5376 
 215   0.0000       0.649003        17.6603 
 216   0.0000       0.653973        17.7955 
 217   0.0000       0.658053        17.9065 
 218   0.0000       0.663454        18.0535 
[...]
   Size of expansion space: 70
   Lowest Energy          :     0.144550639029
   Maximum Energy change  :     0.000834208287 (vector 9)
   Maximum residual norm  :     0.000080070163
   Rebuilding the expansion space

                       ****Iteration    5****
   Time for densities:            0.335
   Time for RI-J (Direct):       17.443
   Time for K (COSX):            86.772
   Time for XC-Integration:      41.026
   Time for LR-CPCM terms:       21.461
   Time for Sigma-Completion:     0.314
   Size of expansion space: 20
   Lowest Energy          :     0.144548039348
   Maximum Energy change  :     0.000143552057 (vector 9)
   Maximum residual norm  :     0.000023758418

                       ****Iteration    6****
   Time for densities:            0.163
   Time for RI-J (Direct):       13.664
   Time for K (COSX):            49.942
   Time for XC-Integration:      20.839
   Time for LR-CPCM terms:       13.131
   Time for Sigma-Completion:     0.151
   Size of expansion space: 30
   Lowest Energy          :     0.144547673377
   Maximum Energy change  :     0.000064857237 (vector 9)
   Maximum residual norm  :     0.000012190727

                       ****Iteration    7****
   Time for densities:            0.172
   Time for RI-J (Direct):       13.468
   Time for K (COSX):            51.380
   Time for XC-Integration:      21.284
   Time for LR-CPCM terms:       12.711
   Time for Sigma-Completion:     0.146
   Size of expansion space: 40
   Lowest Energy          :     0.144547629729
   Maximum Energy change  :     0.000050674233 (vector 9)
   Maximum residual norm  :     0.000013731559

                       ****Iteration    8****
   Time for densities:            0.179
   Time for RI-J (Direct):       13.348
   Time for K (COSX):            54.431
   Time for XC-Integration:      23.489
   Time for LR-CPCM terms:       15.204
   Time for Sigma-Completion:     0.155
   Size of expansion space: 50
   Lowest Energy          :     0.144547622919
   Maximum Energy change  :     0.000069433114 (vector 9)
   Maximum residual norm  :     0.000024709399

                       ****Iteration    9****
   Time for densities:            0.182
   Time for RI-J (Direct):       13.122
   Time for K (COSX):            53.835
   Time for XC-Integration:      22.557
   Time for LR-CPCM terms:       13.973
   Time for Sigma-Completion:     0.211
   Size of expansion space: 60
   Lowest Energy          :     0.144547622257
   Maximum Energy change  :     0.000129967285 (vector 9)
   Maximum residual norm  :     0.000027207791

                       ****Iteration   10****
   Time for densities:            0.190
   Time for RI-J (Direct):       13.622
   Time for K (COSX):            52.065
   Time for XC-Integration:      23.386
   Time for LR-CPCM terms:       13.277
   Time for Sigma-Completion:     0.150
   Size of expansion space: 70
   Lowest Energy          :     0.144547622198
   Maximum Energy change  :     0.000096523968 (vector 9)
   Maximum residual norm  :     0.000012136978
   Rebuilding the expansion space

                       ****Iteration   11****
   Time for densities:            0.388
   Time for RI-J (Direct):       17.737
   Time for K (COSX):            88.181
   Time for XC-Integration:      40.979
   Time for LR-CPCM terms:       20.658
   Time for Sigma-Completion:     0.311
   Size of expansion space: 20
   Lowest Energy          :     0.144547622737
   Maximum Energy change  :     0.000020933839 (vector 9)
   Maximum residual norm  :     0.000004538022

                       ****Iteration   12****
   Time for densities:            0.175
   Time for RI-J (Direct):       14.145
   Time for K (COSX):            49.575
   Time for XC-Integration:      21.786
   Time for LR-CPCM terms:       13.015
   Time for Sigma-Completion:     0.146
   Size of expansion space: 30
   Lowest Energy          :     0.144547622736
   Maximum Energy change  :     0.000011117660 (vector 9)
   Maximum residual norm  :     0.000002032691

                       ****Iteration   13****
   Time for densities:            0.214
   Time for RI-J (Direct):       13.688
   Time for K (COSX):            48.904
   Time for XC-Integration:      20.802
   Time for LR-CPCM terms:       14.040
   Time for Sigma-Completion:     0.142
   Size of expansion space: 40
   Lowest Energy          :     0.144547622736
   Maximum Energy change  :     0.000006154242 (vector 9)
   Maximum residual norm  :     0.000001178998

                       ****Iteration   14****
   Time for densities:            0.151
   Time for RI-J (Direct):       12.486
   Time for K (COSX):            48.002
   Time for XC-Integration:      19.721
   Time for LR-CPCM terms:       11.925
   Time for Sigma-Completion:     0.119
   Size of expansion space: 49
   Lowest Energy          :     0.144547622736
   Maximum Energy change  :     0.000004096626 (vector 9)
   Maximum residual norm  :     0.000000891655

      *** CONVERGENCE OF RESIDUAL NORM REACHED ***

Storing the converged CI vectors               ... wb97x-d3-train-16_job2.cis1

                 *** DAVIDSON DONE ***

Total time for solving the CIS problem:  1797.287sec

------------------------------------
TD-DFT/TDA EXCITED STATES (SINGLETS)
------------------------------------

the weight of the individual excitations are printed if larger than 1.0e-02

STATE  1:  E=   0.144548 au      3.933 eV    31724.5 cm**-1 <S**2> =   0.000000
    54a ->  55a  :     0.893210 (c= -0.94509773)
    54a ->  57a  :     0.049029 (c=  0.22142417)

STATE  2:  E=   0.173543 au      4.722 eV    38088.3 cm**-1 <S**2> =   0.000000
    51a ->  55a  :     0.024822 (c=  0.15755097)
    52a ->  55a  :     0.014062 (c=  0.11858372)
    54a ->  55a  :     0.051776 (c=  0.22754256)
    54a ->  57a  :     0.769678 (c=  0.87731279)
    54a ->  58a  :     0.046932 (c= -0.21663809)

STATE  3:  E=   0.184523 au      5.021 eV    40498.0 cm**-1 <S**2> =   0.000000
    52a ->  60a  :     0.066499 (c=  0.25787367)
    53a ->  55a  :     0.047514 (c=  0.21797664)
    53a ->  57a  :     0.063837 (c=  0.25266029)
    54a ->  56a  :     0.174365 (c= -0.41756986)
    54a ->  58a  :     0.010840 (c= -0.10411725)
    54a ->  60a  :     0.516840 (c=  0.71891596)
    54a ->  64a  :     0.010098 (c= -0.10048872)

STATE  4:  E=   0.192999 au      5.252 eV    42358.3 cm**-1 <S**2> =   0.000000
    52a ->  60a  :     0.035212 (c=  0.18764903)
    53a ->  55a  :     0.028420 (c=  0.16858230)
    53a ->  57a  :     0.031884 (c=  0.17855985)
    54a ->  56a  :     0.385367 (c=  0.62077935)
    54a ->  60a  :     0.070736 (c=  0.26596183)
    54a ->  62a  :     0.073731 (c= -0.27153407)
    54a ->  64a  :     0.167729 (c=  0.40954771)
    54a ->  66a  :     0.015643 (c=  0.12507294)
    54a ->  67a  :     0.064210 (c=  0.25339761)

STATE  5:  E=   0.199173 au      5.420 eV    43713.4 cm**-1 <S**2> =   0.000000
    51a ->  55a  :     0.167253 (c=  0.40896575)
    52a ->  57a  :     0.016185 (c= -0.12721949)
    54a ->  56a  :     0.018948 (c= -0.13765212)
    54a ->  57a  :     0.033982 (c= -0.18434342)
    54a ->  64a  :     0.142463 (c=  0.37744301)
    54a ->  65a  :     0.362212 (c= -0.60184046)
    54a ->  66a  :     0.042941 (c= -0.20722232)
    54a ->  67a  :     0.049605 (c= -0.22272154)
    54a ->  68a  :     0.020736 (c= -0.14399827)
    54a ->  69a  :     0.016408 (c= -0.12809527)
    54a ->  80a  :     0.013774 (c= -0.11736229)

STATE  6:  E=   0.216733 au      5.898 eV    47567.4 cm**-1 <S**2> =   0.000000
    52a ->  56a  :     0.010804 (c= -0.10394387)
    54a ->  56a  :     0.014600 (c=  0.12083233)
    54a ->  57a  :     0.046718 (c= -0.21614452)
    54a ->  58a  :     0.604307 (c= -0.77737217)
    54a ->  59a  :     0.014832 (c=  0.12178811)
    54a ->  62a  :     0.084195 (c=  0.29016452)
    54a ->  63a  :     0.046179 (c=  0.21489191)
    54a ->  68a  :     0.014669 (c= -0.12111713)
    54a ->  69a  :     0.010826 (c= -0.10404773)
    54a ->  70a  :     0.036161 (c= -0.19016057)

STATE  7:  E=   0.217173 au      5.910 eV    47663.9 cm**-1 <S**2> =   0.000000
    54a ->  58a  :     0.034077 (c=  0.18460012)
    54a ->  59a  :     0.087685 (c= -0.29611665)
    54a ->  61a  :     0.248818 (c= -0.49881697)
    54a ->  62a  :     0.034067 (c=  0.18457232)
    54a ->  63a  :     0.424690 (c=  0.65168245)
    54a ->  64a  :     0.016393 (c= -0.12803450)
    54a ->  66a  :     0.017193 (c=  0.13112034)
    54a ->  75a  :     0.016277 (c= -0.12758128)

STATE  8:  E=   0.217674 au      5.923 eV    47774.0 cm**-1 <S**2> =   0.000000
    52a ->  60a  :     0.020423 (c=  0.14291036)
    53a ->  55a  :     0.031630 (c=  0.17784690)
    53a ->  57a  :     0.029985 (c=  0.17316103)
    54a ->  56a  :     0.030076 (c= -0.17342439)
    54a ->  58a  :     0.011382 (c=  0.10668525)
    54a ->  59a  :     0.562505 (c=  0.75000343)
    54a ->  60a  :     0.036417 (c= -0.19083166)
    54a ->  61a  :     0.038209 (c= -0.19547101)
    54a ->  63a  :     0.051320 (c=  0.22653838)
    54a ->  64a  :     0.016784 (c=  0.12955248)
    54a ->  65a  :     0.011300 (c=  0.10630161)
    54a ->  67a  :     0.019647 (c=  0.14016768)
    54a ->  73a  :     0.015967 (c=  0.12636188)
    54a ->  91a  :     0.020008 (c=  0.14145062)

STATE  9:  E=   0.223605 au      6.085 eV    49075.6 cm**-1 <S**2> =   0.000000
    51a ->  55a  :     0.057419 (c=  0.23962235)
    52a ->  60a  :     0.050979 (c=  0.22578507)
    53a ->  55a  :     0.183460 (c=  0.42832196)
    53a ->  57a  :     0.120950 (c=  0.34777799)
    53a ->  65a  :     0.010589 (c=  0.10290428)
    54a ->  56a  :     0.033658 (c= -0.18346222)
    54a ->  59a  :     0.092546 (c= -0.30421310)
    54a ->  60a  :     0.249935 (c= -0.49993473)
    54a ->  61a  :     0.018020 (c=  0.13423675)
    54a ->  63a  :     0.011985 (c= -0.10947818)
    54a ->  68a  :     0.018791 (c= -0.13708101)

STATE 10:  E=   0.230536 au      6.273 eV    50596.8 cm**-1 <S**2> =   0.000000
    51a ->  55a  :     0.107158 (c=  0.32735053)
    51a ->  57a  :     0.013538 (c= -0.11635106)
    52a ->  58a  :     0.026819 (c=  0.16376419)
    53a ->  55a  :     0.032435 (c=  0.18009811)
    53a ->  57a  :     0.010566 (c=  0.10279331)
    54a ->  56a  :     0.204644 (c=  0.45237575)
    54a ->  58a  :     0.019257 (c=  0.13876840)
    54a ->  59a  :     0.036694 (c=  0.19155580)
    54a ->  62a  :     0.076366 (c=  0.27634341)
    54a ->  64a  :     0.122350 (c= -0.34978585)
    54a ->  66a  :     0.019160 (c= -0.13842131)
    54a ->  67a  :     0.106151 (c= -0.32580798)
    54a ->  68a  :     0.041082 (c=  0.20268782)
    54a ->  71a  :     0.029967 (c=  0.17310968)
    54a ->  85a  :     0.010921 (c= -0.10450133)


-----------------------------
TD-DFT/TDA-EXCITATION SPECTRA
-----------------------------

Center of mass = (  0.1113, -0.0227, -0.0148)
Calculating the Dipole integrals                  ... done
Transforming integrals                            ... done
Calculating the Linear Momentum integrals         ... done
Transforming integrals                            ... done
Calculating angular momentum integrals            ... done
Transforming integrals                            ... done

-----------------------------------------------------------------------------
         ABSORPTION SPECTRUM VIA TRANSITION ELECTRIC DIPOLE MOMENTS
-----------------------------------------------------------------------------
State   Energy    Wavelength  fosc         T2        TX        TY        TZ  
        (cm-1)      (nm)                 (au**2)    (au)      (au)      (au) 
-----------------------------------------------------------------------------
   1   31724.5    315.2   0.349478272   3.62661  -1.90067   0.00633  -0.11836
   2   38088.3    262.5   0.459532071   3.97192   1.80539   0.69537   0.47847
   3   40498.0    246.9   0.019787554   0.16085  -0.30544  -0.15541  -0.20836
   4   42358.3    236.1   0.013877961   0.10786  -0.29757   0.12231  -0.06596
   5   43713.4    228.8   0.134415413   1.01230  -0.77397   0.56754   0.30194
   6   47567.4    210.2   0.011631823   0.08050   0.09635   0.12127  -0.23772
   7   47663.9    209.8   0.007740448   0.05346   0.11150   0.14378   0.14268
   8   47774.0    209.3   0.012704079   0.08754   0.16286   0.15189   0.19481
   9   49075.6    203.8   0.036541922   0.24513  -0.02358  -0.16400   0.46656
  10   50596.8    197.6   0.057748739   0.37575  -0.11929  -0.56461  -0.20671

-----------------------------------------------------------------------------
         ABSORPTION SPECTRUM VIA TRANSITION VELOCITY DIPOLE MOMENTS
-----------------------------------------------------------------------------
State   Energy    Wavelength   fosc        P2         PX        PY        PZ  
        (cm-1)      (nm)                 (au**2)     (au)      (au)      (au) 
-----------------------------------------------------------------------------
   1   31724.5    315.2   0.052453778   0.01137   0.10033   0.02667   0.02440
   2   38088.3    262.5   0.232113262   0.06042  -0.24100  -0.03296  -0.03544
   3   40498.0    246.9   0.006348640   0.00176   0.04162   0.00183  -0.00461
   4   42358.3    236.1   0.008393395   0.00243   0.04647  -0.01644  -0.00039
   5   43713.4    228.8   0.081177396   0.02425   0.13566  -0.07073  -0.02908
   6   47567.4    210.2   0.012674570   0.00412  -0.01344  -0.03385   0.05286
   7   47663.9    209.8   0.004684131   0.00153  -0.00534  -0.02540  -0.02919
   8   47774.0    209.3   0.002840729   0.00093  -0.02545  -0.01522  -0.00696
   9   49075.6    203.8   0.006164564   0.00207   0.01661   0.02731  -0.03234
  10   50596.8    197.6   0.016639490   0.00575   0.03247   0.04886   0.04809

-------------------------------------------------------------------
                             CD SPECTRUM
-------------------------------------------------------------------
State  Energy     Wavelength     R         MX        MY        MZ   
       (cm-1)       (nm)     (1e40*cgs)   (au)      (au)      (au)  
-------------------------------------------------------------------
   1   31724.5    315.2     -4.99238   0.02935   0.20208  -0.37100
   2   38088.3    262.5     -2.61648  -0.00440   0.21718  -0.31062
   3   40498.0    246.9    -15.50030   0.06243   0.17898  -0.06721
   4   42358.3    236.1     10.00165  -0.08648  -0.06517  -0.05231
   5   43713.4    228.8     -7.25003   0.03629  -0.13504   0.29591
   6   47567.4    210.2      8.32222   0.04297  -0.26397  -0.19150
   7   47663.9    209.8     -0.38258  -0.05881   0.07168  -0.03197
   8   47774.0    209.3     22.44794   0.15136  -0.02177   0.13486
   9   49075.6    203.8    113.42293  -0.06654  -0.44685   0.35522
  10   50596.8    197.6     32.26017   0.00360  -0.27767   0.42533

-------------------------------------------------------------------
         CD SPECTRUM VIA TRANSITION VELOCITY DIPOLE MOMENTS        
-------------------------------------------------------------------
State  Energy     Wavelength     R         MX        MY        MZ   
       (cm-1)       (nm)     (1e40*cgs)   (au)      (au)      (au)  
-------------------------------------------------------------------
   1   31724.5    315.2     -2.34474   0.02935   0.20208  -0.37100
   2   38088.3    262.5     13.33947  -0.00440   0.21718  -0.31062
   3   40498.0    246.9      8.26879   0.06243   0.17898  -0.06721
   4   42358.3    236.1     -7.14962  -0.08648  -0.06517  -0.05231
   5   43713.4    228.8     13.89148   0.03629  -0.13504   0.29591
   6   47567.4    210.2     -3.83983   0.04297  -0.26397  -0.19150
   7   47663.9    209.8     -1.24589  -0.05881   0.07168  -0.03197
   8   47774.0    209.3     -9.65671   0.15136  -0.02177   0.13486
   9   49075.6    203.8    -52.28276  -0.06654  -0.44685   0.35522
  10   50596.8    197.6     14.32724   0.00360  -0.27767   0.42533

Total run time:     1805.941 sec

           *** ORCA-CIS/TD-DFT FINISHED WITHOUT ERROR ***

Maximum memory used throughout the entire CIS-calculation: 1250.1 MB

-----------------------
CIS/TD-DFT TOTAL ENERGY
-----------------------

    E(SCF)  =   -650.272268482 Eh
    DE(CIS) =      0.144547623 Eh (Root  1)
    ----------------------------- ---------
    E(tot)  =   -650.127720859 Eh



-------------------------------------------------------------------------------
                          DFT DISPERSION CORRECTION                            
                                                                               
                              DFTD3 V3.1  Rev 1                                
                              USING zero damping                               
-------------------------------------------------------------------------------
The omegaB97X-D3 functional is recognized. Fit by Chai et al.
Active option DFTDOPT                   ...         3   

molecular C6(AA) [au] = 9610.377486 


            DFT-D V3
 parameters
 s6 scaling factor         :     1.0000 
 rs6 scaling factor        :     1.2810 
 s8 scaling factor         :     1.0000 
 rs8 scaling factor        :     1.0940 
 Damping factor alpha6     :    14.0000 
 Damping factor alpha8     :    16.0000 
 ad hoc parameters k1-k3   :    16.0000     1.3333    -4.0000 

 Edisp/kcal,au: -6.421991597575  -0.010234093951 
 E6   /kcal   :  -2.935152262 
 E8   /kcal   :  -3.486839335 
 % E8         :  54.295295818 

-------------------------   ----------------
Dispersion correction           -0.010234094
-------------------------   ----------------


-------------------------   --------------------
FINAL SINGLE POINT ENERGY      -650.137954953423
-------------------------   --------------------


                            ***************************************
                            *     ORCA property calculations      *
                            ***************************************

                                    ---------------------
                                    Active property flags
                                    ---------------------
   (+) Dipole Moment


------------------------------------------------------------------------------
                       ORCA ELECTRIC PROPERTIES CALCULATION
------------------------------------------------------------------------------

Dipole Moment Calculation                       ... on
Quadrupole Moment Calculation                   ... off
Polarizability Calculation                      ... off
GBWName                                         ... wb97x-d3-train-16_job2.gbw
Electron density                                ... wb97x-d3-train-16_job2.scfp
The origin for moment calculation is the CENTER OF MASS  = ( 0.111304, -0.022678 -0.014783)

-------------
DIPOLE MOMENT
-------------
                                X             Y             Z
Electronic contribution:      0.24484      -1.36459      -0.87134
Nuclear contribution   :     -2.09640       0.66511       0.38060
                        -----------------------------------------
Total Dipole Moment    :     -1.85157      -0.69948      -0.49074
                        -----------------------------------------
Magnitude (a.u.)       :      2.03921
Magnitude (Debye)      :      5.18327



--------------------
Rotational spectrum 
--------------------
 
Rotational constants in cm-1:     0.037135     0.011910     0.009252 
Rotational constants in MHz :  1113.279053   357.048610   277.372809 

 Dipole components along the rotational axes: 
x,y,z [a.u.] :    -1.841399    -0.868899     0.112498 
x,y,z [Debye]:    -4.680465    -2.208565     0.285948 

 

Timings for individual modules:

Sum of individual times         ...     2294.434 sec (=  38.241 min)
GTO integral calculation        ...        4.506 sec (=   0.075 min)   0.2 %
SCF iterations                  ...      482.488 sec (=   8.041 min)  21.0 %
CIS module                      ...     1807.440 sec (=  30.124 min)  78.8 %



                             ****ORCA TERMINATED NORMALLY****
TOTAL RUN TIME: 0 days 3 hours 15 minutes 56 seconds 318 msec
