
                                 *****************
                                 * O   R   C   A *
                                 *****************

                                            #,                                       
                                            ###                                      
                                            ####                                     
                                            #####                                    
                                            ######                                   
                                           ########,                                 
                                     ,,################,,,,,                         
                               ,,#################################,,                 
                          ,,##########################################,,             
                       ,#########################################, ''#####,          
                    ,#############################################,,   '####,        
                  ,##################################################,,,,####,       
                ,###########''''           ''''###############################       
              ,#####''   ,,,,##########,,,,          '''####'''          '####       
            ,##' ,,,,###########################,,,                        '##       
           ' ,,###''''                  '''############,,,                           
         ,,##''                                '''############,,,,        ,,,,,,###''
      ,#''                                            '''#######################'''  
     '                                                          ''''####''''         
             ,#######,   #######,   ,#######,      ##                                
            ,#'     '#,  ##    ##  ,#'     '#,    #''#        ######   ,####,        
            ##       ##  ##   ,#'  ##            #'  '#       #        #'  '#        
            ##       ##  #######   ##           ,######,      #####,   #    #        
            '#,     ,#'  ##    ##  '#,     ,#' ,#      #,         ##   #,  ,#        
             '#######'   ##     ##  '#######'  #'      '#     #####' # '####'        



                  #######################################################
                  #                        -***-                        #
                  #          Department of theory and spectroscopy      #
                  #    Directorship and core code : Frank Neese         #
                  #        Max Planck Institute fuer Kohlenforschung    #
                  #                Kaiser Wilhelm Platz 1               #
                  #                 D-45470 Muelheim/Ruhr               #
                  #                      Germany                        #
                  #                                                     #
                  #                  All rights reserved                #
                  #                        -***-                        #
                  #######################################################


                         Program Version 5.0.2 -  RELEASE  -


 With contributions from (in alphabetic order):
   Daniel Aravena         : Magnetic Suceptibility
   Michael Atanasov       : Ab Initio Ligand Field Theory (pilot matlab implementation)
   Alexander A. Auer      : GIAO ZORA, VPT2 properties, NMR spectrum
   Ute Becker             : Parallelization
   Giovanni Bistoni       : ED, misc. LED, open-shell LED, HFLD
   Martin Brehm           : Molecular dynamics
   Dmytro Bykov           : SCF Hessian
   Vijay G. Chilkuri      : MRCI spin determinant printing, contributions to CSF-ICE
   Dipayan Datta          : RHF DLPNO-CCSD density
   Achintya Kumar Dutta   : EOM-CC, STEOM-CC
   Dmitry Ganyushin       : Spin-Orbit,Spin-Spin,Magnetic field MRCI
   Miquel Garcia          : C-PCM and meta-GGA Hessian, CC/C-PCM, Gaussian charge scheme
   Yang Guo               : DLPNO-NEVPT2, F12-NEVPT2, CIM, IAO-localization
   Andreas Hansen         : Spin unrestricted coupled pair/coupled cluster methods
   Benjamin Helmich-Paris : MC-RPA, TRAH-SCF, COSX integrals
   Lee Huntington         : MR-EOM, pCC
   Robert Izsak           : Overlap fitted RIJCOSX, COSX-SCS-MP3, EOM
   Marcus Kettner         : VPT2
   Christian Kollmar      : KDIIS, OOCD, Brueckner-CCSD(T), CCSD density, CASPT2, CASPT2-K
   Simone Kossmann        : Meta GGA functionals, TD-DFT gradient, OOMP2, MP2 Hessian
   Martin Krupicka        : Initial AUTO-CI
   Lucas Lang             : DCDCAS
   Marvin Lechner         : AUTO-CI (C++ implementation), FIC-MRCC
   Dagmar Lenk            : GEPOL surface, SMD
   Dimitrios Liakos       : Extrapolation schemes; Compound Job, initial MDCI parallelization
   Dimitrios Manganas     : Further ROCIS development; embedding schemes
   Dimitrios Pantazis     : SARC Basis sets
   Anastasios Papadopoulos: AUTO-CI, single reference methods and gradients
   Taras Petrenko         : DFT Hessian,TD-DFT gradient, ASA, ECA, R-Raman, ABS, FL, XAS/XES, NRVS
   Peter Pinski           : DLPNO-MP2, DLPNO-MP2 Gradient
   Christoph Reimann      : Effective Core Potentials
   Marius Retegan         : Local ZFS, SOC
   Christoph Riplinger    : Optimizer, TS searches, QM/MM, DLPNO-CCSD(T), (RO)-DLPNO pert. Triples
   Tobias Risthaus        : Range-separated hybrids, TD-DFT gradient, RPA, STAB
   Michael Roemelt        : Original ROCIS implementation
   Masaaki Saitow         : Open-shell DLPNO-CCSD energy and density
   Barbara Sandhoefer     : DKH picture change effects
   Avijit Sen             : IP-ROCIS
   Kantharuban Sivalingam : CASSCF convergence, NEVPT2, FIC-MRCI
   Bernardo de Souza      : ESD, SOC TD-DFT
   Georgi Stoychev        : AutoAux, RI-MP2 NMR, DLPNO-MP2 response
   Willem Van den Heuvel  : Paramagnetic NMR
   Boris Wezisla          : Elementary symmetry handling
   Frank Wennmohs         : Technical directorship


 We gratefully acknowledge several colleagues who have allowed us to
 interface, adapt or use parts of their codes:
   Stefan Grimme, W. Hujo, H. Kruse, P. Pracht,  : VdW corrections, initial TS optimization,
                  C. Bannwarth, S. Ehlert          DFT functionals, gCP, sTDA/sTD-DF
   Ed Valeev, F. Pavosevic, A. Kumar             : LibInt (2-el integral package), F12 methods
   Garnet Chan, S. Sharma, J. Yang, R. Olivares  : DMRG
   Ulf Ekstrom                                   : XCFun DFT Library
   Mihaly Kallay                                 : mrcc  (arbitrary order and MRCC methods)
   Jiri Pittner, Ondrej Demel                    : Mk-CCSD
   Frank Weinhold                                : gennbo (NPA and NBO analysis)
   Christopher J. Cramer and Donald G. Truhlar   : smd solvation model
   Lars Goerigk                                  : TD-DFT with DH, B97 family of functionals
   V. Asgeirsson, H. Jonsson                     : NEB implementation
   FAccTs GmbH                                   : IRC, NEB, NEB-TS, DLPNO-Multilevel, CI-OPT
                                                   MM, QMMM, 2- and 3-layer-ONIOM, Crystal-QMMM,
                                                   LR-CPCM, SF, NACMEs, symmetry and pop. for TD-DFT,
                                                   nearIR, NL-DFT gradient (VV10), updates on ESD,
                                                   ML-optimized integration grids
   S Lehtola, MJT Oliveira, MAL Marques          : LibXC Library
   Liviu Ungur et al                             : ANISO software


 Your calculation uses the libint2 library for the computation of 2-el integrals
 For citations please refer to: http://libint.valeyev.net

 Your ORCA version has been built with support for libXC version: 5.1.0
 For citations please refer to: https://tddft.org/programs/libxc/

 This ORCA versions uses:
   CBLAS   interface :  Fast vector & matrix operations
   LAPACKE interface :  Fast linear algebra routines
   SCALAPACK package :  Parallel linear algebra routines
   Shared memory     :  Shared parallel matrices
   BLAS/LAPACK       :  OpenBLAS 0.3.15  USE64BITINT DYNAMIC_ARCH NO_AFFINITY Haswell SINGLE_THREADED
        Core in use  :  Haswell
   Copyright (c) 2011-2014, The OpenBLAS Project


Your calculation utilizes the SMD solvation module
Please cite in your paper:
A.V. Marenich, C.J. Cramer, D.G. Truhlar J. Phys. Chem. B, 113, (2009), 6378 

================================================================================

----- Orbital basis set information -----
Your calculation utilizes the basis: aug-cc-pVTZ 
    H, B-Ne : Obtained from the ccRepo (grant-hill.group.shef.ac.uk/ccrepo) Feb. 2017
              R. A. Kendall, T. H. Dunning, Jr., R. J. Harrison, J. Chem. Phys. 96, 6796 (1992)
         He : Obtained from the ccRepo (grant-hill.group.shef.ac.uk/ccrepo) Feb. 2017
              D. E. Woon, T. H. Dunning, Jr., J. Chem. Phys. 100, 2975 (1994)
  Li-Be, Na : Obtained from the ccRepo (grant-hill.group.shef.ac.uk/ccrepo) Feb. 2017
              B. P. Prascher, D. E. Woon, K. A. Peterson, T. H. Dunning, Jr., A. K. Wilson, Theor. Chem. Acc. 128, 69 (2011)
         Mg : Obtained from the Peterson Research Group Website (tyr0.chem.wsu.edu/~kipeters) Feb. 2017
              B. P. Prascher, D. E. Woon, K. A. Peterson, T. H. Dunning, Jr., A. K. Wilson, Theor. Chem. Acc. 128, 69 (2011)
      Al-Ar : Obtained from the ccRepo (grant-hill.group.shef.ac.uk/ccrepo) Feb. 2017
              D. E. Woon, T. H. Dunning, Jr., J. Chem. Phys. 98, 1358 (1993)
      Sc-Zn : Obtained from the ccRepo (grant-hill.group.shef.ac.uk/ccrepo) Feb. 2017
              N. B. Balabanov, K. A. Peterson, J. Chem. Phys. 123, 064107 (2005)
              N. B. Balabanov, K. A. Peterson, J. Chem. Phys. 125, 074110 (2006)
      Ga-Kr : Obtained from the ccRepo (grant-hill.group.shef.ac.uk/ccrepo) Feb. 2017
              A. K. Wilson, D. E. Woon, K. A. Peterson, T. H. Dunning, Jr., J. Chem. Phys. 110, 7667 (1999)
     Ag, Au : Obtained from the Peterson Research Group Website (tyr0.chem.wsu.edu/~kipeters) Feb. 2017
              K. A. Peterson, C. Puzzarini, Theor. Chem. Acc. 114, 283 (2005)

The basis set includes element-specific modifications.

Your calculation utilizes the basis: cc-pVTZ 
       H, B-Ne : Obtained from the ccRepo (grant-hill.group.shef.ac.uk/ccrepo) Feb. 2017
                 T. H. Dunning, Jr., J. Chem. Phys. 90, 1007 (1989)
            He : Obtained from the ccRepo (grant-hill.group.shef.ac.uk/ccrepo) Feb. 2017
                 D. E. Woon, T. H. Dunning, Jr., J. Chem. Phys. 100, 2975 (1994)
  Li-Be, Na-Mg : Obtained from the ccRepo (grant-hill.group.shef.ac.uk/ccrepo) Feb. 2017
                 B. P. Prascher, D. E. Woon, K. A. Peterson, T. H. Dunning, Jr., A. K. Wilson, Theor. Chem. Acc. 128, 69 (2011)
         Al-Ar : Obtained from the ccRepo (grant-hill.group.shef.ac.uk/ccrepo) Feb. 2017
                 D. E. Woon, T. H. Dunning, Jr., J. Chem. Phys. 98, 1358 (1993)
            Ca : Obtained from the Peterson Research Group Website (tyr0.chem.wsu.edu/~kipeters) Feb. 2017
                 J. Koput, K. A. Peterson, J. Phys. Chem. 106, 9595 (2002)
         Sc-Zn : Obtained from the ccRepo (grant-hill.group.shef.ac.uk/ccrepo) Feb. 2017
                 N. B. Balabanov, K. A. Peterson, J. Chem. Phys. 123, 064107 (2005)
                 N. B. Balabanov, K. A. Peterson, J. Chem. Phys. 125, 074110 (2006)
         Ga-Kr : Obtained from the ccRepo (grant-hill.group.shef.ac.uk/ccrepo) Feb. 2017
                 A. K. Wilson, D. E. Woon, K. A. Peterson, T. H. Dunning, Jr., J. Chem. Phys. 110, 7667 (1999)
             Y : Obtained from the ccRepo (grant-hill.group.shef.ac.uk/ccrepo) Feb. 2017
                 K. A. Peterson, D. Figgen, M. Dolg, H. Stoll, J. Chem. Phys. 126, 124101 (2007)
        Ag, Au : Obtained from the Peterson Research Group Website (tyr0.chem.wsu.edu/~kipeters) Feb. 2017
                 K. A. Peterson, C. Puzzarini, Theor. Chem. Acc. 114, 283 (2005)

----- AuxJ basis set information -----
Your calculation utilizes the auxiliary basis: aug-cc-pVTZ/JK 
  H, B-F, Al-Cl, Ga-Br : Obtained from the TURBOMOLE 7.0 basis set library

The basis set includes element-specific modifications.

Your calculation utilizes the auxiliary basis: cc-pVTZ/JK 
  H, B-F, Al-Cl, Ga-Br : Obtained from the TURBOMOLE 7.0 basis set library

----- AuxC basis set information -----
Your calculation utilizes the auxiliary basis: aug-cc-pVTZ/C 
  H-He, B-F, Al-Ar, Ga-Kr : Obtained from the EMSL Basis Set Exchange (bse.pnl.gov) Feb. 2017
                            F. Weigend, A. Kohn, C. Hattig, J. Chem. Phys. 116, 3175 (2002)
                   Be, Mg : Obtained from the TURBOMOLE 7.0 basis set library
                            C. Haettig, Phys. Chem. Chem. Phys. 7, 59 (2005)
                       Ne : Obtained from the EMSL Basis Set Exchange (bse.pnl.gov) Feb. 2017
                            C. Haettig, Phys. Chem. Chem. Phys. 7, 59 (2005)
                            F. Weigend, A. Kohn, C. Hattig, J. Chem. Phys. 116, 3175 (2002)
                    Sc-Zn : Obtained from the EMSL Basis Set Exchange (bse.pnl.gov) Feb. 2017
                            J. G. Hill, J. A. Platts, J. Chem. Phys. 128, 044104 (2008)

The basis set includes element-specific modifications.

Your calculation utilizes the auxiliary basis: cc-pVTZ/C 
  Obtained from the EMSL Basis Set Exchange (bse.pnl.gov) Feb. 2017
  H-He, B-F, Al-Ar, Ga-Kr : F. Weigend, A. Kohn, C. Hattig, J. Chem. Phys. 116, 3175 (2002)
             Li-Be, Na-Mg : C. Haettig, Phys. Chem. Chem. Phys. 7, 59 (2005)
                       Ne : C. Haettig, Phys. Chem. Chem. Phys. 7, 59 (2005)
                            F. Weigend, A. Kohn, C. Hattig, J. Chem. Phys. 116, 3175 (2002)
                    Sc-Zn : J. G. Hill, J. A. Platts, J. Chem. Phys. 128, 044104 (2008)

================================================================================
                                        WARNINGS
                       Please study these warnings very carefully!
================================================================================


WARNING: Geometry Optimization
  ===> : Switching off AutoStart
         For restart on a previous wavefunction, please use MOREAD

INFO   : the flag for use of the SHARK integral package has been found!



***************************************
The coordinates will be read from file: 
***************************************


Your calculation utilizes the SMD solvation module
Please cite in your paper:
A.V. Marenich, C.J. Cramer, D.G. Truhlar J. Phys. Chem. B, 113, (2009), 6378 

================================================================================

----- Orbital basis set information -----
Your calculation utilizes the basis: aug-cc-pVTZ 
    H, B-Ne : Obtained from the ccRepo (grant-hill.group.shef.ac.uk/ccrepo) Feb. 2017
              R. A. Kendall, T. H. Dunning, Jr., R. J. Harrison, J. Chem. Phys. 96, 6796 (1992)
         He : Obtained from the ccRepo (grant-hill.group.shef.ac.uk/ccrepo) Feb. 2017
              D. E. Woon, T. H. Dunning, Jr., J. Chem. Phys. 100, 2975 (1994)
  Li-Be, Na : Obtained from the ccRepo (grant-hill.group.shef.ac.uk/ccrepo) Feb. 2017
              B. P. Prascher, D. E. Woon, K. A. Peterson, T. H. Dunning, Jr., A. K. Wilson, Theor. Chem. Acc. 128, 69 (2011)
         Mg : Obtained from the Peterson Research Group Website (tyr0.chem.wsu.edu/~kipeters) Feb. 2017
              B. P. Prascher, D. E. Woon, K. A. Peterson, T. H. Dunning, Jr., A. K. Wilson, Theor. Chem. Acc. 128, 69 (2011)
      Al-Ar : Obtained from the ccRepo (grant-hill.group.shef.ac.uk/ccrepo) Feb. 2017
              D. E. Woon, T. H. Dunning, Jr., J. Chem. Phys. 98, 1358 (1993)
      Sc-Zn : Obtained from the ccRepo (grant-hill.group.shef.ac.uk/ccrepo) Feb. 2017
              N. B. Balabanov, K. A. Peterson, J. Chem. Phys. 123, 064107 (2005)
              N. B. Balabanov, K. A. Peterson, J. Chem. Phys. 125, 074110 (2006)
      Ga-Kr : Obtained from the ccRepo (grant-hill.group.shef.ac.uk/ccrepo) Feb. 2017
              A. K. Wilson, D. E. Woon, K. A. Peterson, T. H. Dunning, Jr., J. Chem. Phys. 110, 7667 (1999)
     Ag, Au : Obtained from the Peterson Research Group Website (tyr0.chem.wsu.edu/~kipeters) Feb. 2017
              K. A. Peterson, C. Puzzarini, Theor. Chem. Acc. 114, 283 (2005)

The basis set includes element-specific modifications.

Your calculation utilizes the basis: cc-pVTZ 
       H, B-Ne : Obtained from the ccRepo (grant-hill.group.shef.ac.uk/ccrepo) Feb. 2017
                 T. H. Dunning, Jr., J. Chem. Phys. 90, 1007 (1989)
            He : Obtained from the ccRepo (grant-hill.group.shef.ac.uk/ccrepo) Feb. 2017
                 D. E. Woon, T. H. Dunning, Jr., J. Chem. Phys. 100, 2975 (1994)
  Li-Be, Na-Mg : Obtained from the ccRepo (grant-hill.group.shef.ac.uk/ccrepo) Feb. 2017
                 B. P. Prascher, D. E. Woon, K. A. Peterson, T. H. Dunning, Jr., A. K. Wilson, Theor. Chem. Acc. 128, 69 (2011)
         Al-Ar : Obtained from the ccRepo (grant-hill.group.shef.ac.uk/ccrepo) Feb. 2017
                 D. E. Woon, T. H. Dunning, Jr., J. Chem. Phys. 98, 1358 (1993)
            Ca : Obtained from the Peterson Research Group Website (tyr0.chem.wsu.edu/~kipeters) Feb. 2017
                 J. Koput, K. A. Peterson, J. Phys. Chem. 106, 9595 (2002)
         Sc-Zn : Obtained from the ccRepo (grant-hill.group.shef.ac.uk/ccrepo) Feb. 2017
                 N. B. Balabanov, K. A. Peterson, J. Chem. Phys. 123, 064107 (2005)
                 N. B. Balabanov, K. A. Peterson, J. Chem. Phys. 125, 074110 (2006)
         Ga-Kr : Obtained from the ccRepo (grant-hill.group.shef.ac.uk/ccrepo) Feb. 2017
                 A. K. Wilson, D. E. Woon, K. A. Peterson, T. H. Dunning, Jr., J. Chem. Phys. 110, 7667 (1999)
             Y : Obtained from the ccRepo (grant-hill.group.shef.ac.uk/ccrepo) Feb. 2017
                 K. A. Peterson, D. Figgen, M. Dolg, H. Stoll, J. Chem. Phys. 126, 124101 (2007)
        Ag, Au : Obtained from the Peterson Research Group Website (tyr0.chem.wsu.edu/~kipeters) Feb. 2017
                 K. A. Peterson, C. Puzzarini, Theor. Chem. Acc. 114, 283 (2005)

----- AuxJ basis set information -----
Your calculation utilizes the auxiliary basis: aug-cc-pVTZ/JK 
  H, B-F, Al-Cl, Ga-Br : Obtained from the TURBOMOLE 7.0 basis set library

The basis set includes element-specific modifications.

Your calculation utilizes the auxiliary basis: cc-pVTZ/JK 
  H, B-F, Al-Cl, Ga-Br : Obtained from the TURBOMOLE 7.0 basis set library

----- AuxC basis set information -----
Your calculation utilizes the auxiliary basis: aug-cc-pVTZ/C 
  H-He, B-F, Al-Ar, Ga-Kr : Obtained from the EMSL Basis Set Exchange (bse.pnl.gov) Feb. 2017
                            F. Weigend, A. Kohn, C. Hattig, J. Chem. Phys. 116, 3175 (2002)
                   Be, Mg : Obtained from the TURBOMOLE 7.0 basis set library
                            C. Haettig, Phys. Chem. Chem. Phys. 7, 59 (2005)
                       Ne : Obtained from the EMSL Basis Set Exchange (bse.pnl.gov) Feb. 2017
                            C. Haettig, Phys. Chem. Chem. Phys. 7, 59 (2005)
                            F. Weigend, A. Kohn, C. Hattig, J. Chem. Phys. 116, 3175 (2002)
                    Sc-Zn : Obtained from the EMSL Basis Set Exchange (bse.pnl.gov) Feb. 2017
                            J. G. Hill, J. A. Platts, J. Chem. Phys. 128, 044104 (2008)

The basis set includes element-specific modifications.

Your calculation utilizes the auxiliary basis: cc-pVTZ/C 
  Obtained from the EMSL Basis Set Exchange (bse.pnl.gov) Feb. 2017
  H-He, B-F, Al-Ar, Ga-Kr : F. Weigend, A. Kohn, C. Hattig, J. Chem. Phys. 116, 3175 (2002)
             Li-Be, Na-Mg : C. Haettig, Phys. Chem. Chem. Phys. 7, 59 (2005)
                       Ne : C. Haettig, Phys. Chem. Chem. Phys. 7, 59 (2005)
                            F. Weigend, A. Kohn, C. Hattig, J. Chem. Phys. 116, 3175 (2002)
                    Sc-Zn : J. G. Hill, J. A. Platts, J. Chem. Phys. 128, 044104 (2008)

================================================================================
                                        WARNINGS
                       Please study these warnings very carefully!
================================================================================

INFO   : Checking CIS options ...

INFO   : the flag for use of the SHARK integral package has been found!

================================================================================
                                       INPUT FILE
================================================================================
NAME = x3lyp-train-16.inp
|  1> ! x3lyp aug-cc-PVTZ RIJCOSX Opt
|  2> %maxcore 4000
|  3> %basis
|  4>  AuxJ "aug-cc-PVTZ/JK"
|  5>  AuxC "aug-cc-PVTZ/C"
|  6>  newGTO H "cc-PVTZ" end
|  7>  newAuxJGTO H "cc-PVTZ/JK" end
|  8>  newAuxCGTO H "cc-PVTZ/C" end
|  9> end
| 10> %cpcm
| 11>  SMD true
| 12>  SMDsolvent "dichloromethane"
| 13> end
| 14> %pal nprocs 4 end
| 15> * xyz 0 1
| 16> C         -2.42590        2.44530        1.32870
| 17> C         -1.53060        1.40970        0.75600
| 18> N         -0.22420        1.39910        0.85070
| 19> C          0.23760        0.30770        0.18880
| 20> C          1.66070        0.03280        0.11160
| 21> C          2.22290       -0.69570       -0.93590
| 22> C          3.58340       -0.93750       -0.96820
| 23> C          4.40530       -0.45170        0.03490
| 24> C          3.85890        0.29320        1.06810
| 25> C          2.50060        0.53550        1.10660
| 26> C         -0.84840       -0.40410       -0.32620
| 27> C         -1.04630       -1.61470       -1.01420
| 28> C         -2.30990       -2.01210       -1.33370
| 29> C         -3.42320       -1.21070       -0.97010
| 30> C         -3.24010       -0.05980       -0.28070
| 31> N         -1.97810        0.33520        0.05040
| 32> H         -3.12110        2.00510        2.04440
| 33> H         -1.81580        3.18530        1.83680
| 34> H         -3.00160        2.93770        0.54440
| 35> H          1.59870       -1.04840       -1.74300
| 36> H          4.00740       -1.50310       -1.78600
| 37> H          5.46780       -0.64500        0.00630
| 38> H          4.49780        0.68450        1.84690
| 39> H          2.06160        1.11650        1.90270
| 40> H         -0.19020       -2.21980       -1.26340
| 41> H         -2.47940       -2.93840       -1.85910
| 42> H         -4.41940       -1.52640       -1.23400
| 43> H         -4.04840        0.57990        0.03740
| 44> *
| 45> 
| 46> 
| 47> $new_job
| 48> ! x3lyp aug-cc-PVTZ RIJCOSX SP
| 49> %maxcore 4000
| 50> %basis
| 51>  AuxJ "aug-cc-PVTZ/JK"
| 52>  AuxC "aug-cc-PVTZ/C"
| 53>  newGTO H "cc-PVTZ" end
| 54>  newAuxJGTO H "cc-PVTZ/JK" end
| 55>  newAuxCGTO H "cc-PVTZ/C" end
| 56> end
| 57> %cpcm
| 58>  SMD true
| 59>  SMDsolvent "dichloromethane"
| 60> end
| 61> %pal nprocs 4 end
| 62> %tddft
| 63>  nroots 10
| 64>  maxdim 7
| 65> end
| 66> * xyzfile 0 1
| 67> 
| 68>                          ****END OF INPUT****
================================================================================


                 $$$$$$$$$$$$$$$$$$$$$$$$$$$$$$$$$$$$$$$$$$$$$$ 
                 $ THERE ARE  2 JOBS TO BE PROCESSED THIS RUN $
                 $$$$$$$$$$$$$$$$$$$$$$$$$$$$$$$$$$$$$$$$$$$$$$ 




                 $$$$$$$$$$$$$$$$  JOB NUMBER  1 $$$$$$$$$$$$$$


                       *****************************
                       * Geometry Optimization Run *
                       *****************************

Geometry optimization settings:
Update method            Update   .... BFGS
Choice of coordinates    CoordSys .... Z-matrix Internals
Initial Hessian          InHess   .... Almoef's Model

Convergence Tolerances:
Energy Change            TolE     ....  5.0000e-06 Eh
Max. Gradient            TolMAXG  ....  3.0000e-04 Eh/bohr
RMS Gradient             TolRMSG  ....  1.0000e-04 Eh/bohr
Max. Displacement        TolMAXD  ....  4.0000e-03 bohr
RMS Displacement         TolRMSD  ....  2.0000e-03 bohr
Strict Convergence                ....  False
------------------------------------------------------------------------------
                        ORCA OPTIMIZATION COORDINATE SETUP
------------------------------------------------------------------------------

The optimization will be done in new redundant internal coordinates
Making redundant internal coordinates   ...  (new redundants) done
Evaluating the initial hessian          ...  (Almloef) done
Evaluating the coordinates              ...  done
Calculating the B-matrix                .... done
Calculating the G-matrix                .... done
Diagonalizing the G-matrix              .... done
Small eigenvalue found = 7.428e-03
Small eigenvalue found = 2.903e-02
The first mode is                       ....   71
The number of degrees of freedom        ....   78

    -----------------------------------------------------------------
                    Redundant Internal Coordinates


    -----------------------------------------------------------------
         Definition                    Initial Value    Approx d2E/dq
    -----------------------------------------------------------------
      1. B(C   1,C   0)                  1.4839         0.442484   
      2. B(N   2,C   1)                  1.3099         0.751133   
      3. B(C   3,N   2)                  1.3574         0.630801   
      4. B(C   4,C   3)                  1.4515         0.498516   
      5. B(C   5,C   4)                  1.3943         0.615033   
      6. B(C   6,C   5)                  1.3822         0.642964   
      7. B(C   7,C   6)                  1.3848         0.636796   
      8. B(C   8,C   7)                  1.3860         0.634100   
      9. B(C   9,C   8)                  1.3803         0.647512   
     10. B(C   9,C   4)                  1.3958         0.611700   
     11. B(C  10,C   3)                  1.3969         0.609198   
     12. B(C  11,C  10)                  1.4064         0.588189   
     13. B(C  12,C  11)                  1.3626         0.690949   
     14. B(C  13,C  12)                  1.4191         0.561422   
     15. B(C  14,C  13)                  1.3540         0.713088   
     16. B(N  15,C  14)                  1.3632         0.617510   
     17. B(N  15,C  10)                  1.4016         0.536159   
     18. B(N  15,C   1)                  1.3611         0.622206   
     19. B(H  16,C   0)                  1.0906         0.359369   
     20. B(H  17,C   0)                  1.0854         0.366302   
     21. B(H  18,C   0)                  1.0904         0.359545   
     22. B(H  19,C   5)                  1.0796         0.374190   
     23. B(H  20,C   6)                  1.0810         0.372259   
     24. B(H  21,C   7)                  1.0803         0.373137   
     25. B(H  22,C   8)                  1.0807         0.372662   
     26. B(H  23,C   9)                  1.0789         0.375067   
     27. B(H  24,C  11)                  1.0776         0.376927   
     28. B(H  25,C  12)                  1.0783         0.375866   
     29. B(H  26,C  13)                  1.0778         0.376560   
     30. B(H  27,C  14)                  1.0788         0.375262   
     31. A(C   1,C   0,H  16)          110.8665         0.333398   
     32. A(H  16,C   0,H  17)          109.0455         0.291528   
     33. A(H  17,C   0,H  18)          109.0028         0.291550   
     34. A(H  16,C   0,H  18)          108.5267         0.290676   
     35. A(C   1,C   0,H  18)          110.8602         0.333425   
     36. A(C   1,C   0,H  17)          108.5025         0.334457   
     37. A(C   0,C   1,N   2)          125.4141         0.420143   
     38. A(C   0,C   1,N  15)          123.5475         0.406326   
     39. A(N   2,C   1,N  15)          111.0382         0.443759   
     40. A(C   1,N   2,C   3)          108.0931         0.444863   
     41. A(C   4,C   3,C  10)          130.2509         0.416143   
     42. A(N   2,C   3,C   4)          120.7824         0.416020   
     43. A(N   2,C   3,C  10)          108.9650         0.431203   
     44. A(C   5,C   4,C   9)          118.7579         0.432389   
     45. A(C   3,C   4,C   5)          122.2933         0.416849   
     46. A(C   3,C   4,C   9)          118.9379         0.416446   
     47. A(C   6,C   5,H  19)          119.6368         0.357412   
     48. A(C   4,C   5,C   6)          120.3876         0.436285   
     49. A(C   4,C   5,H  19)          119.9495         0.354727   
     50. A(C   5,C   6,C   7)          120.3906         0.439029   
     51. A(C   7,C   6,H  20)          119.9182         0.356513   
     52. A(C   5,C   6,H  20)          119.6896         0.357098   
     53. A(C   6,C   7,C   8)          119.6395         0.437931   
     54. A(C   8,C   7,H  21)          120.2407         0.356399   
     55. A(C   6,C   7,H  21)          120.1173         0.356656   
     56. A(C   7,C   8,C   9)          120.2051         0.439252   
     57. A(C   9,C   8,H  22)          119.8764         0.357592   
     58. A(C   7,C   8,H  22)          119.9184         0.356322   
     59. A(C   4,C   9,C   8)          120.6011         0.436412   
     60. A(C   8,C   9,H  23)          121.0325         0.357983   
     61. A(C   4,C   9,H  23)          118.3664         0.354541   
     62. A(C   3,C  10,C  11)          136.7487         0.428623   
     63. A(C   3,C  10,N  15)          104.9976         0.418841   
     64. A(C  11,C  10,N  15)          118.1663         0.416231   
     65. A(C  10,C  11,C  12)          119.7506         0.438442   
     66. A(C  12,C  11,H  24)          121.2485         0.362271   
     67. A(C  10,C  11,H  24)          118.9921         0.352491   
     68. A(C  13,C  12,H  25)          119.1188         0.349562   
     69. A(C  11,C  12,H  25)          120.6997         0.362097   
     70. A(C  11,C  12,C  13)          120.1806         0.434777   
     71. A(C  14,C  13,H  26)          119.9081         0.364168   
     72. A(C  12,C  13,H  26)          119.7982         0.349671   
     73. A(C  12,C  13,C  14)          120.2896         0.437255   
     74. A(N  15,C  14,H  27)          116.7572         0.352951   
     75. A(C  13,C  14,H  27)          123.5624         0.363953   
     76. A(C  13,C  14,N  15)          119.6795         0.441914   
     77. A(C  10,N  15,C  14)          121.8742         0.417132   
     78. A(C   1,N  15,C  14)          131.2250         0.428374   
     79. A(C   1,N  15,C  10)          106.8987         0.417695   
     80. D(N   2,C   1,C   0,H  18)    119.5743         0.014445   
     81. D(N   2,C   1,C   0,H  17)     -0.0936         0.014445   
     82. D(N  15,C   1,C   0,H  18)    -60.2250         0.014445   
     83. D(N   2,C   1,C   0,H  16)   -119.8177         0.014445   
     84. D(N  15,C   1,C   0,H  16)     60.3831         0.014445   
     85. D(N  15,C   1,C   0,H  17)   -179.8928         0.014445   
     86. D(C   3,N   2,C   1,N  15)      0.6115         0.042865   
     87. D(C   3,N   2,C   1,C   0)   -179.2092         0.042865   
     88. D(C  10,C   3,N   2,C   1)     -0.8911         0.029269   
     89. D(C   4,C   3,N   2,C   1)    179.5369         0.029269   
     90. D(C   5,C   4,C   3,C  10)     26.9820         0.016926   
     91. D(C   5,C   4,C   3,N   2)   -153.5482         0.016926   
     92. D(C   9,C   4,C   3,N   2)     25.2341         0.016926   
     93. D(C   9,C   4,C   3,C  10)   -154.2356         0.016926   
     94. D(C   6,C   5,C   4,C   3)   -179.8256         0.026150   
     95. D(H  19,C   5,C   4,C   9)   -176.7464         0.026150   
     96. D(H  19,C   5,C   4,C   3)      2.0380         0.026150   
     97. D(C   6,C   5,C   4,C   9)      1.3900         0.026150   
     98. D(H  20,C   6,C   5,H  19)     -1.8208         0.028741   
     99. D(H  20,C   6,C   5,C   4)   -179.9631         0.028741   
    100. D(C   7,C   6,C   5,H  19)    177.7238         0.028741   
    101. D(C   7,C   6,C   5,C   4)     -0.4185         0.028741   
    102. D(H  21,C   7,C   6,H  20)     -0.5793         0.028155   
    103. D(H  21,C   7,C   6,C   5)    179.8772         0.028155   
    104. D(C   8,C   7,C   6,H  20)    178.8467         0.028155   
    105. D(C   8,C   7,C   6,C   5)     -0.6969         0.028155   
    106. D(H  22,C   8,C   7,H  21)      0.1562         0.027902   
    107. D(H  22,C   8,C   7,C   6)   -179.2691         0.027902   
    108. D(C   9,C   8,C   7,H  21)   -179.7572         0.027902   
    109. D(C   9,C   8,C   7,C   6)      0.8176         0.027902   
    110. D(C   8,C   9,C   4,C   3)    179.9033         0.025851   
    111. D(H  23,C   9,C   8,H  22)      0.3019         0.029177   
    112. D(H  23,C   9,C   8,C   7)   -179.7846         0.029177   
    113. D(C   4,C   9,C   8,H  22)   -179.7380         0.029177   
    114. D(C   4,C   9,C   8,C   7)      0.1754         0.029177   
    115. D(H  23,C   9,C   4,C   5)    178.6902         0.025851   
    116. D(H  23,C   9,C   4,C   3)     -0.1356         0.025851   
    117. D(C   8,C   9,C   4,C   5)     -1.2709         0.025851   
    118. D(N  15,C  10,C   3,C   4)   -179.6707         0.025627   
    119. D(N  15,C  10,C   3,N   2)      0.8111         0.025627   
    120. D(C  11,C  10,C   3,C   4)      3.9824         0.025627   
    121. D(C  11,C  10,C   3,N   2)   -175.5359         0.025627   
    122. D(H  24,C  11,C  10,N  15)   -176.7455         0.023801   
    123. D(H  24,C  11,C  10,C   3)     -0.7486         0.023801   
    124. D(C  12,C  11,C  10,N  15)      2.1905         0.023801   
    125. D(C  12,C  11,C  10,C   3)    178.1874         0.023801   
    126. D(H  25,C  12,C  11,H  24)     -0.9571         0.033551   
    127. D(H  25,C  12,C  11,C  10)   -179.8685         0.033551   
    128. D(C  13,C  12,C  11,H  24)    178.6925         0.033551   
    129. D(C  13,C  12,C  11,C  10)     -0.2189         0.033551   
    130. D(H  26,C  13,C  12,H  25)     -0.9139         0.021595   
    131. D(H  26,C  13,C  12,C  11)    179.4311         0.021595   
    132. D(C  14,C  13,C  12,H  25)    178.3488         0.021595   
    133. D(C  14,C  13,C  12,C  11)     -1.3063         0.021595   
    134. D(H  27,C  14,C  13,H  26)      0.3767         0.035928   
    135. D(H  27,C  14,C  13,C  12)   -178.8851         0.035928   
    136. D(N  15,C  14,C  13,H  26)   -179.9867         0.035928   
    137. D(N  15,C  14,C  13,C  12)      0.7515         0.035928   
    138. D(C   1,N  15,C  10,C   3)     -0.4392         0.022853   
    139. D(C  14,N  15,C   1,N   2)    179.3660         0.031366   
    140. D(C  14,N  15,C   1,C   0)     -0.8093         0.031366   
    141. D(C  10,N  15,C   1,N   2)     -0.0944         0.031366   
    142. D(C  10,N  15,C   1,C   0)    179.7303         0.031366   
    143. D(C  10,N  15,C  14,H  27)   -179.0118         0.030858   
    144. D(C  10,N  15,C  14,C  13)      1.3274         0.030858   
    145. D(C   1,N  15,C  14,H  27)      1.5961         0.030858   
    146. D(C   1,N  15,C  14,C  13)   -178.0647         0.030858   
    147. D(C  14,N  15,C  10,C  11)     -2.7999         0.022853   
    148. D(C  14,N  15,C  10,C   3)   -179.9613         0.022853   
    149. D(C   1,N  15,C  10,C  11)    176.7223         0.022853   
    -----------------------------------------------------------------

Number of atoms                         .... 28
Number of degrees of freedom            .... 149

         *************************************************************
         *                GEOMETRY OPTIMIZATION CYCLE   1            *
         *************************************************************
---------------------------------
CARTESIAN COORDINATES (ANGSTROEM)
---------------------------------
  C     -2.425900    2.445300    1.328700
  C     -1.530600    1.409700    0.756000
  N     -0.224200    1.399100    0.850700
  C      0.237600    0.307700    0.188800
  C      1.660700    0.032800    0.111600
  C      2.222900   -0.695700   -0.935900
  C      3.583400   -0.937500   -0.968200
  C      4.405300   -0.451700    0.034900
  C      3.858900    0.293200    1.068100
  C      2.500600    0.535500    1.106600
  C     -0.848400   -0.404100   -0.326200
  C     -1.046300   -1.614700   -1.014200
  C     -2.309900   -2.012100   -1.333700
  C     -3.423200   -1.210700   -0.970100
  C     -3.240100   -0.059800   -0.280700
  N     -1.978100    0.335200    0.050400
  H     -3.121100    2.005100    2.044400
  H     -1.815800    3.185300    1.836800
  H     -3.001600    2.937700    0.544400
  H      1.598700   -1.048400   -1.743000
  H      4.007400   -1.503100   -1.786000
  H      5.467800   -0.645000    0.006300
  H      4.497800    0.684500    1.846900
  H      2.061600    1.116500    1.902700
  H     -0.190200   -2.219800   -1.263400
  H     -2.479400   -2.938400   -1.859100
  H     -4.419400   -1.526400   -1.234000
  H     -4.048400    0.579900    0.037400

----------------------------
CARTESIAN COORDINATES (A.U.)
----------------------------
  NO LB      ZA    FRAG     MASS         X           Y           Z
   0 C     6.0000    0    12.011   -4.584287    4.620947    2.510879
   1 C     6.0000    0    12.011   -2.892415    2.663947    1.428633
   2 N     7.0000    0    14.007   -0.423677    2.643916    1.607590
   3 C     6.0000    0    12.011    0.448999    0.581469    0.356780
   4 C     6.0000    0    12.011    3.138268    0.061983    0.210893
   5 C     6.0000    0    12.011    4.200672   -1.314682   -1.768595
   6 C     6.0000    0    12.011    6.771645   -1.771618   -1.829633
   7 C     6.0000    0    12.011    8.324811   -0.853589    0.065951
   8 C     6.0000    0    12.011    7.292264    0.554068    2.018416
   9 C     6.0000    0    12.011    4.725449    1.011948    2.091171
  10 C     6.0000    0    12.011   -1.603244   -0.763638   -0.616429
  11 C     6.0000    0    12.011   -1.977220   -3.051341   -1.916560
  12 C     6.0000    0    12.011   -4.365078   -3.802318   -2.520328
  13 C     6.0000    0    12.011   -6.468911   -2.287891   -1.833223
  14 C     6.0000    0    12.011   -6.122902   -0.113006   -0.530446
  15 N     7.0000    0    14.007   -3.738067    0.633436    0.095242
  16 H     1.0000    0     1.008   -5.898024    3.789090    3.863356
  17 H     1.0000    0     1.008   -3.431365    6.019345    3.471049
  18 H     1.0000    0     1.008   -5.672202    5.551448    1.028767
  19 H     1.0000    0     1.008    3.021105   -1.981189   -3.293793
  20 H     1.0000    0     1.008    7.572889   -2.840447   -3.375051
  21 H     1.0000    0     1.008   10.332645   -1.218873    0.011905
  22 H     1.0000    0     1.008    8.499610    1.293518    3.490135
  23 H     1.0000    0     1.008    3.895859    2.109879    3.595582
  24 H     1.0000    0     1.008   -0.359426   -4.194814   -2.387480
  25 H     1.0000    0     1.008   -4.685387   -5.552771   -3.513190
  26 H     1.0000    0     1.008   -8.351456   -2.884478   -2.331922
  27 H     1.0000    0     1.008   -7.650367    1.095852    0.070676

--------------------------------
INTERNAL COORDINATES (ANGSTROEM)
--------------------------------
 C      0   0   0     0.000000000000     0.00000000     0.00000000
 C      1   0   0     1.483918710712     0.00000000     0.00000000
 N      2   1   0     1.309870760800   125.41409020     0.00000000
 C      3   2   1     1.357396334900   108.09306578   180.79075047
 C      4   3   2     1.451462524490   120.78240295   179.53688809
 C      5   4   3     1.394287395052   122.29329295   206.45176150
 C      6   5   4     1.382197807841   120.38759193   180.17443566
 C      7   6   5     1.384821598618   120.39064671   359.58153455
 C      8   7   6     1.385976626787   119.63954357   359.30312191
 C      9   8   7     1.380279113078   120.20513001     0.81756277
 C      4   3   2     1.396882328616   108.96500817   359.10893680
 C     11   4   3     1.406435483767   136.74867014   184.46411861
 C     12  11   4     1.362604847342   119.75061050   178.18737383
 C     13  12  11     1.419113741037   120.18059904   359.78107897
 C     14  13  12     1.354019490259   120.28957672   358.69372019
 N      2   1   3     1.361131095817   123.54749799   180.20074730
 H      1   2   3     1.090552873546   110.86652580   240.18232450
 H      1   2   3     1.085351380890   108.50254932   359.90642043
 H      1   2   3     1.090419524770   110.86018585   119.57426001
 H      6   5   4     1.079552379461   119.94950218     2.03802958
 H      7   6   5     1.080960776347   119.68955625   180.03694347
 H      8   7   6     1.080318980672   120.11727840   179.87715109
 H      9   8   7     1.080665692987   119.91839854   180.73093975
 H     10   9   8     1.078914829817   121.03247064   180.21536137
 H     12  11   4     1.077568494343   118.99211909   359.25138845
 H     13  12  11     1.078335337453   120.69970331   180.13154070
 H     14  13  12     1.077833076130   119.79819163   179.43107316
 H     15  14  13     1.078773650957   123.56237407   181.11489043

---------------------------
INTERNAL COORDINATES (A.U.)
---------------------------
 C      0   0   0     0.000000000000     0.00000000     0.00000000
 C      1   0   0     2.804199968246     0.00000000     0.00000000
 N      2   1   0     2.475297008744   125.41409020     0.00000000
 C      3   2   1     2.565107328149   108.09306578   180.79075047
 C      4   3   2     2.742866664937   120.78240295   179.53688809
 C      5   4   3     2.634821328626   122.29329295   206.45176150
 C      6   5   4     2.611975319725   120.38759193   180.17443566
 C      7   6   5     2.616933565728   120.39064671   359.58153455
 C      8   7   6     2.619116252644   119.63954357   359.30312191
 C      9   8   7     2.608349512090   120.20513001     0.81756277
 C      4   3   2     2.639725042399   108.96500817   359.10893680
 C     11   4   3     2.657777889349   136.74867014   184.46411861
 C     12  11   4     2.574949990230   119.75061050   178.18737383
 C     13  12  11     2.681736323444   120.18059904   359.78107897
 C     14  13  12     2.558726016580   120.28957672   358.69372019
 N      2   1   3     2.572165003458   123.54749799   180.20074730
 H      1   2   3     2.060846265563   110.86652580   240.18232450
 H      1   2   3     2.051016868955   108.50254932   359.90642043
 H      1   2   3     2.060594272896   110.86018585   119.57426001
 H      6   5   4     2.040058344404   119.94950218     2.03802958
 H      7   6   5     2.042719828806   119.68955625   180.03694347
 H      8   7   6     2.041507010747   120.11727840   179.87715109
 H      9   8   7     2.042162202070   119.91839854   180.73093975
 H     10   9   8     2.038853550181   121.03247064   180.21536137
 H     12  11   4     2.036309344850   118.99211909   359.25138845
 H     13  12  11     2.037758468316   120.69970331   180.13154070
 H     14  13  12     2.036809331968   119.79819163   179.43107316
 H     15  14  13     2.038586760800   123.56237407   181.11489043

---------------------
BASIS SET INFORMATION
---------------------
There are 3 groups of distinct atoms

 Group   1 Type C   : 19s6p3d2f contracted to 5s4p3d2f pattern {88111/3111/111/11}
 Group   2 Type N   : 19s6p3d2f contracted to 5s4p3d2f pattern {88111/3111/111/11}
 Group   3 Type H   : 5s2p1d contracted to 3s2p1d pattern {311/11/1}

Atom   0C    basis set group =>   1
Atom   1C    basis set group =>   1
Atom   2N    basis set group =>   2
Atom   3C    basis set group =>   1
Atom   4C    basis set group =>   1
Atom   5C    basis set group =>   1
Atom   6C    basis set group =>   1
Atom   7C    basis set group =>   1
Atom   8C    basis set group =>   1
Atom   9C    basis set group =>   1
Atom  10C    basis set group =>   1
Atom  11C    basis set group =>   1
Atom  12C    basis set group =>   1
Atom  13C    basis set group =>   1
Atom  14C    basis set group =>   1
Atom  15N    basis set group =>   2
Atom  16H    basis set group =>   3
Atom  17H    basis set group =>   3
Atom  18H    basis set group =>   3
Atom  19H    basis set group =>   3
Atom  20H    basis set group =>   3
Atom  21H    basis set group =>   3
Atom  22H    basis set group =>   3
Atom  23H    basis set group =>   3
Atom  24H    basis set group =>   3
Atom  25H    basis set group =>   3
Atom  26H    basis set group =>   3
Atom  27H    basis set group =>   3
---------------------------------
AUXILIARY/J BASIS SET INFORMATION
---------------------------------
There are 3 groups of distinct atoms

 Group   1 Type C   : 10s7p5d2f1g contracted to 10s7p5d2f1g pattern {1111111111/1111111/11111/11/1}
 Group   2 Type N   : 10s7p5d2f1g contracted to 10s7p5d2f1g pattern {1111111111/1111111/11111/11/1}
 Group   3 Type H   : 4s3p2d1f contracted to 4s3p2d1f pattern {1111/111/11/1}

Atom   0C    basis set group =>   1
Atom   1C    basis set group =>   1
Atom   2N    basis set group =>   2
Atom   3C    basis set group =>   1
Atom   4C    basis set group =>   1
Atom   5C    basis set group =>   1
Atom   6C    basis set group =>   1
Atom   7C    basis set group =>   1
Atom   8C    basis set group =>   1
Atom   9C    basis set group =>   1
Atom  10C    basis set group =>   1
Atom  11C    basis set group =>   1
Atom  12C    basis set group =>   1
Atom  13C    basis set group =>   1
Atom  14C    basis set group =>   1
Atom  15N    basis set group =>   2
Atom  16H    basis set group =>   3
Atom  17H    basis set group =>   3
Atom  18H    basis set group =>   3
Atom  19H    basis set group =>   3
Atom  20H    basis set group =>   3
Atom  21H    basis set group =>   3
Atom  22H    basis set group =>   3
Atom  23H    basis set group =>   3
Atom  24H    basis set group =>   3
Atom  25H    basis set group =>   3
Atom  26H    basis set group =>   3
Atom  27H    basis set group =>   3
---------------------------------
AUXILIARY/C BASIS SET INFORMATION
---------------------------------
There are 3 groups of distinct atoms

 Group   1 Type C   : 9s7p6d4f2g contracted to 9s7p6d4f2g pattern {111111111/1111111/111111/1111/11}
 Group   2 Type N   : 9s7p6d4f2g contracted to 9s7p6d4f2g pattern {111111111/1111111/111111/1111/11}
 Group   3 Type H   : 4s3p2d1f contracted to 4s3p2d1f pattern {1111/111/11/1}

Atom   0C    basis set group =>   1
Atom   1C    basis set group =>   1
Atom   2N    basis set group =>   2
Atom   3C    basis set group =>   1
Atom   4C    basis set group =>   1
Atom   5C    basis set group =>   1
Atom   6C    basis set group =>   1
Atom   7C    basis set group =>   1
Atom   8C    basis set group =>   1
Atom   9C    basis set group =>   1
Atom  10C    basis set group =>   1
Atom  11C    basis set group =>   1
Atom  12C    basis set group =>   1
Atom  13C    basis set group =>   1
Atom  14C    basis set group =>   1
Atom  15N    basis set group =>   2
Atom  16H    basis set group =>   3
Atom  17H    basis set group =>   3
Atom  18H    basis set group =>   3
Atom  19H    basis set group =>   3
Atom  20H    basis set group =>   3
Atom  21H    basis set group =>   3
Atom  22H    basis set group =>   3
Atom  23H    basis set group =>   3
Atom  24H    basis set group =>   3
Atom  25H    basis set group =>   3
Atom  26H    basis set group =>   3
Atom  27H    basis set group =>   3


           ************************************************************
           *        Program running with 4 parallel MPI-processes     *
           *              working on a common directory               *
           ************************************************************
------------------------------------------------------------------------------
                           ORCA GTO INTEGRAL CALCULATION
                           -- RI-GTO INTEGRALS CHOSEN --
------------------------------------------------------------------------------
------------------------------------------------------------------------------
                   ___                                                        
                  /   \      - P O W E R E D   B Y -                         
                 /     \                                                     
                 |  |  |   _    _      __       _____    __    __             
                 |  |  |  | |  | |    /  \     |  _  \  |  |  /  |          
                  \  \/   | |  | |   /    \    | | | |  |  | /  /          
                 / \  \   | |__| |  /  /\  \   | |_| |  |  |/  /          
                |  |  |   |  __  | /  /__\  \  |    /   |      \           
                |  |  |   | |  | | |   __   |  |    \   |  |\   \          
                \     /   | |  | | |  |  |  |  | |\  \  |  | \   \       
                 \___/    |_|  |_| |__|  |__|  |_| \__\ |__|  \__/        
                                                                              
                      - O R C A' S   B I G   F R I E N D -                    
                                      &                                       
                       - I N T E G R A L  F E E D E R -                       
                                                                              
 v1 FN, 2020, v2 2021                                                         
------------------------------------------------------------------------------


Reading SHARK input file x3lyp-train-16.SHARKINP.tmp ... ok
----------------------
SHARK INTEGRAL PACKAGE
----------------------

Number of atoms                             ...     28
Number of basis functions                   ...   1000
Number of shells                            ...    392
Maximum angular momentum                    ...      3
Integral batch strategy                     ... SHARK/LIBINT Hybrid
RI-J (if used) integral strategy            ... SPLIT-RIJ (Revised 2003 algorithm where possible)
Printlevel                                  ...      1
Contraction scheme used                     ... PARTIAL GENERAL contraction
Coulomb Range Separation                    ... NOT USED
Exchange Range Separation                   ... NOT USED
Finite Nucleus Model                        ... NOT USED
Auxiliary Coulomb fitting basis             ... AVAILABLE
   # of basis functions in Aux-J            ...   1624
   # of shells in Aux-J                     ...    520
   Maximum angular momentum in Aux-J        ...      4
Auxiliary J/K fitting basis                 ... NOT available
Auxiliary Correlation fitting basis         ... AVAILABLE
   # of basis functions in Aux-C            ...   2056
   # of shells in Aux-C                     ...    568
   Maximum angular momentum in Aux-C        ...      4
Auxiliary 'external' fitting basis          ... NOT available
Integral threshold                          ...     2.500000e-11
Primitive cut-off                           ...     2.500000e-12
Primitive pair pre-selection threshold      ...     2.500000e-12

Calculating pre-screening integrals         ... done (  0.2 sec) Dimension = 392
Calculating pre-screening integrals (ORCA)  ... done (  0.4 sec) Dimension = 296
Organizing shell pair data                  ... done (  3.2 sec)
Shell pair information
Total number of shell pairs                 ...     77028
Shell pairs after pre-screening             ...     54819
Total number of primitive shell pairs       ...    100660
Primitive shell pairs kept                  ...     65058
          la=0 lb=0:  12676 shell pairs
          la=1 lb=0:  13885 shell pairs
          la=1 lb=1:   3336 shell pairs
          la=2 lb=0:   9260 shell pairs
          la=2 lb=1:   4434 shell pairs
          la=2 lb=2:   1532 shell pairs
          la=3 lb=0:   5140 shell pairs
          la=3 lb=1:   2426 shell pairs
          la=3 lb=2:   1649 shell pairs
          la=3 lb=3:    481 shell pairs

Calculating one electron integrals          ... done (  0.2 sec)
Calculating RI/J V-Matrix + Cholesky decomp.... done (  0.3 sec)
Calculating RI/C V-Matrix + Cholesky decomp.... done (  1.1 sec)
Calculating Nuclear repulsion               ... done (  0.0 sec) ENN=    995.829503392840 Eh

SHARK setup successfully completed in  11.2 seconds

Maximum memory used throughout the entire GTOINT-calculation: 83.0 MB


           ************************************************************
           *        Program running with 4 parallel MPI-processes     *
           *              working on a common directory               *
           ************************************************************
-------------------------------------------------------------------------------
                                 ORCA SCF
-------------------------------------------------------------------------------

------------
SCF SETTINGS
------------
Hamiltonian:
 Density Functional     Method          .... DFT(GTOs)
 Exchange Functional    Exchange        .... X
 Correlation Functional Correlation     .... LYP
 LDA part of GGA corr.  LDAOpt          .... VWN-5
 Gradients option       PostSCFGGA      .... off
 Hybrid DFT is turned on
   Fraction HF Exchange ScalHFX         ....  0.218000
   Scaling of DF-GGA-X  ScalDFX         ....  0.709000
   Scaling of DF-GGA-C  ScalDFC         ....  0.871000
   Scaling of DF-LDA-C  ScalLDAC        ....  1.000000
   Perturbative correction              ....  0.000000
   Density functional embedding theory  .... OFF
 RI-approximation to the Coulomb term is turned on
   Number of AuxJ basis functions       .... 1624
   RIJ-COSX (HFX calculated with COS-X)).... on


General Settings:
 Integral files         IntName         .... x3lyp-train-16
 Hartree-Fock type      HFTyp           .... RHF
 Total Charge           Charge          ....    0
 Multiplicity           Mult            ....    1
 Number of Electrons    NEL             ....  110
 Basis Dimension        Dim             ....  904
 Nuclear Repulsion      ENuc            ....    995.8295033928 Eh

Convergence Acceleration:
 DIIS                   CNVDIIS         .... on
   Start iteration      DIISMaxIt       ....    12
   Startup error        DIISStart       ....  0.200000
   # of expansion vecs  DIISMaxEq       ....     5
   Bias factor          DIISBfac        ....   1.050
   Max. coefficient     DIISMaxC        ....  10.000
 Trust-Rad. Augm. Hess. CNVTRAH         .... auto
   Auto Start mean grad. ratio tolernc. ....  1.125000
   Auto Start start iteration           ....    20
   Auto Start num. interpolation iter.  ....    10
   Max. Number of Micro iterations      ....    16
   Max. Number of Macro iterations      .... Maxiter - #DIIS iter
   Number of Davidson start vectors     ....     2
   Converg. threshold I  (grad. norm)   ....   1.000e-05
   Converg. threshold II (energy diff.) ....   1.000e-08
   Grad. Scal. Fac. for Micro threshold ....   0.100
   Minimum threshold for Micro iter.    ....   0.010
   NR start threshold (gradient norm)   ....   0.001
   Initial trust radius                 ....   0.400
   Minimum AH scaling param. (alpha)    ....   1.000
   Maximum AH scaling param. (alpha)    .... 1000.000
   Orbital update algorithm             .... Taylor
   White noise on init. David. guess    .... on
   Maximum white noise                  ....   0.010
   Quad. conv. algorithm                .... NR
 SOSCF                  CNVSOSCF        .... on
   Start iteration      SOSCFMaxIt      ....   150
   Startup grad/error   SOSCFStart      ....  0.003300
 Level Shifting         CNVShift        .... on
   Level shift para.    LevelShift      ....    0.2500
   Turn off err/grad.   ShiftErr        ....    0.0010
 Zerner damping         CNVZerner       .... off
 Static damping         CNVDamp         .... on
   Fraction old density DampFac         ....    0.7000
   Max. Damping (<1)    DampMax         ....    0.9800
   Min. Damping (>=0)   DampMin         ....    0.0000
   Turn off err/grad.   DampErr         ....    0.1000
 Fernandez-Rico         CNVRico         .... off

SCF Procedure:
 Maximum # iterations   MaxIter         ....   125
 SCF integral mode      SCFMode         .... Direct
   Integral package                     .... SHARK and LIBINT hybrid scheme
 Reset frequency        DirectResetFreq ....    20
 Integral Threshold     Thresh          ....  2.500e-11 Eh
 Primitive CutOff       TCut            ....  2.500e-12 Eh

Convergence Tolerance:
 Convergence Check Mode ConvCheckMode   .... Total+1el-Energy
 Convergence forced     ConvForced      .... 0
 Energy Change          TolE            ....  1.000e-08 Eh
 1-El. energy change                    ....  1.000e-05 Eh
 Orbital Gradient       TolG            ....  1.000e-05
 Orbital Rotation angle TolX            ....  1.000e-05
 DIIS Error             TolErr          ....  5.000e-07


Diagonalization of the overlap matrix:
Smallest eigenvalue                        ... 7.622e-07
Time for diagonalization                   ...    0.273 sec
Threshold for overlap eigenvalues          ... 1.000e-08
Number of eigenvalues below threshold      ... 0
Time for construction of square roots      ...    0.178 sec
Total time needed                          ...    0.457 sec

Time for model grid setup =    0.513 sec

------------------------------
INITIAL GUESS: MODEL POTENTIAL
------------------------------
Loading Hartree-Fock densities                     ... done
Calculating cut-offs                               ... done
Initializing the effective Hamiltonian             ... done
Setting up the integral package (SHARK)            ... done
Starting the Coulomb interaction                   ... done (   1.9 sec)
Reading the grid                                   ... done
Mapping shells                                     ... done
Starting the XC term evaluation                    ... done (   1.8 sec)
  promolecular density results
     # of electrons  =    109.995033999
     EX              =    -89.359840546
     EC              =     -3.717506457
     EX+EC           =    -93.077347003
Transforming the Hamiltonian                       ... done (   0.1 sec)
Diagonalizing the Hamiltonian                      ... done (   0.2 sec)
Back transforming the eigenvectors                 ... done (   0.0 sec)
Now organizing SCF variables                       ... done
                      ------------------
                      INITIAL GUESS DONE (   4.7 sec)
                      ------------------
-------------------
DFT GRID GENERATION
-------------------

General Integration Accuracy     IntAcc      ... 4.388
Radial Grid Type                 RadialGrid  ... OptM3 with GC (2021)
Angular Grid (max. ang.)         AngularGrid ... 4 (Lebedev-302)
Angular grid pruning method      GridPruning ... 4 (adaptive)
Weight generation scheme         WeightScheme... Becke
Basis function cutoff            BFCut       ... 1.0000e-11
Integration weight cutoff        WCut        ... 1.0000e-14
Angular grids for H and He will be reduced by one unit
Partially contracted basis set               ... off
Rotationally invariant grid construction     ... off

Total number of grid points                  ...   138123
Total number of batches                      ...     2171
Average number of points per batch           ...       63
Average number of grid points per atom       ...     4933
Time for grid setup =    2.136 sec

--------------------
COSX GRID GENERATION
--------------------

GRIDX 1
-------
General Integration Accuracy     IntAcc      ... 3.816
Radial Grid Type                 RadialGrid  ... OptM3 with GC (2021)
Angular Grid (max. ang.)         AngularGrid ... 1 (Lebedev-50)
Angular grid pruning method      GridPruning ... 4 (adaptive)
Weight generation scheme         WeightScheme... Becke
Basis function cutoff            BFCut       ... 1.0000e-11
Integration weight cutoff        WCut        ... 1.0000e-14
Angular grids for H and He will be reduced by one unit
Partially contracted basis set               ... on
Rotationally invariant grid construction     ... off

Total number of grid points                  ...    17610
Total number of batches                      ...      292
Average number of points per batch           ...       60
Average number of grid points per atom       ...      629
UseSFitting                                  ... on

GRIDX 2
-------
General Integration Accuracy     IntAcc      ... 4.020
Radial Grid Type                 RadialGrid  ... OptM3 with GC (2021)
Angular Grid (max. ang.)         AngularGrid ... 2 (Lebedev-110)
Angular grid pruning method      GridPruning ... 4 (adaptive)
Weight generation scheme         WeightScheme... Becke
Basis function cutoff            BFCut       ... 1.0000e-11
Integration weight cutoff        WCut        ... 1.0000e-14
Angular grids for H and He will be reduced by one unit
Partially contracted basis set               ... on
Rotationally invariant grid construction     ... off

Total number of grid points                  ...    41694
Total number of batches                      ...      665
Average number of points per batch           ...       62
Average number of grid points per atom       ...     1489
UseSFitting                                  ... on

GRIDX 3
-------
General Integration Accuracy     IntAcc      ... 4.338
Radial Grid Type                 RadialGrid  ... OptM3 with GC (2021)
Angular Grid (max. ang.)         AngularGrid ... 3 (Lebedev-194)
Angular grid pruning method      GridPruning ... 4 (adaptive)
Weight generation scheme         WeightScheme... Becke
Basis function cutoff            BFCut       ... 1.0000e-11
Integration weight cutoff        WCut        ... 1.0000e-14
Angular grids for H and He will be reduced by one unit
Partially contracted basis set               ... on
Rotationally invariant grid construction     ... off

Total number of grid points                  ...    89873
Total number of batches                      ...     1418
Average number of points per batch           ...       63
Average number of grid points per atom       ...     3210
UseSFitting                                  ... on

Time for X-Grid setup             =    4.652 sec


--------------------
CPCM SOLVATION MODEL
--------------------
CPCM parameters:
  Epsilon                                         ...       8.9300
  Refrac                                          ...       1.4242
  Rsolv                                           ...       1.3000
  Surface type                                    ... GAUSSIAN VDW
  Epsilon function type                           ...         CPCM
Solvent:                                     ... DICHLOROMETHANE
SMD-CDS solvent descriptors:
  Soln                                       ...    1.4242
  Soln25                                     ...    1.4212
  Sola                                       ...    0.1000
  Solb                                       ...    0.0500
  Solg                                       ...   39.1500
  Solc                                       ...    0.0000
  Solh                                       ...    0.6670
Radii:
 Radius for C  used is    3.4960 Bohr (=   1.8500 Ang.)
 Radius for N  used is    3.5716 Bohr (=   1.8900 Ang.)
 Radius for H  used is    2.2677 Bohr (=   1.2000 Ang.)
Calculating surface                               ...        done! (  0.0s)
GEPOL surface points                              ...         1639
GEPOL Volume                                      ...    1486.1740
GEPOL Surface-area                                ...     847.8508
Calculating surface distance matrix               ...        done! (  0.1s)
Performing Cholesky decomposition & store         ...        done! (  2.8s)
Overall time for CPCM initialization              ...                 2.9s
 re-compute Schwartz prescreening matrix in partically contracted basis (1) ...done (   0.221 sec)
--------------
SCF ITERATIONS
--------------
ITER       Energy         Delta-E        Max-DP      RMS-DP      [F,P]     Damp
               ***  Starting incremental Fock matrix formation  ***
  0   -649.4852635360   0.000000000000 0.10546969  0.00107016  0.2333521 0.7000
  1   -649.6614403920  -0.176176856002 0.07909513  0.00081454  0.1094531 0.7000
                               ***Turning on DIIS***
  2   -649.7407274309  -0.079287038954 0.27414311  0.00173215  0.0439778 0.0000
  3   -649.8562530524  -0.115525621474 0.09378854  0.00048447  0.0539609 0.0000
  4   -649.8838233599  -0.027570307454 0.02658766  0.00019224  0.0098246 0.0000
  5   -649.8850994923  -0.001276132439 0.01561511  0.00007505  0.0065657 0.0000
                      *** Initiating the SOSCF procedure ***
                           *** Shutting down DIIS ***
                      *** Re-Reading the Fockian *** 
                      *** Removing any level shift *** 
ITER      Energy       Delta-E        Grad      Rot      Max-DP    RMS-DP
  6   -649.88523698  -0.0001374845  0.000285  0.000285  0.020694  0.000057
               *** Restarting incremental Fock matrix formation ***
  7   -649.88525804  -0.0000210649  0.000213  0.001058  0.019132  0.000258
  8   -649.88525245   0.0000055868  0.000369  0.000677  0.003213  0.000016
  9   -649.88526192  -0.0000094627  0.000030  0.000138  0.006394  0.000024
 10   -649.88526179   0.0000001235  0.000049  0.000130  0.014578  0.000025
 11   -649.88526204  -0.0000002476  0.000005  0.000026  0.008722  0.000025
 12   -649.88526206  -0.0000000149  0.000009  0.000013  0.004954  0.000016
                  ***Gradient check signals convergence***
              ***Rediagonalizing the Fockian in SOSCF/NRSCF***

               *****************************************************
               *                     SUCCESS                       *
               *           SCF CONVERGED AFTER  13 CYCLES          *
               *****************************************************

Old exchange energy                            =    -19.665804844 Eh
New exchange energy                            =    -19.665803789 Eh
Exchange energy change after final integration =      0.000001055 Eh
Total energy after final integration           =   -649.885260982 Eh
Final COS-X integration done in                =   122.055 sec

SMD CDS free energy correction energy :                -6.98495     Kcal/mol
Total Energy after SMD CDS correction =              -649.896392213 Eh

----------------
TOTAL SCF ENERGY
----------------

Total Energy       :         -649.89639221 Eh          -17684.57990 eV

Components:
Nuclear Repulsion  :          995.82950339 Eh           27097.89842 eV
Electronic Energy  :        -1645.72589561 Eh          -44782.47832 eV
One Electron Energy:        -2854.75171285 Eh          -77681.74337 eV
Two Electron Energy:         1209.02581724 Eh           32899.26505 eV
Max COSX asymmetry :            0.00002863 Eh               0.00078 eV
CPCM Dielectric    :           -0.01780774 Eh              -0.48457 eV
SMD CDS (Gcds)     :           -0.01113123 Eh              -0.30290 eV

Virial components:
Potential Energy   :        -1296.53769081 Eh          -35280.58420 eV
Kinetic Energy     :          646.64129859 Eh           17596.00430 eV
Virial Ratio       :            2.00503385


DFT components:
N(Alpha)           :       55.000058319824 electrons
N(Beta)            :       55.000058319824 electrons
N(Total)           :      110.000116639649 electrons
E(X)               :      -70.084155226373 Eh       
E(C)               :       -4.180001816930 Eh       
E(XC)              :      -74.264157043303 Eh       
DFET-embed. en.    :        0.000000000000 Eh       
CPCM Solvation Model Properties:
Surface-charge          :           -0.06329728
Charge-correction       :            0.00000178 Eh               0.00005 eV
Free-energy (cav+disp)  :           -0.01113123 Eh              -0.30290 eV

---------------
SCF CONVERGENCE
---------------

  Last Energy change         ...    1.9649e-08  Tolerance :   1.0000e-08
  Last MAX-Density change    ...    3.3307e-15  Tolerance :   1.0000e-07
  Last RMS-Density change    ...    1.4474e-17  Tolerance :   5.0000e-09
  Last Orbital Gradient      ...    1.6936e-06  Tolerance :   1.0000e-05
  Last Orbital Rotation      ...    2.4438e-06  Tolerance :   1.0000e-05

             **** THE GBW FILE WAS UPDATED (x3lyp-train-16.gbw) ****
             **** DENSITY x3lyp-train-16.scfp WAS UPDATED ****
             **** ENERGY FILE WAS UPDATED (x3lyp-train-16.en.tmp) ****
             **** THE GBW FILE WAS UPDATED (x3lyp-train-16.gbw) ****
             **** DENSITY x3lyp-train-16.scfp WAS UPDATED ****
----------------
ORBITAL ENERGIES
----------------

  NO   OCC          E(Eh)            E(eV) 
   0   2.0000     -14.418404      -392.3447 
   1   2.0000     -14.329891      -389.9362 
   2   2.0000     -10.251455      -278.9563 
   3   2.0000     -10.242659      -278.7169 
   4   2.0000     -10.234342      -278.4906 
   5   2.0000     -10.213347      -277.9193 
   6   2.0000     -10.207861      -277.7700 
   7   2.0000     -10.203849      -277.6609 
   8   2.0000     -10.203473      -277.6506 
   9   2.0000     -10.202294      -277.6185 
  10   2.0000     -10.191405      -277.3222 
  11   2.0000     -10.190866      -277.3076 
  12   2.0000     -10.190819      -277.3063 
  13   2.0000     -10.190266      -277.2912 
  14   2.0000     -10.188494      -277.2430 
  15   2.0000     -10.187522      -277.2166 
  16   2.0000      -1.047090       -28.4928 
  17   2.0000      -0.925286       -25.1783 
  18   2.0000      -0.865520       -23.5520 
  19   2.0000      -0.832414       -22.6511 
  20   2.0000      -0.793623       -21.5956 
  21   2.0000      -0.770217       -20.9587 
  22   2.0000      -0.751354       -20.4454 
  23   2.0000      -0.747079       -20.3290 
  24   2.0000      -0.687055       -18.6957 
  25   2.0000      -0.658972       -17.9315 
  26   2.0000      -0.637901       -17.3582 
  27   2.0000      -0.613018       -16.6811 
  28   2.0000      -0.591601       -16.0983 
  29   2.0000      -0.582444       -15.8491 
  30   2.0000      -0.529000       -14.3948 
  31   2.0000      -0.510622       -13.8947 
  32   2.0000      -0.498745       -13.5716 
  33   2.0000      -0.485168       -13.2021 
  34   2.0000      -0.480293       -13.0694 
  35   2.0000      -0.463282       -12.6066 
  36   2.0000      -0.457246       -12.4423 
  37   2.0000      -0.445675       -12.1274 
  38   2.0000      -0.428342       -11.6558 
  39   2.0000      -0.419146       -11.4055 
  40   2.0000      -0.411171       -11.1885 
  41   2.0000      -0.408613       -11.1189 
  42   2.0000      -0.397170       -10.8075 
  43   2.0000      -0.387426       -10.5424 
  44   2.0000      -0.379516       -10.3272 
  45   2.0000      -0.367017        -9.9870 
  46   2.0000      -0.352561        -9.5937 
  47   2.0000      -0.345931        -9.4133 
  48   2.0000      -0.339493        -9.2381 
  49   2.0000      -0.319343        -8.6898 
  50   2.0000      -0.287473        -7.8225 
  51   2.0000      -0.269074        -7.3219 
  52   2.0000      -0.261958        -7.1282 
  53   2.0000      -0.256566        -6.9815 
  54   2.0000      -0.187051        -5.0899 
  55   0.0000      -0.041836        -1.1384 
  56   0.0000      -0.016480        -0.4484 
  57   0.0000      -0.007473        -0.2033 
  58   0.0000      -0.000798        -0.0217 
  59   0.0000       0.007256         0.1975 
  60   0.0000       0.011196         0.3047 
  61   0.0000       0.012799         0.3483 
  62   0.0000       0.023943         0.6515 
  63   0.0000       0.024901         0.6776 
  64   0.0000       0.029270         0.7965 
  65   0.0000       0.033845         0.9210 
  66   0.0000       0.041109         1.1186 
  67   0.0000       0.042951         1.1688 
  68   0.0000       0.044260         1.2044 
  69   0.0000       0.047575         1.2946 
  70   0.0000       0.056272         1.5312 
  71   0.0000       0.063254         1.7212 
  72   0.0000       0.064109         1.7445 
  73   0.0000       0.068335         1.8595 
  74   0.0000       0.071586         1.9480 
  75   0.0000       0.073520         2.0006 
  76   0.0000       0.076165         2.0725 
  77   0.0000       0.085853         2.3362 
  78   0.0000       0.087190         2.3726 
  79   0.0000       0.094089         2.5603 
  80   0.0000       0.096119         2.6155 
  81   0.0000       0.104063         2.8317 
  82   0.0000       0.107248         2.9184 
  83   0.0000       0.109511         2.9799 
  84   0.0000       0.112334         3.0568 
  85   0.0000       0.115117         3.1325 
  86   0.0000       0.116655         3.1743 
  87   0.0000       0.122659         3.3377 
  88   0.0000       0.125436         3.4133 
  89   0.0000       0.127207         3.4615 
  90   0.0000       0.130812         3.5596 
  91   0.0000       0.132186         3.5970 
  92   0.0000       0.135254         3.6804 
  93   0.0000       0.140678         3.8281 
  94   0.0000       0.141741         3.8570 
  95   0.0000       0.143837         3.9140 
  96   0.0000       0.145456         3.9580 
  97   0.0000       0.148412         4.0385 
  98   0.0000       0.150438         4.0936 
  99   0.0000       0.153492         4.1767 
 100   0.0000       0.156169         4.2496 
 101   0.0000       0.159513         4.3406 
 102   0.0000       0.162293         4.4162 
 103   0.0000       0.164008         4.4629 
 104   0.0000       0.165631         4.5071 
 105   0.0000       0.167310         4.5527 
 106   0.0000       0.170272         4.6333 
 107   0.0000       0.173838         4.7304 
 108   0.0000       0.178600         4.8600 
 109   0.0000       0.180185         4.9031 
 110   0.0000       0.183150         4.9838 
 111   0.0000       0.185056         5.0356 
 112   0.0000       0.190576         5.1858 
 113   0.0000       0.195450         5.3185 
 114   0.0000       0.197335         5.3698 
 115   0.0000       0.199668         5.4333 
 116   0.0000       0.201999         5.4967 
 117   0.0000       0.205635         5.5956 
 118   0.0000       0.207061         5.6344 
 119   0.0000       0.209369         5.6972 
 120   0.0000       0.216828         5.9002 
 121   0.0000       0.218612         5.9487 
 122   0.0000       0.219950         5.9851 
 123   0.0000       0.222144         6.0448 
 124   0.0000       0.225571         6.1381 
 125   0.0000       0.227976         6.2035 
 126   0.0000       0.233170         6.3449 
 127   0.0000       0.237481         6.4622 
 128   0.0000       0.241299         6.5661 
 129   0.0000       0.245491         6.6801 
 130   0.0000       0.249562         6.7909 
 131   0.0000       0.252193         6.8625 
 132   0.0000       0.257644         7.0109 
 133   0.0000       0.260723         7.0946 
 134   0.0000       0.262513         7.1433 
 135   0.0000       0.266657         7.2561 
 136   0.0000       0.269263         7.3270 
 137   0.0000       0.274789         7.4774 
 138   0.0000       0.277200         7.5430 
 139   0.0000       0.280175         7.6239 
 140   0.0000       0.284920         7.7531 
 141   0.0000       0.287734         7.8296 
 142   0.0000       0.290300         7.8995 
 143   0.0000       0.294485         8.0133 
 144   0.0000       0.299114         8.1393 
 145   0.0000       0.300843         8.1864 
 146   0.0000       0.306186         8.3317 
 147   0.0000       0.310517         8.4496 
 148   0.0000       0.313735         8.5372 
 149   0.0000       0.319211         8.6862 
 150   0.0000       0.320211         8.7134 
 151   0.0000       0.326367         8.8809 
 152   0.0000       0.328487         8.9386 
 153   0.0000       0.335934         9.1412 
 154   0.0000       0.338200         9.2029 
 155   0.0000       0.340802         9.2737 
 156   0.0000       0.346546         9.4300 
 157   0.0000       0.348791         9.4911 
 158   0.0000       0.353435         9.6174 
 159   0.0000       0.357279         9.7221 
 160   0.0000       0.359539         9.7835 
 161   0.0000       0.362216         9.8564 
 162   0.0000       0.366011         9.9597 
 163   0.0000       0.370131        10.0718 
 164   0.0000       0.375626        10.2213 
 165   0.0000       0.381330        10.3765 
 166   0.0000       0.385771        10.4974 
 167   0.0000       0.390651        10.6302 
 168   0.0000       0.392976        10.6934 
 169   0.0000       0.394312        10.7298 
 170   0.0000       0.398521        10.8443 
 171   0.0000       0.400898        10.9090 
 172   0.0000       0.406186        11.0529 
 173   0.0000       0.408504        11.1160 
 174   0.0000       0.410510        11.1705 
 175   0.0000       0.414057        11.2671 
 176   0.0000       0.416643        11.3374 
 177   0.0000       0.419837        11.4243 
 178   0.0000       0.420438        11.4407 
 179   0.0000       0.424613        11.5543 
 180   0.0000       0.428990        11.6734 
 181   0.0000       0.432282        11.7630 
 182   0.0000       0.434260        11.8168 
 183   0.0000       0.436136        11.8679 
 184   0.0000       0.440432        11.9848 
 185   0.0000       0.444370        12.0919 
 186   0.0000       0.446210        12.1420 
 187   0.0000       0.449694        12.2368 
 188   0.0000       0.460003        12.5173 
 189   0.0000       0.460527        12.5316 
 190   0.0000       0.466381        12.6909 
 191   0.0000       0.470079        12.7915 
 192   0.0000       0.473023        12.8716 
 193   0.0000       0.476882        12.9766 
 194   0.0000       0.479038        13.0353 
 195   0.0000       0.481014        13.0891 
 196   0.0000       0.486048        13.2260 
 197   0.0000       0.490294        13.3416 
 198   0.0000       0.492202        13.3935 
 199   0.0000       0.500389        13.6163 
 200   0.0000       0.503517        13.7014 
 201   0.0000       0.505971        13.7682 
 202   0.0000       0.509728        13.8704 
 203   0.0000       0.511346        13.9144 
 204   0.0000       0.512024        13.9329 
 205   0.0000       0.517168        14.0729 
 206   0.0000       0.522556        14.2195 
 207   0.0000       0.527948        14.3662 
 208   0.0000       0.531858        14.4726 
 209   0.0000       0.539272        14.6743 
 210   0.0000       0.541147        14.7253 
 211   0.0000       0.544386        14.8135 
 212   0.0000       0.554221        15.0811 
 213   0.0000       0.562599        15.3091 
 214   0.0000       0.565740        15.3946 
 215   0.0000       0.573826        15.6146 
 216   0.0000       0.575824        15.6690 
 217   0.0000       0.579673        15.7737 
 218   0.0000       0.585023        15.9193 
 219   0.0000       0.591535        16.0965 
 220   0.0000       0.598719        16.2920 
 221   0.0000       0.604977        16.4623 
 222   0.0000       0.612281        16.6610 
 223   0.0000       0.616794        16.7838 
 224   0.0000       0.624144        16.9838 
 225   0.0000       0.625254        17.0140 
 226   0.0000       0.635661        17.2972 
 227   0.0000       0.636447        17.3186 
 228   0.0000       0.644440        17.5361 
 229   0.0000       0.646560        17.5938 
 230   0.0000       0.649850        17.6833 
 231   0.0000       0.654835        17.8190 
 232   0.0000       0.657476        17.8908 
 233   0.0000       0.665460        18.1081 
 234   0.0000       0.667821        18.1723 
 235   0.0000       0.669348        18.2139 
 236   0.0000       0.677572        18.4377 
 237   0.0000       0.679018        18.4770 
 238   0.0000       0.682068        18.5600 
 239   0.0000       0.684881        18.6366 
 240   0.0000       0.688967        18.7478 
 241   0.0000       0.698750        19.0139 
 242   0.0000       0.700163        19.0524 
 243   0.0000       0.704833        19.1795 
 244   0.0000       0.707278        19.2460 
 245   0.0000       0.711865        19.3708 
 246   0.0000       0.716697        19.5023 
 247   0.0000       0.723379        19.6841 
 248   0.0000       0.725460        19.7408 
 249   0.0000       0.728095        19.8125 
 250   0.0000       0.731734        19.9115 
 251   0.0000       0.735317        20.0090 
[...]
B(  5-C ,  6-C ) :   1.1616 B(  5-C ,  9-C ) :  -0.1266 B(  5-C , 19-H ) :   1.1963 
B(  6-C ,  7-C ) :   1.2350 B(  6-C , 20-H ) :   0.9619 B(  7-C ,  8-C ) :   1.2126 
B(  7-C , 21-H ) :   0.9426 B(  8-C ,  9-C ) :   1.2197 B(  8-C , 22-H ) :   0.9467 
B(  9-C , 23-H ) :   1.1415 B( 10-C , 11-C ) :   0.8431 B( 10-C , 12-C ) :   0.2040 
B( 10-C , 14-C ) :   0.3090 B( 10-C , 15-N ) :   0.5538 B( 10-C , 24-H ) :  -0.1328 
B( 11-C , 12-C ) :   1.3548 B( 11-C , 14-C ) :  -0.1347 B( 11-C , 15-N ) :  -0.1225 
B( 11-C , 24-H ) :   1.2089 B( 12-C , 13-C ) :   1.1644 B( 12-C , 14-C ) :   0.2072 
B( 12-C , 15-N ) :  -0.1638 B( 12-C , 25-H ) :   0.9034 B( 13-C , 14-C ) :   1.2223 
B( 13-C , 15-N ) :  -0.2123 B( 13-C , 26-H ) :   1.0160 B( 14-C , 15-N ) :   1.1090 
B( 14-C , 27-H ) :   0.8979 

-------
TIMINGS
-------

Total SCF time: 0 days 0 hours 4 min 43 sec 

Total time                  ....     283.594 sec
Sum of individual times     ....     279.815 sec  ( 98.7%)

Fock matrix formation       ....     269.169 sec  ( 94.9%)
  Split-RI-J                ....      14.180 sec  (  5.3% of F)
  Chain of spheres X        ....     234.071 sec  ( 87.0% of F)
  XC integration            ....      12.171 sec  (  4.5% of F)
    Basis function eval.    ....       1.953 sec  ( 16.0% of XC)
    Density eval.           ....       4.649 sec  ( 38.2% of XC)
    XC-Functional eval.     ....       0.166 sec  (  1.4% of XC)
    XC-Potential eval.      ....       4.708 sec  ( 38.7% of XC)
Diagonalization             ....       0.455 sec  (  0.2%)
Density matrix formation    ....       0.049 sec  (  0.0%)
Population analysis         ....       1.926 sec  (  0.7%)
Initial guess               ....       0.641 sec  (  0.2%)
Orbital Transformation      ....       0.000 sec  (  0.0%)
Orbital Orthonormalization  ....       0.565 sec  (  0.2%)
DIIS solution               ....       0.159 sec  (  0.1%)
SOSCF solution              ....       0.350 sec  (  0.1%)
Grid generation             ....       7.066 sec  (  2.5%)

Maximum memory used throughout the entire SCF-calculation: 224.2 MB


           ************************************************************
           *        Program running with 4 parallel MPI-processes     *
           *              working on a common directory               *
           ************************************************************
------------------------------------------------------------------------------
                        ORCA TD-DFT/TDA CALCULATION
------------------------------------------------------------------------------

Input orbitals are from        ... x3lyp-train-16_job2.gbw
CI-vector output               ... x3lyp-train-16_job2.cis
Tamm-Dancoff approximation     ... operative
CIS-Integral strategy          ... AO-integrals
Integral handling              ... AO integral Direct
Max. core memory used          ... 4000 MB
Reference state                ... RHF
Generation of triplets         ... off
Follow IRoot                   ... off
Number of operators            ... 1
Orbital ranges used for CIS calculation:
 Operator 0:  Orbitals  16... 54  to  55...903
XAS localization array:
 Operator 0:  Orbitals  -1... -1

-------------------
XC-INTEGRATION GRID
-------------------

General Integration Accuracy     IntAcc      ... 3.467
Radial Grid Type                 RadialGrid  ... OptM3 with GC (2021)
Angular Grid (max. ang.)         AngularGrid ... 1 (Lebedev-50)
Angular grid pruning method      GridPruning ... 4 (adaptive)
Weight generation scheme         WeightScheme... Becke
Basis function cutoff            BFCut       ... 1.0000e-11
Integration weight cutoff        WCut        ... 1.0000e-14
Angular grids for H and He will be reduced by one unit
Partially contracted basis set               ... off
Rotationally invariant grid construction     ... off

Total number of grid points                  ...    20521
Total number of batches                      ...      333
Average number of points per batch           ...       61
Average number of grid points per atom       ...      733

---------------------
COSX-INTEGRATION GRID
---------------------

General Integration Accuracy     IntAcc      ... 3.067
Radial Grid Type                 RadialGrid  ... OptM3 with GC (2021)
Angular Grid (max. ang.)         AngularGrid ... 1 (Lebedev-50)
Angular grid pruning method      GridPruning ... 4 (adaptive)
Weight generation scheme         WeightScheme... Becke
Basis function cutoff            BFCut       ... 1.0000e-11
Integration weight cutoff        WCut        ... 1.0000e-14
Angular grids for H and He will be reduced by one unit
Partially contracted basis set               ... on
Rotationally invariant grid construction     ... off

Total number of grid points                  ...     9338
Total number of batches                      ...      161
Average number of points per batch           ...       58
Average number of grid points per atom       ...      334

---------------
TD-DFT XC SETUP
---------------

DFT calculation                         ... on
Name of the grid file                   ... x3lyp-train-16_job2.grid_cis.tmp
Exchange functional (TD-DFT)            ... X
Correlation functional (TD-DFT)         ... LYP
 LDA part of GGA corr.  LDAOpt (TD-DFT) ... VWN-5
Hybrid DFT                              ... on
   Exchange mixing (TD-DFT)             ...  0.218
   GGA exch. scaling (TD-DFT)           ...  0.709
   GGA corr. scaling (TD-DFT)           ...  0.871

Building densities             ... done
Calculating rho(r) on the grid ... done
Building xc-kernel on the grid ... done
                    *** TD-DFT CALCULATION INITIALIZED ***

---------------------------------
    LR-CPCM (non-equilibrium)
---------------------------------

Setting up LR-CPCM             ... done

------------------------
DAVIDSON-DIAGONALIZATION
------------------------

Dimension of the eigenvalue problem            ...  33111
Number of roots to be determined               ...     10
Maximum size of the expansion space            ...     70
Maximum number of iterations                   ...    100
Convergence tolerance for the residual         ...    1.000e-06
Convergence tolerance for the energies         ...    1.000e-06
Orthogonality tolerance                        ...    1.000e-14
Level Shift                                    ...    0.000e+00
Constructing the preconditioner                ... o.k.
Building the initial guess                     ... o.k.
Number of trial vectors determined             ...     70


                       ****Iteration    0****

   Memory handling for direct AO based CIS:
   Memory per vector needed      ...    37 MB
   Memory needed                 ...  1122 MB
   Memory available              ...  4000 MB
   Number of vectors per batch   ...   106
   Number of batches             ...     1
   Time for densities:            0.521
   Time for RI-J (Direct):       17.191
   Time for K (COSX):            91.462
   Time for XC-Integration:      44.047
   Time for LR-CPCM terms:       23.452
   Time for Sigma-Completion:     0.373
   Size of expansion space: 30
   Lowest Energy          :     0.136809725243
   Maximum Energy change  :     0.192471220055 (vector 9)
   Maximum residual norm  :     0.010596948851

                       ****Iteration    1****
   Time for densities:            0.163
   Time for RI-J (Direct):       11.459
   Time for K (COSX):            34.742
   Time for XC-Integration:      17.112
   Time for LR-CPCM terms:       10.663
   Time for Sigma-Completion:     0.581
   Size of expansion space: 40
   Lowest Energy          :     0.125109312834
   Maximum Energy change  :     0.011700412409 (vector 0)
   Maximum residual norm  :     0.000346402803

                       ****Iteration    2****
   Time for densities:            0.190
   Time for RI-J (Direct):       10.457
   Time for K (COSX):            31.202
   Time for XC-Integration:      14.752
   Time for LR-CPCM terms:        8.831
   Time for Sigma-Completion:     0.952
   Size of expansion space: 50
   Lowest Energy          :     0.124817837649
   Maximum Energy change  :     0.000398155022 (vector 1)
   Maximum residual norm  :     0.000027906560

                       ****Iteration    3****
   Time for densities:            0.194
   Time for RI-J (Direct):        9.296
   Time for K (COSX):            34.896
   Time for XC-Integration:      15.729
   Time for LR-CPCM terms:        8.954
   Time for Sigma-Completion:     0.396
   Size of expansion space: 60
   Lowest Energy          :     0.124791186458
   Maximum Energy change  :     0.000038107422 (vector 1)
   Maximum residual norm  :     0.000000958808

      *** CONVERGENCE OF RESIDUAL NORM REACHED ***

Storing the converged CI vectors               ... x3lyp-train-16_job2.cis1

                 *** DAVIDSON DONE ***

Total time for solving the CIS problem:   389.331sec

------------------------------------
TD-DFT/TDA EXCITED STATES (SINGLETS)
------------------------------------

the weight of the individual excitations are printed if larger than 1.0e-02

STATE  1:  E=   0.124791 au      3.396 eV    27388.5 cm**-1 <S**2> =   0.000000
    54a ->  55a  :     0.922110 (c= -0.96026544)
    54a ->  56a  :     0.041629 (c=  0.20403293)

STATE  2:  E=   0.149681 au      4.073 eV    32851.2 cm**-1 <S**2> =   0.000000
    51a ->  55a  :     0.023550 (c= -0.15346002)
    54a ->  55a  :     0.042275 (c=  0.20560812)
    54a ->  56a  :     0.888078 (c=  0.94237884)
    54a ->  57a  :     0.016823 (c= -0.12970239)

STATE  3:  E=   0.153906 au      4.188 eV    33778.5 cm**-1 <S**2> =   0.000000
    53a ->  55a  :     0.018546 (c= -0.13618410)
    53a ->  56a  :     0.017885 (c= -0.13373620)
    54a ->  56a  :     0.017047 (c=  0.13056492)
    54a ->  57a  :     0.913812 (c=  0.95593514)
    54a ->  58a  :     0.015034 (c= -0.12261429)

STATE  4:  E=   0.161035 au      4.382 eV    35343.0 cm**-1 <S**2> =   0.000000
    54a ->  57a  :     0.012625 (c= -0.11236208)
    54a ->  58a  :     0.947099 (c= -0.97318996)
    54a ->  65a  :     0.010349 (c=  0.10172763)

STATE  5:  E=   0.173685 au      4.726 eV    38119.3 cm**-1 <S**2> =   0.000000
    54a ->  59a  :     0.939749 (c=  0.96940669)
    54a ->  61a  :     0.020716 (c= -0.14392985)

STATE  6:  E=   0.176384 au      4.800 eV    38711.8 cm**-1 <S**2> =   0.000000
    51a ->  55a  :     0.063015 (c=  0.25102753)
    52a ->  55a  :     0.043162 (c=  0.20775561)
    54a ->  59a  :     0.014025 (c= -0.11842858)
    54a ->  60a  :     0.637408 (c= -0.79837812)
    54a ->  61a  :     0.216046 (c= -0.46480777)

STATE  7:  E=   0.178368 au      4.854 eV    39147.3 cm**-1 <S**2> =   0.000000
    51a ->  55a  :     0.050452 (c=  0.22461604)
    52a ->  55a  :     0.038611 (c=  0.19649610)
    54a ->  60a  :     0.147656 (c= -0.38426072)
    54a ->  61a  :     0.727895 (c=  0.85316772)

STATE  8:  E=   0.188500 au      5.129 eV    41370.9 cm**-1 <S**2> =   0.000000
    52a ->  57a  :     0.028415 (c=  0.16856672)
    53a ->  55a  :     0.328673 (c=  0.57330040)
    54a ->  58a  :     0.018415 (c=  0.13570148)
    54a ->  62a  :     0.437598 (c= -0.66151204)
    54a ->  63a  :     0.042613 (c=  0.20642959)
    54a ->  64a  :     0.035440 (c= -0.18825412)
    54a ->  65a  :     0.049492 (c=  0.22246794)

STATE  9:  E=   0.189140 au      5.147 eV    41511.3 cm**-1 <S**2> =   0.000000
    53a ->  55a  :     0.022560 (c=  0.15019891)
    54a ->  62a  :     0.087447 (c=  0.29571459)
    54a ->  63a  :     0.604956 (c=  0.77778886)
    54a ->  64a  :     0.242921 (c=  0.49286996)

STATE 10:  E=   0.189879 au      5.167 eV    41673.6 cm**-1 <S**2> =   0.000000
    52a ->  57a  :     0.035078 (c= -0.18729167)
    53a ->  55a  :     0.512424 (c= -0.71583783)
    54a ->  57a  :     0.018863 (c= -0.13734243)
    54a ->  62a  :     0.276988 (c= -0.52629624)
    54a ->  63a  :     0.113826 (c=  0.33738134)
    54a ->  65a  :     0.010184 (c=  0.10091504)


-----------------------------
TD-DFT/TDA-EXCITATION SPECTRA
-----------------------------

Center of mass = (  0.1095, -0.0273, -0.0159)
Calculating the Dipole integrals                  ... done
Transforming integrals                            ... done
Calculating the Linear Momentum integrals         ... done
Transforming integrals                            ... done
Calculating angular momentum integrals            ... done
Transforming integrals                            ... done

-----------------------------------------------------------------------------
         ABSORPTION SPECTRUM VIA TRANSITION ELECTRIC DIPOLE MOMENTS
-----------------------------------------------------------------------------
State   Energy    Wavelength  fosc         T2        TX        TY        TZ  
        (cm-1)      (nm)                 (au**2)    (au)      (au)      (au) 
-----------------------------------------------------------------------------
   1   27388.5    365.1   0.311460767   3.74378   1.93067  -0.00620   0.12752
   2   32851.2    304.4   0.442364851   4.43307  -2.03895  -0.40206  -0.33777
   3   33778.5    296.0   0.045831172   0.44668  -0.60376  -0.15619  -0.24032
   4   35343.0    282.9   0.005720618   0.05329   0.18770  -0.04659   0.12603
   5   38119.3    262.3   0.007312835   0.06316   0.09065  -0.05579  -0.22765
   6   38711.8    258.3   0.052933670   0.45016  -0.07966   0.61350   0.25968
   7   39147.3    255.4   0.037552261   0.31580  -0.14694   0.39650   0.37013
   8   41370.9    241.7   0.012392204   0.09861  -0.07044   0.03293  -0.30425
   9   41511.3    240.9   0.012433984   0.09861   0.19300   0.24762   0.00684
  10   41673.6    240.0   0.010397620   0.08214   0.10945   0.20377   0.16922

-----------------------------------------------------------------------------
         ABSORPTION SPECTRUM VIA TRANSITION VELOCITY DIPOLE MOMENTS
-----------------------------------------------------------------------------
State   Energy    Wavelength   fosc        P2         PX        PY        PZ  
        (cm-1)      (nm)                 (au**2)     (au)      (au)      (au) 
-----------------------------------------------------------------------------
   1   27388.5    365.1   0.025288578   0.00473  -0.06319  -0.02052  -0.01788
   2   32851.2    304.4   0.180275644   0.04048   0.20037   0.00135   0.01809
   3   33778.5    296.0   0.016223668   0.00375   0.06016  -0.00516  -0.00999
   4   35343.0    282.9   0.002220506   0.00054  -0.02118   0.00861  -0.00372
   5   38119.3    262.3   0.005943866   0.00155  -0.01486  -0.00369   0.03625
   6   38711.8    258.3   0.012724638   0.00337   0.01984  -0.05423  -0.00565
   7   39147.3    255.4   0.010351090   0.00277   0.02997  -0.02658  -0.03413
   8   41370.9    241.7   0.004596158   0.00130   0.00438  -0.01886   0.03041
   9   41511.3    240.9   0.007367302   0.00209  -0.02054  -0.04071  -0.00329
  10   41673.6    240.0   0.003850622   0.00110  -0.01088  -0.02694   0.01590

-------------------------------------------------------------------
                             CD SPECTRUM
-------------------------------------------------------------------
State  Energy     Wavelength     R         MX        MY        MZ   
       (cm-1)       (nm)     (1e40*cgs)   (au)      (au)      (au)  
-------------------------------------------------------------------
   1   27388.5    365.1     -5.37706  -0.02589  -0.16808   0.29435
   2   32851.2    304.4      2.33790  -0.00591  -0.22044   0.28340
   3   33778.5    296.0    -18.95715   0.05390   0.16994  -0.07854
   4   35343.0    282.9     13.37560   0.09254   0.02223   0.09551
   5   38119.3    262.3     22.47109  -0.00685  -0.16477  -0.17172
   6   38711.8    258.3    -13.48976   0.07521  -0.07379   0.08721
   7   39147.3    255.4     -0.55895  -0.07973  -0.05914   0.02850
   8   41370.9    241.7      2.97677   0.02970   0.08928  -0.01796
   9   41511.3    240.9      9.11578  -0.00791   0.08747  -0.11670
  10   41673.6    240.0     -1.05034   0.01941  -0.16912   0.17792

-------------------------------------------------------------------
         CD SPECTRUM VIA TRANSITION VELOCITY DIPOLE MOMENTS        
-------------------------------------------------------------------
State  Energy     Wavelength     R         MX        MY        MZ   
       (cm-1)       (nm)     (1e40*cgs)   (au)      (au)      (au)  
-------------------------------------------------------------------
   1   27388.5    365.1     -0.67059  -0.02589  -0.16808   0.29435
   2   32851.2    304.4     11.48051  -0.00591  -0.22044   0.28340
   3   33778.5    296.0      9.64945   0.05390   0.16994  -0.07854
   4   35343.0    282.9     -6.21573   0.09254   0.02223   0.09551
   5   38119.3    262.3    -14.96976  -0.00685  -0.16477  -0.17172
   6   38711.8    258.3     13.36764   0.07521  -0.07379   0.08721
   7   39147.3    255.4     -4.73113  -0.07973  -0.05914   0.02850
   8   41370.9    241.7     -5.25214   0.02970   0.08928  -0.01796
   9   41511.3    240.9     -7.51517  -0.00791   0.08747  -0.11670
  10   41673.6    240.0     17.80908   0.01941  -0.16912   0.17792

Total run time:      398.387 sec

           *** ORCA-CIS/TD-DFT FINISHED WITHOUT ERROR ***

Maximum memory used throughout the entire CIS-calculation: 1061.2 MB

-----------------------
CIS/TD-DFT TOTAL ENERGY
-----------------------

    E(SCF)  =   -649.897939434 Eh
    DE(CIS) =      0.124791186 Eh (Root  1)
    ----------------------------- ---------
    E(tot)  =   -649.773148248 Eh


-------------------------   --------------------
FINAL SINGLE POINT ENERGY      -649.773148247841
-------------------------   --------------------


                            ***************************************
                            *     ORCA property calculations      *
                            ***************************************

                                    ---------------------
                                    Active property flags
                                    ---------------------
   (+) Dipole Moment


------------------------------------------------------------------------------
                       ORCA ELECTRIC PROPERTIES CALCULATION
------------------------------------------------------------------------------

Dipole Moment Calculation                       ... on
Quadrupole Moment Calculation                   ... off
Polarizability Calculation                      ... off
GBWName                                         ... x3lyp-train-16_job2.gbw
Electron density                                ... x3lyp-train-16_job2.scfp
The origin for moment calculation is the CENTER OF MASS  = ( 0.109536, -0.027298 -0.015945)

-------------
DIPOLE MOMENT
-------------
                                X             Y             Z
Electronic contribution:      0.14186      -1.36607      -0.90041
Nuclear contribution   :     -2.07159       0.72940       0.40400
                        -----------------------------------------
Total Dipole Moment    :     -1.92972      -0.63667      -0.49641
                        -----------------------------------------
Magnitude (a.u.)       :      2.09179
Magnitude (Debye)      :      5.31692



--------------------
Rotational spectrum 
--------------------
 
Rotational constants in cm-1:     0.037035     0.011858     0.009148 
Rotational constants in MHz :  1110.287036   355.498159   274.236976 

 Dipole components along the rotational axes: 
x,y,z [a.u.] :    -1.926801    -0.809549     0.087598 
x,y,z [Debye]:    -4.897539    -2.057710     0.222657 

 

Timings for individual modules:

Sum of individual times         ...      695.937 sec (=  11.599 min)
GTO integral calculation        ...        6.105 sec (=   0.102 min)   0.9 %
SCF iterations                  ...      286.271 sec (=   4.771 min)  41.1 %
CIS module                      ...      403.561 sec (=   6.726 min)  58.0 %



                             ****ORCA TERMINATED NORMALLY****
TOTAL RUN TIME: 0 days 1 hours 43 minutes 59 seconds 379 msec
