
                                 *****************
                                 * O   R   C   A *
                                 *****************

                                            #,                                       
                                            ###                                      
                                            ####                                     
                                            #####                                    
                                            ######                                   
                                           ########,                                 
                                     ,,################,,,,,                         
                               ,,#################################,,                 
                          ,,##########################################,,             
                       ,#########################################, ''#####,          
                    ,#############################################,,   '####,        
                  ,##################################################,,,,####,       
                ,###########''''           ''''###############################       
              ,#####''   ,,,,##########,,,,          '''####'''          '####       
            ,##' ,,,,###########################,,,                        '##       
           ' ,,###''''                  '''############,,,                           
         ,,##''                                '''############,,,,        ,,,,,,###''
      ,#''                                            '''#######################'''  
     '                                                          ''''####''''         
             ,#######,   #######,   ,#######,      ##                                
            ,#'     '#,  ##    ##  ,#'     '#,    #''#        ######   ,####,        
            ##       ##  ##   ,#'  ##            #'  '#       #        #'  '#        
            ##       ##  #######   ##           ,######,      #####,   #    #        
            '#,     ,#'  ##    ##  '#,     ,#' ,#      #,         ##   #,  ,#        
             '#######'   ##     ##  '#######'  #'      '#     #####' # '####'        



                  #######################################################
                  #                        -***-                        #
                  #          Department of theory and spectroscopy      #
                  #    Directorship and core code : Frank Neese         #
                  #        Max Planck Institute fuer Kohlenforschung    #
                  #                Kaiser Wilhelm Platz 1               #
                  #                 D-45470 Muelheim/Ruhr               #
                  #                      Germany                        #
                  #                                                     #
                  #                  All rights reserved                #
                  #                        -***-                        #
                  #######################################################


                         Program Version 5.0.2 -  RELEASE  -


 With contributions from (in alphabetic order):
   Daniel Aravena         : Magnetic Suceptibility
   Michael Atanasov       : Ab Initio Ligand Field Theory (pilot matlab implementation)
   Alexander A. Auer      : GIAO ZORA, VPT2 properties, NMR spectrum
   Ute Becker             : Parallelization
   Giovanni Bistoni       : ED, misc. LED, open-shell LED, HFLD
   Martin Brehm           : Molecular dynamics
   Dmytro Bykov           : SCF Hessian
   Vijay G. Chilkuri      : MRCI spin determinant printing, contributions to CSF-ICE
   Dipayan Datta          : RHF DLPNO-CCSD density
   Achintya Kumar Dutta   : EOM-CC, STEOM-CC
   Dmitry Ganyushin       : Spin-Orbit,Spin-Spin,Magnetic field MRCI
   Miquel Garcia          : C-PCM and meta-GGA Hessian, CC/C-PCM, Gaussian charge scheme
   Yang Guo               : DLPNO-NEVPT2, F12-NEVPT2, CIM, IAO-localization
   Andreas Hansen         : Spin unrestricted coupled pair/coupled cluster methods
   Benjamin Helmich-Paris : MC-RPA, TRAH-SCF, COSX integrals
   Lee Huntington         : MR-EOM, pCC
   Robert Izsak           : Overlap fitted RIJCOSX, COSX-SCS-MP3, EOM
   Marcus Kettner         : VPT2
   Christian Kollmar      : KDIIS, OOCD, Brueckner-CCSD(T), CCSD density, CASPT2, CASPT2-K
   Simone Kossmann        : Meta GGA functionals, TD-DFT gradient, OOMP2, MP2 Hessian
   Martin Krupicka        : Initial AUTO-CI
   Lucas Lang             : DCDCAS
   Marvin Lechner         : AUTO-CI (C++ implementation), FIC-MRCC
   Dagmar Lenk            : GEPOL surface, SMD
   Dimitrios Liakos       : Extrapolation schemes; Compound Job, initial MDCI parallelization
   Dimitrios Manganas     : Further ROCIS development; embedding schemes
   Dimitrios Pantazis     : SARC Basis sets
   Anastasios Papadopoulos: AUTO-CI, single reference methods and gradients
   Taras Petrenko         : DFT Hessian,TD-DFT gradient, ASA, ECA, R-Raman, ABS, FL, XAS/XES, NRVS
   Peter Pinski           : DLPNO-MP2, DLPNO-MP2 Gradient
   Christoph Reimann      : Effective Core Potentials
   Marius Retegan         : Local ZFS, SOC
   Christoph Riplinger    : Optimizer, TS searches, QM/MM, DLPNO-CCSD(T), (RO)-DLPNO pert. Triples
   Tobias Risthaus        : Range-separated hybrids, TD-DFT gradient, RPA, STAB
   Michael Roemelt        : Original ROCIS implementation
   Masaaki Saitow         : Open-shell DLPNO-CCSD energy and density
   Barbara Sandhoefer     : DKH picture change effects
   Avijit Sen             : IP-ROCIS
   Kantharuban Sivalingam : CASSCF convergence, NEVPT2, FIC-MRCI
   Bernardo de Souza      : ESD, SOC TD-DFT
   Georgi Stoychev        : AutoAux, RI-MP2 NMR, DLPNO-MP2 response
   Willem Van den Heuvel  : Paramagnetic NMR
   Boris Wezisla          : Elementary symmetry handling
   Frank Wennmohs         : Technical directorship


 We gratefully acknowledge several colleagues who have allowed us to
 interface, adapt or use parts of their codes:
   Stefan Grimme, W. Hujo, H. Kruse, P. Pracht,  : VdW corrections, initial TS optimization,
                  C. Bannwarth, S. Ehlert          DFT functionals, gCP, sTDA/sTD-DF
   Ed Valeev, F. Pavosevic, A. Kumar             : LibInt (2-el integral package), F12 methods
   Garnet Chan, S. Sharma, J. Yang, R. Olivares  : DMRG
   Ulf Ekstrom                                   : XCFun DFT Library
   Mihaly Kallay                                 : mrcc  (arbitrary order and MRCC methods)
   Jiri Pittner, Ondrej Demel                    : Mk-CCSD
   Frank Weinhold                                : gennbo (NPA and NBO analysis)
   Christopher J. Cramer and Donald G. Truhlar   : smd solvation model
   Lars Goerigk                                  : TD-DFT with DH, B97 family of functionals
   V. Asgeirsson, H. Jonsson                     : NEB implementation
   FAccTs GmbH                                   : IRC, NEB, NEB-TS, DLPNO-Multilevel, CI-OPT
                                                   MM, QMMM, 2- and 3-layer-ONIOM, Crystal-QMMM,
                                                   LR-CPCM, SF, NACMEs, symmetry and pop. for TD-DFT,
                                                   nearIR, NL-DFT gradient (VV10), updates on ESD,
                                                   ML-optimized integration grids
   S Lehtola, MJT Oliveira, MAL Marques          : LibXC Library
   Liviu Ungur et al                             : ANISO software


 Your calculation uses the libint2 library for the computation of 2-el integrals
 For citations please refer to: http://libint.valeyev.net

 Your ORCA version has been built with support for libXC version: 5.1.0
 For citations please refer to: https://tddft.org/programs/libxc/

 This ORCA versions uses:
   CBLAS   interface :  Fast vector & matrix operations
   LAPACKE interface :  Fast linear algebra routines
   SCALAPACK package :  Parallel linear algebra routines
   Shared memory     :  Shared parallel matrices
   BLAS/LAPACK       :  OpenBLAS 0.3.15  USE64BITINT DYNAMIC_ARCH NO_AFFINITY Sandybridge SINGLE_THREADED
        Core in use  :  Sandybridge
   Copyright (c) 2011-2014, The OpenBLAS Project


Your calculation utilizes the SMD solvation module
Please cite in your paper:
A.V. Marenich, C.J. Cramer, D.G. Truhlar J. Phys. Chem. B, 113, (2009), 6378 

================================================================================

----- Orbital basis set information -----
Your calculation utilizes the basis: aug-cc-pVTZ 
    H, B-Ne : Obtained from the ccRepo (grant-hill.group.shef.ac.uk/ccrepo) Feb. 2017
              R. A. Kendall, T. H. Dunning, Jr., R. J. Harrison, J. Chem. Phys. 96, 6796 (1992)
         He : Obtained from the ccRepo (grant-hill.group.shef.ac.uk/ccrepo) Feb. 2017
              D. E. Woon, T. H. Dunning, Jr., J. Chem. Phys. 100, 2975 (1994)
  Li-Be, Na : Obtained from the ccRepo (grant-hill.group.shef.ac.uk/ccrepo) Feb. 2017
              B. P. Prascher, D. E. Woon, K. A. Peterson, T. H. Dunning, Jr., A. K. Wilson, Theor. Chem. Acc. 128, 69 (2011)
         Mg : Obtained from the Peterson Research Group Website (tyr0.chem.wsu.edu/~kipeters) Feb. 2017
              B. P. Prascher, D. E. Woon, K. A. Peterson, T. H. Dunning, Jr., A. K. Wilson, Theor. Chem. Acc. 128, 69 (2011)
      Al-Ar : Obtained from the ccRepo (grant-hill.group.shef.ac.uk/ccrepo) Feb. 2017
              D. E. Woon, T. H. Dunning, Jr., J. Chem. Phys. 98, 1358 (1993)
      Sc-Zn : Obtained from the ccRepo (grant-hill.group.shef.ac.uk/ccrepo) Feb. 2017
              N. B. Balabanov, K. A. Peterson, J. Chem. Phys. 123, 064107 (2005)
              N. B. Balabanov, K. A. Peterson, J. Chem. Phys. 125, 074110 (2006)
      Ga-Kr : Obtained from the ccRepo (grant-hill.group.shef.ac.uk/ccrepo) Feb. 2017
              A. K. Wilson, D. E. Woon, K. A. Peterson, T. H. Dunning, Jr., J. Chem. Phys. 110, 7667 (1999)
     Ag, Au : Obtained from the Peterson Research Group Website (tyr0.chem.wsu.edu/~kipeters) Feb. 2017
              K. A. Peterson, C. Puzzarini, Theor. Chem. Acc. 114, 283 (2005)

The basis set includes element-specific modifications.

Your calculation utilizes the basis: cc-pVTZ 
       H, B-Ne : Obtained from the ccRepo (grant-hill.group.shef.ac.uk/ccrepo) Feb. 2017
                 T. H. Dunning, Jr., J. Chem. Phys. 90, 1007 (1989)
            He : Obtained from the ccRepo (grant-hill.group.shef.ac.uk/ccrepo) Feb. 2017
                 D. E. Woon, T. H. Dunning, Jr., J. Chem. Phys. 100, 2975 (1994)
  Li-Be, Na-Mg : Obtained from the ccRepo (grant-hill.group.shef.ac.uk/ccrepo) Feb. 2017
                 B. P. Prascher, D. E. Woon, K. A. Peterson, T. H. Dunning, Jr., A. K. Wilson, Theor. Chem. Acc. 128, 69 (2011)
         Al-Ar : Obtained from the ccRepo (grant-hill.group.shef.ac.uk/ccrepo) Feb. 2017
                 D. E. Woon, T. H. Dunning, Jr., J. Chem. Phys. 98, 1358 (1993)
            Ca : Obtained from the Peterson Research Group Website (tyr0.chem.wsu.edu/~kipeters) Feb. 2017
                 J. Koput, K. A. Peterson, J. Phys. Chem. 106, 9595 (2002)
         Sc-Zn : Obtained from the ccRepo (grant-hill.group.shef.ac.uk/ccrepo) Feb. 2017
                 N. B. Balabanov, K. A. Peterson, J. Chem. Phys. 123, 064107 (2005)
                 N. B. Balabanov, K. A. Peterson, J. Chem. Phys. 125, 074110 (2006)
         Ga-Kr : Obtained from the ccRepo (grant-hill.group.shef.ac.uk/ccrepo) Feb. 2017
                 A. K. Wilson, D. E. Woon, K. A. Peterson, T. H. Dunning, Jr., J. Chem. Phys. 110, 7667 (1999)
             Y : Obtained from the ccRepo (grant-hill.group.shef.ac.uk/ccrepo) Feb. 2017
                 K. A. Peterson, D. Figgen, M. Dolg, H. Stoll, J. Chem. Phys. 126, 124101 (2007)
        Ag, Au : Obtained from the Peterson Research Group Website (tyr0.chem.wsu.edu/~kipeters) Feb. 2017
                 K. A. Peterson, C. Puzzarini, Theor. Chem. Acc. 114, 283 (2005)

----- AuxJ basis set information -----
Your calculation utilizes the auxiliary basis: aug-cc-pVTZ/JK 
  H, B-F, Al-Cl, Ga-Br : Obtained from the TURBOMOLE 7.0 basis set library

The basis set includes element-specific modifications.

Your calculation utilizes the auxiliary basis: cc-pVTZ/JK 
  H, B-F, Al-Cl, Ga-Br : Obtained from the TURBOMOLE 7.0 basis set library

----- AuxC basis set information -----
Your calculation utilizes the auxiliary basis: aug-cc-pVTZ/C 
  H-He, B-F, Al-Ar, Ga-Kr : Obtained from the EMSL Basis Set Exchange (bse.pnl.gov) Feb. 2017
                            F. Weigend, A. Kohn, C. Hattig, J. Chem. Phys. 116, 3175 (2002)
                   Be, Mg : Obtained from the TURBOMOLE 7.0 basis set library
                            C. Haettig, Phys. Chem. Chem. Phys. 7, 59 (2005)
                       Ne : Obtained from the EMSL Basis Set Exchange (bse.pnl.gov) Feb. 2017
                            C. Haettig, Phys. Chem. Chem. Phys. 7, 59 (2005)
                            F. Weigend, A. Kohn, C. Hattig, J. Chem. Phys. 116, 3175 (2002)
                    Sc-Zn : Obtained from the EMSL Basis Set Exchange (bse.pnl.gov) Feb. 2017
                            J. G. Hill, J. A. Platts, J. Chem. Phys. 128, 044104 (2008)

The basis set includes element-specific modifications.

Your calculation utilizes the auxiliary basis: cc-pVTZ/C 
  Obtained from the EMSL Basis Set Exchange (bse.pnl.gov) Feb. 2017
  H-He, B-F, Al-Ar, Ga-Kr : F. Weigend, A. Kohn, C. Hattig, J. Chem. Phys. 116, 3175 (2002)
             Li-Be, Na-Mg : C. Haettig, Phys. Chem. Chem. Phys. 7, 59 (2005)
                       Ne : C. Haettig, Phys. Chem. Chem. Phys. 7, 59 (2005)
                            F. Weigend, A. Kohn, C. Hattig, J. Chem. Phys. 116, 3175 (2002)
                    Sc-Zn : J. G. Hill, J. A. Platts, J. Chem. Phys. 128, 044104 (2008)

================================================================================
                                        WARNINGS
                       Please study these warnings very carefully!
================================================================================


WARNING: Geometry Optimization
  ===> : Switching off AutoStart
         For restart on a previous wavefunction, please use MOREAD

INFO   : the flag for use of the SHARK integral package has been found!



***************************************
The coordinates will be read from file: 
***************************************


Your calculation utilizes the SMD solvation module
Please cite in your paper:
A.V. Marenich, C.J. Cramer, D.G. Truhlar J. Phys. Chem. B, 113, (2009), 6378 

================================================================================

----- Orbital basis set information -----
Your calculation utilizes the basis: aug-cc-pVTZ 
    H, B-Ne : Obtained from the ccRepo (grant-hill.group.shef.ac.uk/ccrepo) Feb. 2017
              R. A. Kendall, T. H. Dunning, Jr., R. J. Harrison, J. Chem. Phys. 96, 6796 (1992)
         He : Obtained from the ccRepo (grant-hill.group.shef.ac.uk/ccrepo) Feb. 2017
              D. E. Woon, T. H. Dunning, Jr., J. Chem. Phys. 100, 2975 (1994)
  Li-Be, Na : Obtained from the ccRepo (grant-hill.group.shef.ac.uk/ccrepo) Feb. 2017
              B. P. Prascher, D. E. Woon, K. A. Peterson, T. H. Dunning, Jr., A. K. Wilson, Theor. Chem. Acc. 128, 69 (2011)
         Mg : Obtained from the Peterson Research Group Website (tyr0.chem.wsu.edu/~kipeters) Feb. 2017
              B. P. Prascher, D. E. Woon, K. A. Peterson, T. H. Dunning, Jr., A. K. Wilson, Theor. Chem. Acc. 128, 69 (2011)
      Al-Ar : Obtained from the ccRepo (grant-hill.group.shef.ac.uk/ccrepo) Feb. 2017
              D. E. Woon, T. H. Dunning, Jr., J. Chem. Phys. 98, 1358 (1993)
      Sc-Zn : Obtained from the ccRepo (grant-hill.group.shef.ac.uk/ccrepo) Feb. 2017
              N. B. Balabanov, K. A. Peterson, J. Chem. Phys. 123, 064107 (2005)
              N. B. Balabanov, K. A. Peterson, J. Chem. Phys. 125, 074110 (2006)
      Ga-Kr : Obtained from the ccRepo (grant-hill.group.shef.ac.uk/ccrepo) Feb. 2017
              A. K. Wilson, D. E. Woon, K. A. Peterson, T. H. Dunning, Jr., J. Chem. Phys. 110, 7667 (1999)
     Ag, Au : Obtained from the Peterson Research Group Website (tyr0.chem.wsu.edu/~kipeters) Feb. 2017
              K. A. Peterson, C. Puzzarini, Theor. Chem. Acc. 114, 283 (2005)

The basis set includes element-specific modifications.

Your calculation utilizes the basis: cc-pVTZ 
       H, B-Ne : Obtained from the ccRepo (grant-hill.group.shef.ac.uk/ccrepo) Feb. 2017
                 T. H. Dunning, Jr., J. Chem. Phys. 90, 1007 (1989)
            He : Obtained from the ccRepo (grant-hill.group.shef.ac.uk/ccrepo) Feb. 2017
                 D. E. Woon, T. H. Dunning, Jr., J. Chem. Phys. 100, 2975 (1994)
  Li-Be, Na-Mg : Obtained from the ccRepo (grant-hill.group.shef.ac.uk/ccrepo) Feb. 2017
                 B. P. Prascher, D. E. Woon, K. A. Peterson, T. H. Dunning, Jr., A. K. Wilson, Theor. Chem. Acc. 128, 69 (2011)
         Al-Ar : Obtained from the ccRepo (grant-hill.group.shef.ac.uk/ccrepo) Feb. 2017
                 D. E. Woon, T. H. Dunning, Jr., J. Chem. Phys. 98, 1358 (1993)
            Ca : Obtained from the Peterson Research Group Website (tyr0.chem.wsu.edu/~kipeters) Feb. 2017
                 J. Koput, K. A. Peterson, J. Phys. Chem. 106, 9595 (2002)
         Sc-Zn : Obtained from the ccRepo (grant-hill.group.shef.ac.uk/ccrepo) Feb. 2017
                 N. B. Balabanov, K. A. Peterson, J. Chem. Phys. 123, 064107 (2005)
                 N. B. Balabanov, K. A. Peterson, J. Chem. Phys. 125, 074110 (2006)
         Ga-Kr : Obtained from the ccRepo (grant-hill.group.shef.ac.uk/ccrepo) Feb. 2017
                 A. K. Wilson, D. E. Woon, K. A. Peterson, T. H. Dunning, Jr., J. Chem. Phys. 110, 7667 (1999)
             Y : Obtained from the ccRepo (grant-hill.group.shef.ac.uk/ccrepo) Feb. 2017
                 K. A. Peterson, D. Figgen, M. Dolg, H. Stoll, J. Chem. Phys. 126, 124101 (2007)
        Ag, Au : Obtained from the Peterson Research Group Website (tyr0.chem.wsu.edu/~kipeters) Feb. 2017
                 K. A. Peterson, C. Puzzarini, Theor. Chem. Acc. 114, 283 (2005)

----- AuxJ basis set information -----
Your calculation utilizes the auxiliary basis: aug-cc-pVTZ/JK 
  H, B-F, Al-Cl, Ga-Br : Obtained from the TURBOMOLE 7.0 basis set library

The basis set includes element-specific modifications.

Your calculation utilizes the auxiliary basis: cc-pVTZ/JK 
  H, B-F, Al-Cl, Ga-Br : Obtained from the TURBOMOLE 7.0 basis set library

----- AuxC basis set information -----
Your calculation utilizes the auxiliary basis: aug-cc-pVTZ/C 
  H-He, B-F, Al-Ar, Ga-Kr : Obtained from the EMSL Basis Set Exchange (bse.pnl.gov) Feb. 2017
                            F. Weigend, A. Kohn, C. Hattig, J. Chem. Phys. 116, 3175 (2002)
                   Be, Mg : Obtained from the TURBOMOLE 7.0 basis set library
                            C. Haettig, Phys. Chem. Chem. Phys. 7, 59 (2005)
                       Ne : Obtained from the EMSL Basis Set Exchange (bse.pnl.gov) Feb. 2017
                            C. Haettig, Phys. Chem. Chem. Phys. 7, 59 (2005)
                            F. Weigend, A. Kohn, C. Hattig, J. Chem. Phys. 116, 3175 (2002)
                    Sc-Zn : Obtained from the EMSL Basis Set Exchange (bse.pnl.gov) Feb. 2017
                            J. G. Hill, J. A. Platts, J. Chem. Phys. 128, 044104 (2008)

The basis set includes element-specific modifications.

Your calculation utilizes the auxiliary basis: cc-pVTZ/C 
  Obtained from the EMSL Basis Set Exchange (bse.pnl.gov) Feb. 2017
  H-He, B-F, Al-Ar, Ga-Kr : F. Weigend, A. Kohn, C. Hattig, J. Chem. Phys. 116, 3175 (2002)
             Li-Be, Na-Mg : C. Haettig, Phys. Chem. Chem. Phys. 7, 59 (2005)
                       Ne : C. Haettig, Phys. Chem. Chem. Phys. 7, 59 (2005)
                            F. Weigend, A. Kohn, C. Hattig, J. Chem. Phys. 116, 3175 (2002)
                    Sc-Zn : J. G. Hill, J. A. Platts, J. Chem. Phys. 128, 044104 (2008)

================================================================================
                                        WARNINGS
                       Please study these warnings very carefully!
================================================================================

INFO   : Checking CIS options ...

INFO   : the flag for use of the SHARK integral package has been found!

================================================================================
                                       INPUT FILE
================================================================================
NAME = b3lyp-train-10.inp
|  1> ! b3lyp aug-cc-PVTZ RIJCOSX Opt
|  2> %maxcore 4000
|  3> %basis
|  4>  AuxJ "aug-cc-PVTZ/JK"
|  5>  AuxC "aug-cc-PVTZ/C"
|  6>  newGTO H "cc-PVTZ" end
|  7>  newAuxJGTO H "cc-PVTZ/JK" end
|  8>  newAuxCGTO H "cc-PVTZ/C" end
|  9> end
| 10> %cpcm
| 11>  SMD true
| 12>  SMDsolvent "chloroform"
| 13> end
| 14> %pal nprocs 4 end
| 15> * xyz 0 1
| 16> C          2.63170        2.93990        1.16310
| 17> C          1.32380        2.62580        1.54390
| 18> C          0.74590        1.44980        1.14140
| 19> C          1.44530        0.52960        0.33820
| 20> C          2.80920        0.79650        0.06560
| 21> C          3.36580        2.02840        0.45190
| 22> C          3.61690       -0.21340       -0.52300
| 23> C          3.12690       -1.46470       -0.69130
| 24> C          1.75930       -1.75730       -0.44100
| 25> C          1.28950       -3.08870       -0.51880
| 26> C         -0.00240       -3.37950       -0.21260
| 27> C         -0.94380       -2.34060       -0.02890
| 28> C         -2.30870       -2.64690        0.21990
| 29> C         -3.24230       -1.66890        0.29770
| 30> C         -2.90210       -0.32930       -0.03160
| 31> C         -3.89910        0.65190       -0.17360
| 32> C         -3.59490        1.90070       -0.64630
| 33> C         -2.28250        2.19220       -1.02970
| 34> C         -1.28630        1.26620       -0.85920
| 35> C         -1.55140        0.00340       -0.29700
| 36> C         -0.53090       -0.99550       -0.11270
| 37> C          0.87200       -0.71840       -0.09410
| 38> H          3.06750        3.88200        1.46180
| 39> H          0.76880        3.31200        2.16650
| 40> H         -0.25440        1.21190        1.46850
| 41> H          4.39820        2.22940        0.20270
| 42> H          4.64570        0.01930       -0.75770
| 43> H          3.76360       -2.26820       -1.03360
| 44> H          1.99210       -3.87110       -0.76710
| 45> H         -0.34570       -4.40290       -0.16360
| 46> H         -2.57920       -3.68400        0.35910
| 47> H         -4.27190       -1.89760        0.53290
| 48> H         -4.91940        0.39010        0.06890
| 49> H         -4.36680        2.64770       -0.75860
| 50> H         -2.05490        3.15160       -1.47070
| 51> H         -0.28510        1.49890       -1.18690
| 52> *
| 53> 
| 54> 
| 55> $new_job
| 56> ! b3lyp aug-cc-PVTZ RIJCOSX SP
| 57> %maxcore 4000
| 58> %basis
| 59>  AuxJ "aug-cc-PVTZ/JK"
| 60>  AuxC "aug-cc-PVTZ/C"
| 61>  newGTO H "cc-PVTZ" end
| 62>  newAuxJGTO H "cc-PVTZ/JK" end
| 63>  newAuxCGTO H "cc-PVTZ/C" end
| 64> end
| 65> %cpcm
| 66>  SMD true
| 67>  SMDsolvent "chloroform"
| 68> end
| 69> %pal nprocs 4 end
| 70> %tddft
| 71>  nroots 10
| 72>  maxdim 7
| 73> end
| 74> * xyzfile 0 1
| 75> 
| 76>                          ****END OF INPUT****
================================================================================


                 $$$$$$$$$$$$$$$$$$$$$$$$$$$$$$$$$$$$$$$$$$$$$$ 
                 $ THERE ARE  2 JOBS TO BE PROCESSED THIS RUN $
                 $$$$$$$$$$$$$$$$$$$$$$$$$$$$$$$$$$$$$$$$$$$$$$ 




                 $$$$$$$$$$$$$$$$  JOB NUMBER  1 $$$$$$$$$$$$$$


                       *****************************
                       * Geometry Optimization Run *
                       *****************************

Geometry optimization settings:
Update method            Update   .... BFGS
Choice of coordinates    CoordSys .... Z-matrix Internals
Initial Hessian          InHess   .... Almoef's Model

Convergence Tolerances:
Energy Change            TolE     ....  5.0000e-06 Eh
Max. Gradient            TolMAXG  ....  3.0000e-04 Eh/bohr
RMS Gradient             TolRMSG  ....  1.0000e-04 Eh/bohr
Max. Displacement        TolMAXD  ....  4.0000e-03 bohr
RMS Displacement         TolRMSD  ....  2.0000e-03 bohr
Strict Convergence                ....  False
------------------------------------------------------------------------------
                        ORCA OPTIMIZATION COORDINATE SETUP
------------------------------------------------------------------------------

The optimization will be done in new redundant internal coordinates
Making redundant internal coordinates   ...  (new redundants) done
Evaluating the initial hessian          ...  (Almloef) done
Evaluating the coordinates              ...  done
Calculating the B-matrix                .... done
Calculating the G-matrix                .... done
Diagonalizing the G-matrix              .... done
Small eigenvalue found = 6.732e-03
Small eigenvalue found = 2.499e-02
Small eigenvalue found = 2.715e-02
The first mode is                       ....  108
The number of degrees of freedom        ....  102

    -----------------------------------------------------------------
                    Redundant Internal Coordinates


    -----------------------------------------------------------------
         Definition                    Initial Value    Approx d2E/dq
    -----------------------------------------------------------------
      1. B(C   1,C   0)                  1.3980         0.606808   
      2. B(C   2,C   1)                  1.3707         0.670585   
      3. B(C   3,C   2)                  1.4075         0.585891   
      4. B(C   4,C   3)                  1.4163         0.567355   
      5. B(C   5,C   4)                  1.4059         0.589305   
      6. B(C   5,C   0)                  1.3695         0.673657   
      7. B(C   6,C   4)                  1.4208         0.557916   
      8. B(C   7,C   6)                  1.3543         0.712307   
      9. B(C   8,C   7)                  1.4208         0.558011   
     10. B(C   9,C   8)                  1.4140         0.572072   
     11. B(C  10,C   9)                  1.3592         0.699736   
     12. B(C  11,C  10)                  1.4140         0.572145   
     13. B(C  12,C  11)                  1.4208         0.557955   
     14. B(C  13,C  12)                  1.3543         0.712337   
     15. B(C  14,C  13)                  1.4208         0.557933   
     16. B(C  15,C  14)                  1.4060         0.589061   
     17. B(C  16,C  15)                  1.3695         0.673708   
     18. B(C  17,C  16)                  1.3980         0.606735   
     19. B(C  18,C  17)                  1.3708         0.670576   
     20. B(C  19,C  18)                  1.4075         0.585928   
     21. B(C  19,C  14)                  1.4162         0.567541   
     22. B(C  20,C  19)                  1.4399         0.520230   
     23. B(C  20,C  11)                  1.4095         0.581519   
     24. B(C  21,C  20)                  1.4301         0.539164   
     25. B(C  21,C   8)                  1.4096         0.581404   
     26. B(C  21,C   3)                  1.4398         0.520314   
     27. B(H  22,C   0)                  1.0801         0.373387   
     28. B(H  23,C   1)                  1.0801         0.373495   
     29. B(H  24,C   2)                  1.0790         0.374982   
     30. B(H  25,C   5)                  1.0809         0.372337   
     31. B(H  26,C   6)                  1.0806         0.372773   
     32. B(H  27,C   7)                  1.0808         0.372453   
     33. B(H  28,C   9)                  1.0805         0.372909   
     34. B(H  29,C  10)                  1.0806         0.372811   
     35. B(H  30,C  12)                  1.0808         0.372482   
     36. B(H  31,C  13)                  1.0806         0.372751   
     37. B(H  32,C  15)                  1.0809         0.372334   
     38. B(H  33,C  16)                  1.0800         0.373543   
     39. B(H  34,C  17)                  1.0802         0.373364   
     40. B(H  35,C  18)                  1.0789         0.375143   
     41. A(C   5,C   0,H  22)          120.5208         0.360128   
     42. A(C   1,C   0,H  22)          119.8757         0.353790   
     43. A(C   1,C   0,C   5)          119.5656         0.438902   
     44. A(C   2,C   1,H  23)          119.8477         0.359865   
     45. A(C   0,C   1,H  23)          119.6719         0.353807   
     46. A(C   0,C   1,C   2)          120.4785         0.438541   
     47. A(C   1,C   2,C   3)          121.2630         0.435776   
     48. A(C   3,C   2,H  24)          119.3093         0.351950   
     49. A(C   1,C   2,H  24)          119.4061         0.360109   
     50. A(C   2,C   3,C  21)          122.6950         0.416424   
     51. A(C   2,C   3,C   4)          117.7214         0.422901   
     52. A(C   4,C   3,C  21)          119.2759         0.414050   
     53. A(C   3,C   4,C   6)          119.5543         0.419224   
     54. A(C   3,C   4,C   5)          119.5712         0.423340   
     55. A(C   5,C   4,C   6)          120.7690         0.422073   
     56. A(C   4,C   5,H  25)          118.5369         0.351874   
     57. A(C   0,C   5,H  25)          120.5267         0.359955   
     58. A(C   0,C   5,C   4)          120.9082         0.436592   
     59. A(C   4,C   6,H  26)          118.5643         0.348706   
     60. A(C   7,C   6,H  26)          121.0939         0.363471   
     61. A(C   4,C   6,C   7)          120.1671         0.436675   
     62. A(C   8,C   7,H  27)          118.0171         0.348666   
     63. A(C   6,C   7,C   8)          121.1079         0.436688   
     64. A(C   6,C   7,H  27)          120.8698         0.363418   
     65. A(C   7,C   8,C   9)          120.2674         0.419856   
     66. A(C   7,C   8,C  21)          119.8337         0.421070   
     67. A(C   9,C   8,C  21)          119.8920         0.422946   
     68. A(C   8,C   9,H  28)          118.5819         0.350205   
     69. A(C   8,C   9,C  10)          120.3226         0.437246   
     70. A(C  10,C   9,H  28)          120.9924         0.362390   
     71. A(C   9,C  10,H  29)          120.9866         0.362373   
     72. A(C  11,C  10,H  29)          118.5850         0.350197   
     73. A(C   9,C  10,C  11)          120.3251         0.437256   
     74. A(C  10,C  11,C  12)          120.2614         0.419858   
     75. A(C  12,C  11,C  20)          119.8377         0.421077   
     76. A(C  10,C  11,C  20)          119.8941         0.422970   
     77. A(C  11,C  12,H  30)          118.0246         0.348664   
     78. A(C  11,C  12,C  13)          121.1053         0.436684   
     79. A(C  13,C  12,H  30)          120.8648         0.363425   
     80. A(C  14,C  13,H  31)          118.5634         0.348705   
     81. A(C  12,C  13,H  31)          121.0971         0.363470   
     82. A(C  12,C  13,C  14)          120.1649         0.436681   
     83. A(C  15,C  14,C  19)          119.5667         0.423334   
     84. A(C  13,C  14,C  19)          119.5584         0.419251   
     85. A(C  13,C  14,C  15)          120.7695         0.422044   
     86. A(C  16,C  15,H  32)          120.5288         0.359959   
     87. A(C  14,C  15,H  32)          118.5320         0.351849   
     88. A(C  14,C  15,C  16)          120.9109         0.436565   
     89. A(C  17,C  16,H  33)          119.8821         0.353808   
     90. A(C  15,C  16,H  33)          120.5198         0.360158   
     91. A(C  15,C  16,C  17)          119.5598         0.438899   
     92. A(C  16,C  17,H  34)          119.6688         0.353779   
     93. A(C  16,C  17,C  18)          120.4835         0.438530   
     94. A(C  18,C  17,H  34)          119.8459         0.359843   
     95. A(C  17,C  18,C  19)          121.2583         0.435780   
     96. A(C  19,C  18,H  35)          119.3168         0.351979   
     97. A(C  17,C  18,H  35)          119.4031         0.360135   
     98. A(C  18,C  19,C  20)          122.6883         0.416416   
     99. A(C  14,C  19,C  20)          119.2760         0.414062   
    100. A(C  14,C  19,C  18)          117.7285         0.422931   
    101. A(C  11,C  20,C  19)          117.5180         0.415857   
    102. A(C  19,C  20,C  21)          124.2291         0.410310   
    103. A(C  11,C  20,C  21)          118.1307         0.418512   
    104. A(C   8,C  21,C  20)          118.1306         0.418498   
    105. A(C   3,C  21,C  20)          124.2253         0.410322   
    106. A(C   3,C  21,C   8)          117.5217         0.415854   
    107. D(C   2,C   1,C   0,H  22)    178.2288         0.025416   
    108. D(H  23,C   1,C   0,H  22)     -2.2759         0.025416   
    109. D(C   2,C   1,C   0,C   5)     -3.9990         0.025416   
    110. D(H  23,C   1,C   0,C   5)    175.4963         0.025416   
    111. D(H  24,C   2,C   1,C   0)    178.2684         0.031454   
    112. D(C   3,C   2,C   1,C   0)     -0.0302         0.031454   
    113. D(H  24,C   2,C   1,H  23)     -1.2260         0.031454   
    114. D(C   3,C   2,C   1,H  23)   -179.5246         0.031454   
    115. D(C  21,C   3,C   2,H  24)      1.2418         0.023606   
    116. D(C  21,C   3,C   2,C   1)    179.5420         0.023606   
    117. D(C   4,C   3,C   2,C   1)      5.9669         0.023606   
    118. D(C   4,C   3,C   2,H  24)   -172.3333         0.023606   
    119. D(C   6,C   4,C   3,C   2)    168.3355         0.022072   
    120. D(C   5,C   4,C   3,C   2)     -7.9593         0.022072   
    121. D(C   6,C   4,C   3,C  21)     -5.4668         0.022072   
    122. D(C   5,C   4,C   3,C  21)    178.2384         0.022072   
    123. D(H  25,C   5,C   4,C   6)      6.0145         0.023896   
    124. D(H  25,C   5,C   4,C   3)   -177.7367         0.023896   
    125. D(H  25,C   5,C   0,H  22)      1.5907         0.031765   
    126. D(C   4,C   5,C   0,H  22)    179.6296         0.031765   
    127. D(H  25,C   5,C   0,C   1)   -176.1669         0.031765   
    128. D(C   0,C   5,C   4,C   6)   -172.0627         0.023896   
    129. D(C   4,C   5,C   0,C   1)      1.8721         0.031765   
    130. D(C   0,C   5,C   4,C   3)      4.1861         0.023896   
    131. D(H  26,C   6,C   4,C   5)     -5.9790         0.021316   
    132. D(H  26,C   6,C   4,C   3)    177.7715         0.021316   
    133. D(C   7,C   6,C   4,C   3)     -6.9795         0.021316   
    134. D(C   7,C   6,C   4,C   5)    169.2699         0.021316   
    135. D(H  27,C   7,C   6,C   4)   -173.0652         0.035842   
    136. D(C   8,C   7,C   6,H  26)   -177.0971         0.035842   
    137. D(C   8,C   7,C   6,C   4)      7.7761         0.035842   
    138. D(H  27,C   7,C   6,H  26)      2.0617         0.035842   
    139. D(C  21,C   8,C   7,H  27)   -175.0765         0.021323   
    140. D(C  21,C   8,C   7,C   6)      4.1057         0.021323   
    141. D(C   9,C   8,C   7,H  27)      5.8786         0.021323   
    142. D(C   9,C   8,C   7,C   6)   -174.9393         0.021323   
    143. D(H  28,C   9,C   8,C  21)   -178.7866         0.022457   
    144. D(H  28,C   9,C   8,C   7)      0.2578         0.022457   
    145. D(C  10,C   9,C   8,C  21)     -2.4421         0.022457   
    146. D(C  10,C   9,C   8,C   7)    176.6023         0.022457   
    147. D(H  29,C  10,C   9,H  28)      2.9798         0.034483   
    148. D(H  29,C  10,C   9,C   8)   -173.2755         0.034483   
    149. D(C  11,C  10,C   9,C   8)     10.4741         0.034483   
    150. D(C  11,C  10,C   9,H  28)   -173.2706         0.034483   
    151. D(C  20,C  11,C  10,H  29)   -178.7852         0.022463   
    152. D(C  20,C  11,C  10,C   9)     -2.4457         0.022463   
    153. D(C  12,C  11,C  10,H  29)      0.2625         0.022463   
    154. D(C  12,C  11,C  10,C   9)    176.6019         0.022463   
    155. D(H  30,C  12,C  11,C  20)   -175.0750         0.021319   
    156. D(C  13,C  12,C  11,C  20)      4.1017         0.021319   
    157. D(C  13,C  12,C  11,C  10)   -174.9464         0.021319   
    158. D(H  30,C  12,C  11,C  10)      5.8769         0.021319   
    159. D(H  31,C  13,C  12,H  30)      2.0605         0.035845   
    160. D(H  31,C  13,C  12,C  11)   -177.0928         0.035845   
    161. D(C  14,C  13,C  12,H  30)   -173.0674         0.035845   
    162. D(C  14,C  13,C  12,C  11)      7.7793         0.035845   
    163. D(C  19,C  14,C  13,H  31)    177.7704         0.021317   
    164. D(C  19,C  14,C  13,C  12)     -6.9794         0.021317   
    165. D(C  15,C  14,C  13,H  31)     -5.9788         0.021317   
    166. D(C  15,C  14,C  13,C  12)    169.2714         0.021317   
    167. D(H  32,C  15,C  14,C  13)      6.0091         0.023875   
    168. D(C  16,C  15,C  14,C  19)      4.1840         0.023875   
    169. D(C  16,C  15,C  14,C  13)   -172.0665         0.023875   
    170. D(H  32,C  15,C  14,C  19)   -177.7404         0.023875   
    171. D(H  33,C  16,C  15,H  32)      1.5840         0.031770   
    172. D(H  33,C  16,C  15,C  14)    179.6213         0.031770   
    173. D(C  17,C  16,C  15,H  32)   -176.1591         0.031770   
    174. D(C  17,C  16,C  15,C  14)      1.8781         0.031770   
    175. D(H  34,C  17,C  16,H  33)     -2.2625         0.025409   
    176. D(H  34,C  17,C  16,C  15)    175.4952         0.025409   
    177. D(C  18,C  17,C  16,H  33)    178.2327         0.025409   
    178. D(C  18,C  17,C  16,C  15)     -4.0096         0.025409   
    179. D(H  35,C  18,C  17,H  34)     -1.2306         0.031453   
    180. D(H  35,C  18,C  17,C  16)    178.2734         0.031453   
    181. D(C  19,C  18,C  17,H  34)   -179.5230         0.031453   
    182. D(C  19,C  18,C  17,C  16)     -0.0191         0.031453   
    183. D(C  20,C  19,C  18,H  35)      1.2487         0.023610   
    184. D(C  20,C  19,C  18,C  17)    179.5425         0.023610   
    185. D(C  14,C  19,C  18,H  35)   -172.3329         0.023610   
    186. D(C  14,C  19,C  18,C  17)      5.9610         0.023610   
    187. D(C  20,C  19,C  14,C  15)    178.2343         0.022087   
    188. D(C  20,C  19,C  14,C  13)     -5.4694         0.022087   
    189. D(C  18,C  19,C  14,C  15)     -7.9577         0.022087   
    190. D(C  18,C  19,C  14,C  13)    168.3386         0.022087   
    191. D(C  21,C  20,C  19,C  18)     19.1853         0.018457   
    192. D(C  21,C  20,C  19,C  14)   -167.3284         0.018457   
    193. D(C  11,C  20,C  19,C  18)   -156.7094         0.018457   
    194. D(C  11,C  20,C  19,C  14)     16.7769         0.018457   
    195. D(C  21,C  20,C  11,C  12)    167.6525         0.023239   
    196. D(C  21,C  20,C  11,C  10)    -13.2958         0.023239   
    197. D(C  19,C  20,C  11,C  12)    -16.1959         0.023239   
    198. D(C  19,C  20,C  11,C  10)    162.8558         0.023239   
    199. D(C   8,C  21,C  20,C  19)   -154.9850         0.019861   
    200. D(C   3,C  21,C  20,C  19)     29.1452         0.019861   
    201. D(C   3,C  21,C  20,C  11)   -154.9834         0.019861   
    202. D(C  20,C  21,C   8,C   9)    -13.2989         0.023229   
    203. D(C  20,C  21,C   8,C   7)    167.6525         0.023229   
    204. D(C   3,C  21,C   8,C   9)    162.8507         0.023229   
    205. D(C   3,C  21,C   8,C   7)    -16.1979         0.023229   
    206. D(C  20,C  21,C   3,C   4)   -167.3314         0.018463   
    207. D(C  20,C  21,C   3,C   2)     19.1892         0.018463   
    208. D(C   8,C  21,C  20,C  11)     20.8864         0.019861   
    209. D(C   8,C  21,C   3,C   4)     16.7757         0.018463   
    210. D(C   8,C  21,C   3,C   2)   -156.7038         0.018463   
    -----------------------------------------------------------------

Number of atoms                         .... 36
Number of degrees of freedom            .... 210

         *************************************************************
         *                GEOMETRY OPTIMIZATION CYCLE   1            *
         *************************************************************
---------------------------------
CARTESIAN COORDINATES (ANGSTROEM)
---------------------------------
  C      2.631700    2.939900    1.163100
  C      1.323800    2.625800    1.543900
  C      0.745900    1.449800    1.141400
  C      1.445300    0.529600    0.338200
  C      2.809200    0.796500    0.065600
  C      3.365800    2.028400    0.451900
  C      3.616900   -0.213400   -0.523000
  C      3.126900   -1.464700   -0.691300
  C      1.759300   -1.757300   -0.441000
  C      1.289500   -3.088700   -0.518800
  C     -0.002400   -3.379500   -0.212600
  C     -0.943800   -2.340600   -0.028900
  C     -2.308700   -2.646900    0.219900
  C     -3.242300   -1.668900    0.297700
  C     -2.902100   -0.329300   -0.031600
  C     -3.899100    0.651900   -0.173600
  C     -3.594900    1.900700   -0.646300
  C     -2.282500    2.192200   -1.029700
  C     -1.286300    1.266200   -0.859200
  C     -1.551400    0.003400   -0.297000
  C     -0.530900   -0.995500   -0.112700
  C      0.872000   -0.718400   -0.094100
  H      3.067500    3.882000    1.461800
  H      0.768800    3.312000    2.166500
  H     -0.254400    1.211900    1.468500
  H      4.398200    2.229400    0.202700
  H      4.645700    0.019300   -0.757700
  H      3.763600   -2.268200   -1.033600
  H      1.992100   -3.871100   -0.767100
  H     -0.345700   -4.402900   -0.163600
  H     -2.579200   -3.684000    0.359100
  H     -4.271900   -1.897600    0.532900
  H     -4.919400    0.390100    0.068900
  H     -4.366800    2.647700   -0.758600
  H     -2.054900    3.151600   -1.470700
  H     -0.285100    1.498900   -1.186900

----------------------------
CARTESIAN COORDINATES (A.U.)
----------------------------
  NO LB      ZA    FRAG     MASS         X           Y           Z
   0 C     6.0000    0    12.011    4.973192    5.555606    2.197940
   1 C     6.0000    0    12.011    2.501619    4.962043    2.917548
   2 C     6.0000    0    12.011    1.409547    2.739725    2.156933
   3 C     6.0000    0    12.011    2.731221    1.000799    0.639105
   4 C     6.0000    0    12.011    5.308619    1.505167    0.123966
   5 C     6.0000    0    12.011    6.360440    3.833120    0.853967
   6 C     6.0000    0    12.011    6.834950   -0.403268   -0.988327
   7 C     6.0000    0    12.011    5.908985   -2.767882   -1.306368
   8 C     6.0000    0    12.011    3.324595   -3.320816   -0.833369
   9 C     6.0000    0    12.011    2.436802   -5.836797   -0.980390
  10 C     6.0000    0    12.011   -0.004535   -6.386329   -0.401756
  11 C     6.0000    0    12.011   -1.783524   -4.423093   -0.054613
  12 C     6.0000    0    12.011   -4.362811   -5.001916    0.415551
  13 C     6.0000    0    12.011   -6.127059   -3.153764    0.562571
  14 C     6.0000    0    12.011   -5.484174   -0.622287   -0.059715
  15 C     6.0000    0    12.011   -7.368231    1.231912   -0.328056
  16 C     6.0000    0    12.011   -6.793376    3.591802   -1.221330
  17 C     6.0000    0    12.011   -4.313300    4.142658   -1.945851
  18 C     6.0000    0    12.011   -2.430755    2.392771   -1.623653
  19 C     6.0000    0    12.011   -2.931721    0.006425   -0.561249
  20 C     6.0000    0    12.011   -1.003256   -1.881222   -0.212972
  21 C     6.0000    0    12.011    1.647841   -1.357579   -0.177823
  22 H     1.0000    0     1.008    5.796735    7.335917    2.762402
  23 H     1.0000    0     1.008    1.452821    6.258773    4.094092
  24 H     1.0000    0     1.008   -0.480746    2.290159    2.775063
  25 H     1.0000    0     1.008    8.311393    4.212955    0.383047
  26 H     1.0000    0     1.008    8.779101    0.036472   -1.431845
  27 H     1.0000    0     1.008    7.112173   -4.286277   -1.953221
  28 H     1.0000    0     1.008    3.764523   -7.315319   -1.449609
  29 H     1.0000    0     1.008   -0.653278   -8.320275   -0.309159
  30 H     1.0000    0     1.008   -4.873982   -6.961751    0.678601
  31 H     1.0000    0     1.008   -8.072721   -3.585944    1.007035
  32 H     1.0000    0     1.008   -9.296319    0.737182    0.130202
  33 H     1.0000    0     1.008   -8.252056    5.003428   -1.433546
  34 H     1.0000    0     1.008   -3.883198    5.955661   -2.779220
  35 H     1.0000    0     1.008   -0.538761    2.832511   -2.242916

--------------------------------
INTERNAL COORDINATES (ANGSTROEM)
--------------------------------
 C      0   0   0     0.000000000000     0.00000000     0.00000000
 C      1   0   0     1.397952023497     0.00000000     0.00000000
 C      2   1   0     1.370748211744   120.47847259     0.00000000
 C      3   2   1     1.407500849023   121.26304499   359.96980482
 C      4   3   2     1.416251947925   117.72135362     5.96685951
 C      1   2   3     1.369503742237   119.56559484   356.00100396
 C      5   4   3     1.420819221435   119.55427839   168.33553127
 C      7   5   4     1.354317754443   120.16709708   353.02049476
 C      8   7   5     1.420772539853   121.10789751     7.77605111
 C      9   8   7     1.413998175388   120.26737050   185.06067483
 C     10   9   8     1.359164703044   120.32257572   176.60231097
 C     11  10   9     1.413963528525   120.32505819    10.47408854
 C     12  11  10     1.420800175957   120.26138339   176.60191049
 C     13  12  11     1.354306390740   121.10532381   185.05355824
 C     14  13  12     1.420810574989   120.16490282     7.77930275
 C     15  14  13     1.406032161794   120.76948432   169.27136539
 C     16  15  14     1.369483249259   120.91094577   187.93351813
 C     17  16  15     1.397984824667   119.55975374     1.87811703
 C     18  17  16     1.370751870325   120.48346057   355.99038518
 C     19  18  17     1.407483815182   121.25834742     0.00000000
 C     12  11  10     1.409539946224   119.89407163   357.55426099
 C      9   8   7     1.409593597460   119.83372463     4.10565330
 H      1   2   3     1.080136907989   119.87571736   178.22878966
 H      2   1   3     1.080058424346   119.67191566   179.49531505
 H      3   2   1     1.078976788444   119.40607721   178.26838215
 H      6   1   2     1.080903048381   120.52672963   183.83312542
 H      7   5   4     1.080584480733   118.56428342   177.77152787
 H      8   7   5     1.080818407504   120.86983172   186.93483518
 H     10   9   8     1.080485728735   118.58188569     0.25778899
 H     11  10   9     1.080557009139   120.98655515   186.72447464
 H     13  12  11     1.080797529605   118.02463366     5.87685914
 H     14  13  12     1.080601170645   121.09707540   182.90717777
 H     16  15  14     1.080905907098   118.53198809     6.00912511
 H     17  16  15     1.080023101605   120.51975067   179.62125429
 H     18  17  16     1.080153285418   119.66878871   175.49523137
 H     19  18  17     1.078859592347   119.40311127   178.27336572

---------------------------
INTERNAL COORDINATES (A.U.)
---------------------------
 C      0   0   0     0.000000000000     0.00000000     0.00000000
 C      1   0   0     2.641746472771     0.00000000     0.00000000
 C      2   1   0     2.590338718759   120.47847259     0.00000000
 C      3   2   1     2.659791137915   121.26304499   359.96980482
 C      4   3   2     2.676328318210   117.72135362     5.96685951
 C      1   2   3     2.587987012207   119.56559484   356.00100396
 C      5   4   3     2.684959214324   119.55427839   168.33553127
 C      7   5   4     2.559289654205   120.16709708   353.02049476
 C      8   7   5     2.684870998918   121.10789751     7.77605111
 C      9   8   7     2.672069305347   120.26737050   185.06067483
 C     10   9   8     2.568449059645   120.32257572   176.60231097
 C     11  10   9     2.672003832266   120.32505819    10.47408854
 C     12  11  10     2.684923223586   120.26138339   176.60191049
 C     13  12  11     2.559268179918   121.10532381   185.05355824
 C     14  13  12     2.684942874908   120.16490282     7.77930275
 C     15  14  13     2.657015721277   120.76948432   169.27136539
 C     16  15  14     2.587948286091   120.91094577   187.93351813
 C     17  16  15     2.641808457999   119.55975374     1.87811703
 C     18  17  16     2.590345632475   120.48346057   355.99038518
 C     19  18  17     2.659758948621   121.25834742     0.00000000
 C     12  11  10     2.663644473185   119.89407163   357.55426099
 C      9   8   7     2.663745859328   119.83372463     4.10565330
 H      1   2   3     2.041162943240   119.87571736   178.22878966
 H      2   1   3     2.041014630648   119.67191566   179.49531505
 H      3   2   1     2.038970635016   119.40607721   178.26838215
 H      6   1   2     2.042610738761   120.52672963   183.83312542
 H      7   5   4     2.042008733150   118.56428342   177.77152787
 H      8   7   5     2.042450790684   120.86983172   186.93483518
 H     10   9   8     2.041822118919   118.58188569     0.25778899
 H     11  10   9     2.041956819362   120.98655515   186.72447464
 H     13  12  11     2.042411337172   118.02463366     5.87685914
 H     14  13  12     2.042040272514   121.09707540   182.90717777
 H     16  15  14     2.042616140954   118.53198809     6.00912511
 H     17  16  15     2.040947880341   120.51975067   179.62125429
 H     18  17  16     2.041193892096   119.66878871   175.49523137
 H     19  18  17     2.038749166491   119.40311127   178.27336572

---------------------
BASIS SET INFORMATION
---------------------
There are 2 groups of distinct atoms

 Group   1 Type C   : 19s6p3d2f contracted to 5s4p3d2f pattern {88111/3111/111/11}
 Group   2 Type H   : 5s2p1d contracted to 3s2p1d pattern {311/11/1}

Atom   0C    basis set group =>   1
Atom   1C    basis set group =>   1
Atom   2C    basis set group =>   1
Atom   3C    basis set group =>   1
Atom   4C    basis set group =>   1
Atom   5C    basis set group =>   1
Atom   6C    basis set group =>   1
Atom   7C    basis set group =>   1
Atom   8C    basis set group =>   1
Atom   9C    basis set group =>   1
Atom  10C    basis set group =>   1
Atom  11C    basis set group =>   1
Atom  12C    basis set group =>   1
Atom  13C    basis set group =>   1
Atom  14C    basis set group =>   1
Atom  15C    basis set group =>   1
Atom  16C    basis set group =>   1
Atom  17C    basis set group =>   1
Atom  18C    basis set group =>   1
Atom  19C    basis set group =>   1
Atom  20C    basis set group =>   1
Atom  21C    basis set group =>   1
Atom  22H    basis set group =>   2
Atom  23H    basis set group =>   2
Atom  24H    basis set group =>   2
Atom  25H    basis set group =>   2
Atom  26H    basis set group =>   2
Atom  27H    basis set group =>   2
Atom  28H    basis set group =>   2
Atom  29H    basis set group =>   2
Atom  30H    basis set group =>   2
Atom  31H    basis set group =>   2
Atom  32H    basis set group =>   2
Atom  33H    basis set group =>   2
Atom  34H    basis set group =>   2
Atom  35H    basis set group =>   2
---------------------------------
AUXILIARY/J BASIS SET INFORMATION
---------------------------------
There are 2 groups of distinct atoms

 Group   1 Type C   : 10s7p5d2f1g contracted to 10s7p5d2f1g pattern {1111111111/1111111/11111/11/1}
 Group   2 Type H   : 4s3p2d1f contracted to 4s3p2d1f pattern {1111/111/11/1}

Atom   0C    basis set group =>   1
Atom   1C    basis set group =>   1
Atom   2C    basis set group =>   1
Atom   3C    basis set group =>   1
Atom   4C    basis set group =>   1
Atom   5C    basis set group =>   1
Atom   6C    basis set group =>   1
Atom   7C    basis set group =>   1
Atom   8C    basis set group =>   1
Atom   9C    basis set group =>   1
Atom  10C    basis set group =>   1
Atom  11C    basis set group =>   1
Atom  12C    basis set group =>   1
Atom  13C    basis set group =>   1
Atom  14C    basis set group =>   1
Atom  15C    basis set group =>   1
Atom  16C    basis set group =>   1
Atom  17C    basis set group =>   1
Atom  18C    basis set group =>   1
Atom  19C    basis set group =>   1
Atom  20C    basis set group =>   1
Atom  21C    basis set group =>   1
Atom  22H    basis set group =>   2
Atom  23H    basis set group =>   2
Atom  24H    basis set group =>   2
Atom  25H    basis set group =>   2
Atom  26H    basis set group =>   2
Atom  27H    basis set group =>   2
Atom  28H    basis set group =>   2
Atom  29H    basis set group =>   2
Atom  30H    basis set group =>   2
Atom  31H    basis set group =>   2
Atom  32H    basis set group =>   2
Atom  33H    basis set group =>   2
Atom  34H    basis set group =>   2
Atom  35H    basis set group =>   2
---------------------------------
AUXILIARY/C BASIS SET INFORMATION
---------------------------------
There are 2 groups of distinct atoms

 Group   1 Type C   : 9s7p6d4f2g contracted to 9s7p6d4f2g pattern {111111111/1111111/111111/1111/11}
 Group   2 Type H   : 4s3p2d1f contracted to 4s3p2d1f pattern {1111/111/11/1}

Atom   0C    basis set group =>   1
Atom   1C    basis set group =>   1
Atom   2C    basis set group =>   1
Atom   3C    basis set group =>   1
Atom   4C    basis set group =>   1
Atom   5C    basis set group =>   1
Atom   6C    basis set group =>   1
Atom   7C    basis set group =>   1
Atom   8C    basis set group =>   1
Atom   9C    basis set group =>   1
Atom  10C    basis set group =>   1
Atom  11C    basis set group =>   1
Atom  12C    basis set group =>   1
Atom  13C    basis set group =>   1
Atom  14C    basis set group =>   1
Atom  15C    basis set group =>   1
Atom  16C    basis set group =>   1
Atom  17C    basis set group =>   1
Atom  18C    basis set group =>   1
Atom  19C    basis set group =>   1
Atom  20C    basis set group =>   1
Atom  21C    basis set group =>   1
Atom  22H    basis set group =>   2
Atom  23H    basis set group =>   2
Atom  24H    basis set group =>   2
Atom  25H    basis set group =>   2
Atom  26H    basis set group =>   2
Atom  27H    basis set group =>   2
Atom  28H    basis set group =>   2
Atom  29H    basis set group =>   2
Atom  30H    basis set group =>   2
Atom  31H    basis set group =>   2
Atom  32H    basis set group =>   2
Atom  33H    basis set group =>   2
Atom  34H    basis set group =>   2
Atom  35H    basis set group =>   2


           ************************************************************
           *        Program running with 4 parallel MPI-processes     *
           *              working on a common directory               *
           ************************************************************
------------------------------------------------------------------------------
                           ORCA GTO INTEGRAL CALCULATION
                           -- RI-GTO INTEGRALS CHOSEN --
------------------------------------------------------------------------------
------------------------------------------------------------------------------
                   ___                                                        
                  /   \      - P O W E R E D   B Y -                         
                 /     \                                                     
                 |  |  |   _    _      __       _____    __    __             
                 |  |  |  | |  | |    /  \     |  _  \  |  |  /  |          
                  \  \/   | |  | |   /    \    | | | |  |  | /  /          
                 / \  \   | |__| |  /  /\  \   | |_| |  |  |/  /          
                |  |  |   |  __  | /  /__\  \  |    /   |      \           
                |  |  |   | |  | | |   __   |  |    \   |  |\   \          
                \     /   | |  | | |  |  |  |  | |\  \  |  | \   \       
                 \___/    |_|  |_| |__|  |__|  |_| \__\ |__|  \__/        
                                                                              
                      - O R C A' S   B I G   F R I E N D -                    
                                      &                                       
                       - I N T E G R A L  F E E D E R -                       
                                                                              
 v1 FN, 2020, v2 2021                                                         
------------------------------------------------------------------------------


Reading SHARK input file b3lyp-train-10.SHARKINP.tmp ... ok
----------------------
SHARK INTEGRAL PACKAGE
----------------------

Number of atoms                             ...     36
Number of basis functions                   ...   1340
Number of shells                            ...    524
Maximum angular momentum                    ...      3
Integral batch strategy                     ... SHARK/LIBINT Hybrid
RI-J (if used) integral strategy            ... SPLIT-RIJ (Revised 2003 algorithm where possible)
Printlevel                                  ...      1
Contraction scheme used                     ... PARTIAL GENERAL contraction
Coulomb Range Separation                    ... NOT USED
Exchange Range Separation                   ... NOT USED
Finite Nucleus Model                        ... NOT USED
Auxiliary Coulomb fitting basis             ... AVAILABLE
   # of basis functions in Aux-J            ...   2158
   # of shells in Aux-J                     ...    690
   Maximum angular momentum in Aux-J        ...      4
Auxiliary J/K fitting basis                 ... NOT available
Auxiliary Correlation fitting basis         ... AVAILABLE
   # of basis functions in Aux-C            ...   2752
   # of shells in Aux-C                     ...    756
   Maximum angular momentum in Aux-C        ...      4
Auxiliary 'external' fitting basis          ... NOT available
Integral threshold                          ...     2.500000e-11
Primitive cut-off                           ...     2.500000e-12
Primitive pair pre-selection threshold      ...     2.500000e-12

Calculating pre-screening integrals         ... done (  0.3 sec) Dimension = 524
Calculating pre-screening integrals (ORCA)  ... done (  0.7 sec) Dimension = 392
Organizing shell pair data                  ... done (  1.1 sec)
Shell pair information
Total number of shell pairs                 ...    137550
Shell pairs after pre-screening             ...     95297
Total number of primitive shell pairs       ...    178014
Primitive shell pairs kept                  ...    111731
          la=0 lb=0:  21488 shell pairs
          la=1 lb=0:  24016 shell pairs
          la=1 lb=1:   5746 shell pairs
          la=2 lb=0:  16160 shell pairs
          la=2 lb=1:   7741 shell pairs
          la=2 lb=2:   2684 shell pairs
          la=3 lb=0:   9136 shell pairs
          la=3 lb=1:   4394 shell pairs
          la=3 lb=2:   3028 shell pairs
          la=3 lb=3:    904 shell pairs

Calculating one electron integrals          ... done (  0.3 sec)
Calculating RI/J V-Matrix + Cholesky decomp.... done (  0.4 sec)
Calculating RI/C V-Matrix + Cholesky decomp.... done (  0.7 sec)
Calculating Nuclear repulsion               ... done (  0.0 sec) ENN=   1617.987178136255 Eh

SHARK setup successfully completed in   5.7 seconds

Maximum memory used throughout the entire GTOINT-calculation: 143.0 MB


           ************************************************************
           *        Program running with 4 parallel MPI-processes     *
           *              working on a common directory               *
           ************************************************************
-------------------------------------------------------------------------------
                                 ORCA SCF
-------------------------------------------------------------------------------

------------
SCF SETTINGS
------------
Hamiltonian:
 Density Functional     Method          .... DFT(GTOs)
 Exchange Functional    Exchange        .... B88
   X-Alpha parameter    XAlpha          ....  0.666667
   Becke's b parameter  XBeta           ....  0.004200
 Correlation Functional Correlation     .... LYP
 LDA part of GGA corr.  LDAOpt          .... VWN-5
 Gradients option       PostSCFGGA      .... off
 Hybrid DFT is turned on
   Fraction HF Exchange ScalHFX         ....  0.200000
   Scaling of DF-GGA-X  ScalDFX         ....  0.720000
   Scaling of DF-GGA-C  ScalDFC         ....  0.810000
   Scaling of DF-LDA-C  ScalLDAC        ....  1.000000
   Perturbative correction              ....  0.000000
   Density functional embedding theory  .... OFF
   NL short-range parameter             ....  4.800000
 RI-approximation to the Coulomb term is turned on
   Number of AuxJ basis functions       .... 2158
   RIJ-COSX (HFX calculated with COS-X)).... on


General Settings:
 Integral files         IntName         .... b3lyp-train-10
 Hartree-Fock type      HFTyp           .... RHF
 Total Charge           Charge          ....    0
 Multiplicity           Mult            ....    1
 Number of Electrons    NEL             ....  146
 Basis Dimension        Dim             .... 1208
 Nuclear Repulsion      ENuc            ....   1617.9871781363 Eh

Convergence Acceleration:
 DIIS                   CNVDIIS         .... on
   Start iteration      DIISMaxIt       ....    12
   Startup error        DIISStart       ....  0.200000
   # of expansion vecs  DIISMaxEq       ....     5
   Bias factor          DIISBfac        ....   1.050
   Max. coefficient     DIISMaxC        ....  10.000
 Trust-Rad. Augm. Hess. CNVTRAH         .... auto
   Auto Start mean grad. ratio tolernc. ....  1.125000
   Auto Start start iteration           ....    20
   Auto Start num. interpolation iter.  ....    10
   Max. Number of Micro iterations      ....    16
   Max. Number of Macro iterations      .... Maxiter - #DIIS iter
   Number of Davidson start vectors     ....     2
   Converg. threshold I  (grad. norm)   ....   1.000e-05
   Converg. threshold II (energy diff.) ....   1.000e-08
   Grad. Scal. Fac. for Micro threshold ....   0.100
   Minimum threshold for Micro iter.    ....   0.010
   NR start threshold (gradient norm)   ....   0.001
   Initial trust radius                 ....   0.400
   Minimum AH scaling param. (alpha)    ....   1.000
   Maximum AH scaling param. (alpha)    .... 1000.000
   Orbital update algorithm             .... Taylor
   White noise on init. David. guess    .... on
   Maximum white noise                  ....   0.010
   Quad. conv. algorithm                .... NR
 SOSCF                  CNVSOSCF        .... on
   Start iteration      SOSCFMaxIt      ....   150
   Startup grad/error   SOSCFStart      ....  0.003300
 Level Shifting         CNVShift        .... on
   Level shift para.    LevelShift      ....    0.2500
   Turn off err/grad.   ShiftErr        ....    0.0010
 Zerner damping         CNVZerner       .... off
 Static damping         CNVDamp         .... on
   Fraction old density DampFac         ....    0.7000
   Max. Damping (<1)    DampMax         ....    0.9800
   Min. Damping (>=0)   DampMin         ....    0.0000
   Turn off err/grad.   DampErr         ....    0.1000
 Fernandez-Rico         CNVRico         .... off

SCF Procedure:
 Maximum # iterations   MaxIter         ....   125
 SCF integral mode      SCFMode         .... Direct
   Integral package                     .... SHARK and LIBINT hybrid scheme
 Reset frequency        DirectResetFreq ....    20
 Integral Threshold     Thresh          ....  2.500e-11 Eh
 Primitive CutOff       TCut            ....  2.500e-12 Eh

Convergence Tolerance:
 Convergence Check Mode ConvCheckMode   .... Total+1el-Energy
 Convergence forced     ConvForced      .... 0
 Energy Change          TolE            ....  1.000e-08 Eh
 1-El. energy change                    ....  1.000e-05 Eh
 Orbital Gradient       TolG            ....  1.000e-05
 Orbital Rotation angle TolX            ....  1.000e-05
 DIIS Error             TolErr          ....  5.000e-07


Diagonalization of the overlap matrix:
Smallest eigenvalue                        ... 2.383e-07
Time for diagonalization                   ...    0.364 sec
Threshold for overlap eigenvalues          ... 1.000e-08
Number of eigenvalues below threshold      ... 0
Time for construction of square roots      ...    0.241 sec
Total time needed                          ...    0.612 sec

Time for model grid setup =    0.898 sec

------------------------------
INITIAL GUESS: MODEL POTENTIAL
------------------------------
Loading Hartree-Fock densities                     ... done
Calculating cut-offs                               ... done
Initializing the effective Hamiltonian             ... done
Setting up the integral package (SHARK)            ... done
Starting the Coulomb interaction                   ... done (   4.0 sec)
Reading the grid                                   ... done
Mapping shells                                     ... done
Starting the XC term evaluation                    ... done (   3.0 sec)
  promolecular density results
     # of electrons  =    145.985580415
     EX              =   -117.414406092
     EC              =     -4.937859677
     EX+EC           =   -122.352265769
Transforming the Hamiltonian                       ... done (   0.2 sec)
Diagonalizing the Hamiltonian                      ... done (   0.4 sec)
Back transforming the eigenvectors                 ... done (   0.1 sec)
Now organizing SCF variables                       ... done
                      ------------------
                      INITIAL GUESS DONE (   8.6 sec)
                      ------------------
-------------------
DFT GRID GENERATION
-------------------

General Integration Accuracy     IntAcc      ... 4.388
Radial Grid Type                 RadialGrid  ... OptM3 with GC (2021)
Angular Grid (max. ang.)         AngularGrid ... 4 (Lebedev-302)
Angular grid pruning method      GridPruning ... 4 (adaptive)
Weight generation scheme         WeightScheme... Becke
Basis function cutoff            BFCut       ... 1.0000e-11
Integration weight cutoff        WCut        ... 1.0000e-14
Angular grids for H and He will be reduced by one unit
Partially contracted basis set               ... off
Rotationally invariant grid construction     ... off

Total number of grid points                  ...   180160
Total number of batches                      ...     2836
Average number of points per batch           ...       63
Average number of grid points per atom       ...     5004
Time for grid setup =    2.996 sec

--------------------
COSX GRID GENERATION
--------------------

GRIDX 1
-------
General Integration Accuracy     IntAcc      ... 3.816
Radial Grid Type                 RadialGrid  ... OptM3 with GC (2021)
Angular Grid (max. ang.)         AngularGrid ... 1 (Lebedev-50)
Angular grid pruning method      GridPruning ... 4 (adaptive)
Weight generation scheme         WeightScheme... Becke
Basis function cutoff            BFCut       ... 1.0000e-11
Integration weight cutoff        WCut        ... 1.0000e-14
Angular grids for H and He will be reduced by one unit
Partially contracted basis set               ... on
Rotationally invariant grid construction     ... off

Total number of grid points                  ...    22854
Total number of batches                      ...      378
Average number of points per batch           ...       60
Average number of grid points per atom       ...      635
UseSFitting                                  ... on

GRIDX 2
-------
General Integration Accuracy     IntAcc      ... 4.020
Radial Grid Type                 RadialGrid  ... OptM3 with GC (2021)
Angular Grid (max. ang.)         AngularGrid ... 2 (Lebedev-110)
Angular grid pruning method      GridPruning ... 4 (adaptive)
Weight generation scheme         WeightScheme... Becke
Basis function cutoff            BFCut       ... 1.0000e-11
Integration weight cutoff        WCut        ... 1.0000e-14
Angular grids for H and He will be reduced by one unit
Partially contracted basis set               ... on
Rotationally invariant grid construction     ... off

Total number of grid points                  ...    53931
Total number of batches                      ...      864
Average number of points per batch           ...       62
Average number of grid points per atom       ...     1498
UseSFitting                                  ... on

GRIDX 3
-------
General Integration Accuracy     IntAcc      ... 4.338
Radial Grid Type                 RadialGrid  ... OptM3 with GC (2021)
Angular Grid (max. ang.)         AngularGrid ... 3 (Lebedev-194)
Angular grid pruning method      GridPruning ... 4 (adaptive)
Weight generation scheme         WeightScheme... Becke
Basis function cutoff            BFCut       ... 1.0000e-11
Integration weight cutoff        WCut        ... 1.0000e-14
Angular grids for H and He will be reduced by one unit
Partially contracted basis set               ... on
Rotationally invariant grid construction     ... off

Total number of grid points                  ...   116539
Total number of batches                      ...     1844
Average number of points per batch           ...       63
Average number of grid points per atom       ...     3237
UseSFitting                                  ... on

Time for X-Grid setup             =    8.504 sec


--------------------
CPCM SOLVATION MODEL
--------------------
CPCM parameters:
  Epsilon                                         ...       4.7113
  Refrac                                          ...       1.4459
  Rsolv                                           ...       1.3000
  Surface type                                    ... GAUSSIAN VDW
  Epsilon function type                           ...         CPCM
Solvent:                                     ... CHLOROFORM
SMD-CDS solvent descriptors:
  Soln                                       ...    1.4459
  Soln25                                     ...    1.4431
  Sola                                       ...    0.1500
  Solb                                       ...    0.0200
  Solg                                       ...   38.3900
  Solc                                       ...    0.0000
  Solh                                       ...    0.7500
Radii:
 Radius for C  used is    3.4960 Bohr (=   1.8500 Ang.)
 Radius for H  used is    2.2677 Bohr (=   1.2000 Ang.)
Calculating surface                               ...        done! (  0.0s)
GEPOL surface points                              ...         1995
GEPOL Volume                                      ...    1898.5066
GEPOL Surface-area                                ...    1009.5498
Calculating surface distance matrix               ...        done! (  0.0s)
Performing Cholesky decomposition & store         ...        done! (  0.2s)
Overall time for CPCM initialization              ...                 0.3s
 re-compute Schwartz prescreening matrix in partically contracted basis (1) ...done (   0.283 sec)
--------------
SCF ITERATIONS
--------------
ITER       Energy         Delta-E        Max-DP      RMS-DP      [F,P]     Damp
               ***  Starting incremental Fock matrix formation  ***
  0   -846.1110569704   0.000000000000 0.72627893  0.00263335  0.1371247 0.7000
  1   -846.3024598023  -0.191402831877 0.48438860  0.00201645  0.0771215 0.7000
                               ***Turning on DIIS***
  2   -846.3947533493  -0.092293546969 1.09979902  0.00445020  0.0378988 0.0000
  3   -846.5276846017  -0.132931252378 0.08300575  0.00074492  0.0386819 0.0000
  4   -846.5582211588  -0.030536557140 0.08654425  0.00033770  0.0074357 0.0000
                      *** Initiating the SOSCF procedure ***
                           *** Shutting down DIIS ***
                      *** Re-Reading the Fockian *** 
                      *** Removing any level shift *** 
ITER      Energy       Delta-E        Grad      Rot      Max-DP    RMS-DP
  5   -846.55942971  -0.0012085463  0.000428  0.000428  0.067498  0.000167
               *** Restarting incremental Fock matrix formation ***
  6   -846.55953822  -0.0001085148  0.000180  0.000944  0.187391  0.000797
  7   -846.55954078  -0.0000025591  0.000420  0.001250  0.015625  0.000199
  8   -846.55954851  -0.0000077278  0.000139  0.000401  0.089400  0.000271
  9   -846.55954926  -0.0000007565  0.000041  0.000071  0.031309  0.000097
 10   -846.55954992  -0.0000006597  0.000017  0.000062  0.072616  0.000217
 11   -846.55954989   0.0000000291  0.000018  0.000028  0.051507  0.000161
 12   -846.55954989   0.0000000018  0.000004  0.000013  0.096741  0.000290
 13   -846.55954988   0.0000000132  0.000004  0.000005  0.022694  0.000157
 14   -846.55954985   0.0000000267  0.000003  0.000009  0.179569  0.000410
 15   -846.55954979   0.0000000595  0.000005  0.000005  0.028899  0.000182
 16   -846.55954981  -0.0000000223  0.000003  0.000007  0.066688  0.000313
 17   -846.55954980   0.0000000144  0.000004  0.000003  0.031862  0.000173
 18   -846.55954981  -0.0000000112  0.000003  0.000008  0.129770  0.000547
 19   -846.55954976   0.0000000567  0.000005  0.000005  0.056506  0.000303
                  ***Gradient check signals convergence***
              ***Rediagonalizing the Fockian in SOSCF/NRSCF***

               *****************************************************
               *                     SUCCESS                       *
               *           SCF CONVERGED AFTER  20 CYCLES          *
               *****************************************************

Old exchange energy                            =    -23.858148035 Eh
New exchange energy                            =    -23.858174970 Eh
Exchange energy change after final integration =     -0.000026935 Eh
Total energy after final integration           =   -846.559576708 Eh
Final COS-X integration done in                =   198.240 sec

SMD CDS free energy correction energy :                -9.65253     Kcal/mol
Total Energy after SMD CDS correction =              -846.574958990 Eh

----------------
TOTAL SCF ENERGY
----------------

Total Energy       :         -846.57495899 Eh          -23036.47579 eV

Components:
Nuclear Repulsion  :         1617.98717814 Eh           44027.66944 eV
Electronic Energy  :        -2464.56213713 Eh          -67064.14523 eV
One Electron Energy:        -4358.32751830 Eh         -118596.12108 eV
Two Electron Energy:         1893.76538118 Eh           51531.97586 eV
Max COSX asymmetry :            0.00003184 Eh               0.00087 eV
CPCM Dielectric    :           -0.01092374 Eh              -0.29725 eV
SMD CDS (Gcds)     :           -0.01538228 Eh              -0.41857 eV

Virial components:
Potential Energy   :        -1688.88692101 Eh          -45956.94953 eV
Kinetic Energy     :          842.31196202 Eh           22920.47374 eV
Virial Ratio       :            2.00506107


DFT components:
N(Alpha)           :       72.999936926497 electrons
N(Beta)            :       72.999936926497 electrons
N(Total)           :      145.999873852994 electrons
E(X)               :      -94.748354820638 Eh       
E(C)               :       -5.824198096173 Eh       
E(XC)              :     -100.572552916812 Eh       
DFET-embed. en.    :        0.000000000000 Eh       
CPCM Solvation Model Properties:
Surface-charge          :           -0.07080070
Charge-correction       :            0.00031900 Eh               0.00868 eV
Free-energy (cav+disp)  :           -0.01538228 Eh              -0.41857 eV

---------------
SCF CONVERGENCE
---------------

  Last Energy change         ...   -1.8191e-08  Tolerance :   1.0000e-08
  Last MAX-Density change    ...    4.9318e-15  Tolerance :   1.0000e-07
  Last RMS-Density change    ...    2.1983e-17  Tolerance :   5.0000e-09
  Last Orbital Gradient      ...    1.9699e-06  Tolerance :   1.0000e-05
  Last Orbital Rotation      ...    2.4970e-06  Tolerance :   1.0000e-05

             **** THE GBW FILE WAS UPDATED (b3lyp-train-10.gbw) ****
             **** DENSITY b3lyp-train-10.scfp WAS UPDATED ****
             **** ENERGY FILE WAS UPDATED (b3lyp-train-10.en.tmp) ****
             **** THE GBW FILE WAS UPDATED (b3lyp-train-10.gbw) ****
             **** DENSITY b3lyp-train-10.scfp WAS UPDATED ****
----------------
ORBITAL ENERGIES
----------------

  NO   OCC          E(Eh)            E(eV) 
   0   2.0000     -10.189271      -277.2642 
   1   2.0000     -10.188798      -277.2513 
   2   2.0000     -10.185114      -277.1510 
   3   2.0000     -10.185097      -277.1506 
   4   2.0000     -10.184276      -277.1282 
   5   2.0000     -10.184246      -277.1274 
   6   2.0000     -10.182393      -277.0770 
   7   2.0000     -10.182379      -277.0766 
   8   2.0000     -10.173676      -276.8398 
   9   2.0000     -10.173338      -276.8306 
  10   2.0000     -10.173328      -276.8303 
  11   2.0000     -10.172904      -276.8188 
  12   2.0000     -10.172478      -276.8072 
  13   2.0000     -10.172467      -276.8069 
  14   2.0000     -10.171399      -276.7778 
  15   2.0000     -10.171387      -276.7775 
  16   2.0000     -10.170554      -276.7549 
  17   2.0000     -10.170525      -276.7540 
  18   2.0000     -10.169968      -276.7389 
  19   2.0000     -10.169931      -276.7379 
  20   2.0000     -10.169262      -276.7197 
  21   2.0000     -10.169233      -276.7189 
  22   2.0000      -0.897856       -24.4319 
  23   2.0000      -0.874766       -23.8036 
  24   2.0000      -0.852704       -23.2032 
  25   2.0000      -0.824514       -22.4362 
  26   2.0000      -0.799810       -21.7639 
  27   2.0000      -0.789047       -21.4711 
  28   2.0000      -0.762107       -20.7380 
  29   2.0000      -0.748697       -20.3731 
  30   2.0000      -0.736827       -20.0501 
  31   2.0000      -0.719447       -19.5771 
  32   2.0000      -0.710751       -19.3405 
  33   2.0000      -0.641551       -17.4575 
  34   2.0000      -0.637615       -17.3504 
  35   2.0000      -0.614920       -16.7328 
  36   2.0000      -0.610248       -16.6057 
  37   2.0000      -0.609194       -16.5770 
  38   2.0000      -0.576046       -15.6750 
  39   2.0000      -0.551989       -15.0204 
  40   2.0000      -0.530064       -14.4238 
  41   2.0000      -0.525205       -14.2916 
  42   2.0000      -0.501147       -13.6369 
  43   2.0000      -0.496822       -13.5192 
  44   2.0000      -0.490017       -13.3340 
  45   2.0000      -0.463884       -12.6229 
  46   2.0000      -0.462052       -12.5731 
  47   2.0000      -0.448972       -12.2172 
  48   2.0000      -0.432713       -11.7747 
  49   2.0000      -0.431839       -11.7509 
  50   2.0000      -0.430570       -11.7164 
  51   2.0000      -0.423554       -11.5255 
  52   2.0000      -0.417725       -11.3669 
  53   2.0000      -0.414738       -11.2856 
  54   2.0000      -0.403935       -10.9916 
  55   2.0000      -0.397031       -10.8038 
  56   2.0000      -0.395466       -10.7612 
  57   2.0000      -0.383735       -10.4420 
  58   2.0000      -0.366974        -9.9859 
  59   2.0000      -0.364389        -9.9155 
  60   2.0000      -0.362587        -9.8665 
  61   2.0000      -0.347022        -9.4429 
  62   2.0000      -0.342552        -9.3213 
  63   2.0000      -0.335838        -9.1386 
  64   2.0000      -0.324821        -8.8388 
  65   2.0000      -0.320163        -8.7121 
  66   2.0000      -0.300931        -8.1887 
  67   2.0000      -0.291421        -7.9300 
  68   2.0000      -0.281596        -7.6626 
  69   2.0000      -0.256736        -6.9861 
  70   2.0000      -0.232778        -6.3342 
  71   2.0000      -0.213606        -5.8125 
  72   2.0000      -0.209595        -5.7034 
  73   0.0000      -0.057356        -1.5607 
  74   0.0000      -0.055551        -1.5116 
  75   0.0000      -0.031784        -0.8649 
  76   0.0000      -0.009643        -0.2624 
  77   0.0000      -0.001412        -0.0384 
  78   0.0000       0.007218         0.1964 
[...]
B( 18-C , 35-H ) :   1.1456 B( 19-C , 20-C ) :   0.4016 B( 19-C , 21-C ) :   0.3970 
B( 20-C , 21-C ) :   1.1561 B( 21-C , 27-H ) :   0.1003 

-------
TIMINGS
-------

Total SCF time: 0 days 0 hours 7 min 40 sec 

Total time                  ....     460.840 sec
Sum of individual times     ....     453.105 sec  ( 98.3%)

Fock matrix formation       ....     437.968 sec  ( 95.0%)
  Split-RI-J                ....      23.926 sec  (  5.5% of F)
  Chain of spheres X        ....     381.363 sec  ( 87.1% of F)
  XC integration            ....      19.060 sec  (  4.4% of F)
    Basis function eval.    ....       2.472 sec  ( 13.0% of XC)
    Density eval.           ....       8.363 sec  ( 43.9% of XC)
    XC-Functional eval.     ....       0.128 sec  (  0.7% of XC)
    XC-Potential eval.      ....       7.388 sec  ( 38.8% of XC)
Diagonalization             ....       0.599 sec  (  0.1%)
Density matrix formation    ....       0.061 sec  (  0.0%)
Population analysis         ....       1.011 sec  (  0.2%)
Initial guess               ....       1.304 sec  (  0.3%)
Orbital Transformation      ....       0.000 sec  (  0.0%)
Orbital Orthonormalization  ....       1.220 sec  (  0.3%)
DIIS solution               ....       0.254 sec  (  0.1%)
SOSCF solution              ....       0.472 sec  (  0.1%)
Grid generation             ....      11.435 sec  (  2.5%)

Maximum memory used throughout the entire SCF-calculation: 382.1 MB


           ************************************************************
           *        Program running with 4 parallel MPI-processes     *
           *              working on a common directory               *
           ************************************************************
------------------------------------------------------------------------------
                        ORCA TD-DFT/TDA CALCULATION
------------------------------------------------------------------------------

Input orbitals are from        ... b3lyp-train-10_job2.gbw
CI-vector output               ... b3lyp-train-10_job2.cis
Tamm-Dancoff approximation     ... operative
CIS-Integral strategy          ... AO-integrals
Integral handling              ... AO integral Direct
Max. core memory used          ... 4000 MB
Reference state                ... RHF
Generation of triplets         ... off
Follow IRoot                   ... off
Number of operators            ... 1
Orbital ranges used for CIS calculation:
 Operator 0:  Orbitals  22... 72  to  73...1207
XAS localization array:
 Operator 0:  Orbitals  -1... -1

-------------------
XC-INTEGRATION GRID
-------------------

General Integration Accuracy     IntAcc      ... 3.467
Radial Grid Type                 RadialGrid  ... OptM3 with GC (2021)
Angular Grid (max. ang.)         AngularGrid ... 1 (Lebedev-50)
Angular grid pruning method      GridPruning ... 4 (adaptive)
Weight generation scheme         WeightScheme... Becke
Basis function cutoff            BFCut       ... 1.0000e-11
Integration weight cutoff        WCut        ... 1.0000e-14
Angular grids for H and He will be reduced by one unit
Partially contracted basis set               ... off
Rotationally invariant grid construction     ... off

Total number of grid points                  ...    26868
Total number of batches                      ...      437
Average number of points per batch           ...       61
Average number of grid points per atom       ...      746

---------------------
COSX-INTEGRATION GRID
---------------------

General Integration Accuracy     IntAcc      ... 3.067
Radial Grid Type                 RadialGrid  ... OptM3 with GC (2021)
Angular Grid (max. ang.)         AngularGrid ... 1 (Lebedev-50)
Angular grid pruning method      GridPruning ... 4 (adaptive)
Weight generation scheme         WeightScheme... Becke
Basis function cutoff            BFCut       ... 1.0000e-11
Integration weight cutoff        WCut        ... 1.0000e-14
Angular grids for H and He will be reduced by one unit
Partially contracted basis set               ... on
Rotationally invariant grid construction     ... off

Total number of grid points                  ...    12229
Total number of batches                      ...      212
Average number of points per batch           ...       57
Average number of grid points per atom       ...      340

---------------
TD-DFT XC SETUP
---------------

DFT calculation                         ... on
Name of the grid file                   ... b3lyp-train-10_job2.grid_cis.tmp
Exchange functional (TD-DFT)            ... B88
   X-Alpha parameter    XAlpha (TD-DFT) ...  0.666667
   Becke's b parameter  XBeta (TD-DFT)  ...  0.004200
Correlation functional (TD-DFT)         ... LYP
 LDA part of GGA corr.  LDAOpt (TD-DFT) ... VWN-5
Hybrid DFT                              ... on
   Exchange mixing (TD-DFT)             ...  0.200
   GGA exch. scaling (TD-DFT)           ...  0.720
   GGA corr. scaling (TD-DFT)           ...  0.810

Building densities             ... done
Calculating rho(r) on the grid ... done
Building xc-kernel on the grid ... done
                    *** TD-DFT CALCULATION INITIALIZED ***

---------------------------------
    LR-CPCM (non-equilibrium)
---------------------------------

Setting up LR-CPCM             ... done

------------------------
DAVIDSON-DIAGONALIZATION
------------------------

Dimension of the eigenvalue problem            ...  57885
Number of roots to be determined               ...     10
Maximum size of the expansion space            ...     70
Maximum number of iterations                   ...    100
Convergence tolerance for the residual         ...    1.000e-06
Convergence tolerance for the energies         ...    1.000e-06
Orthogonality tolerance                        ...    1.000e-14
Level Shift                                    ...    0.000e+00
Constructing the preconditioner                ... o.k.
Building the initial guess                     ... o.k.
Number of trial vectors determined             ...     70


                       ****Iteration    0****

   Memory handling for direct AO based CIS:
   Memory per vector needed      ...    66 MB
   Memory needed                 ...  2004 MB
   Memory available              ...  4000 MB
   Number of vectors per batch   ...    59
   Number of batches             ...     1
   Time for densities:            0.850
   Time for RI-J (Direct):       30.044
   Time for K (COSX):           160.742
   Time for XC-Integration:      75.400
   Time for LR-CPCM terms:       33.067
   Time for Sigma-Completion:     0.727
   Size of expansion space: 30
   Lowest Energy          :     0.125012694676
   Maximum Energy change  :     0.177171014119 (vector 9)
   Maximum residual norm  :     0.016120097930

                       ****Iteration    1****
   Time for densities:            0.295
   Time for RI-J (Direct):       17.771
   Time for K (COSX):            59.463
   Time for XC-Integration:      26.293
   Time for LR-CPCM terms:       15.391
   Time for Sigma-Completion:     0.234
   Size of expansion space: 40
   Lowest Energy          :     0.123912045448
   Maximum Energy change  :     0.015945826374 (vector 5)
   Maximum residual norm  :     0.000646742229

                       ****Iteration    2****
   Time for densities:            0.291
   Time for RI-J (Direct):       17.774
   Time for K (COSX):            59.613
   Time for XC-Integration:      26.551
   Time for LR-CPCM terms:       15.496
   Time for Sigma-Completion:     0.238
   Size of expansion space: 50
   Lowest Energy          :     0.123866465283
   Maximum Energy change  :     0.001188127555 (vector 7)
   Maximum residual norm  :     0.000050827397

                       ****Iteration    3****
   Time for densities:            0.290
   Time for RI-J (Direct):       17.749
   Time for K (COSX):            60.080
   Time for XC-Integration:      26.633
   Time for LR-CPCM terms:       15.669
   Time for Sigma-Completion:     0.250
   Size of expansion space: 60
   Lowest Energy          :     0.123863592432
   Maximum Energy change  :     0.000060934710 (vector 7)
   Maximum residual norm  :     0.000003563242

                       ****Iteration    4****
   Time for densities:            0.306
   Time for RI-J (Direct):       17.993
   Time for K (COSX):            63.460
   Time for XC-Integration:      28.413
   Time for LR-CPCM terms:       15.591
   Time for Sigma-Completion:     0.245
   Size of expansion space: 70
   Lowest Energy          :     0.123863487784
   Maximum Energy change  :     0.000006206126 (vector 7)
   Maximum residual norm  :     0.000000205843

      *** CONVERGENCE OF RESIDUAL NORM REACHED ***

Storing the converged CI vectors               ... b3lyp-train-10_job2.cis1

                 *** DAVIDSON DONE ***

Total time for solving the CIS problem:   789.249sec

------------------------------------
TD-DFT/TDA EXCITED STATES (SINGLETS)
------------------------------------

the weight of the individual excitations are printed if larger than 1.0e-02

STATE  1:  E=   0.123863 au      3.370 eV    27184.9 cm**-1 <S**2> =   0.000000
    71a ->  74a  :     0.381148 (c=  0.61737146)
    72a ->  73a  :     0.605116 (c= -0.77789177)

STATE  2:  E=   0.133694 au      3.638 eV    29342.4 cm**-1 <S**2> =   0.000000
    70a ->  73a  :     0.018113 (c= -0.13458516)
    71a ->  73a  :     0.428780 (c=  0.65481286)
    72a ->  74a  :     0.535885 (c=  0.73204189)

STATE  3:  E=   0.140827 au      3.832 eV    30908.0 cm**-1 <S**2> =   0.000000
    70a ->  73a  :     0.038228 (c= -0.19552077)
    71a ->  73a  :     0.536067 (c= -0.73216591)
    71a ->  75a  :     0.024524 (c= -0.15659992)
    72a ->  74a  :     0.379090 (c=  0.61570285)

STATE  4:  E=   0.149204 au      4.060 eV    32746.6 cm**-1 <S**2> =   0.000000
    69a ->  74a  :     0.031161 (c=  0.17652382)
    70a ->  73a  :     0.612102 (c=  0.78236953)
    71a ->  74a  :     0.017214 (c=  0.13120347)
    71a ->  75a  :     0.276926 (c= -0.52623736)
    72a ->  73a  :     0.011486 (c=  0.10717356)
    72a ->  74a  :     0.014942 (c=  0.12223639)
    72a ->  76a  :     0.019339 (c=  0.13906310)

STATE  5:  E=   0.149291 au      4.062 eV    32765.7 cm**-1 <S**2> =   0.000000
    70a ->  73a  :     0.021729 (c= -0.14740776)
    71a ->  74a  :     0.482683 (c=  0.69475424)
    72a ->  73a  :     0.325270 (c=  0.57032423)
    72a ->  75a  :     0.098204 (c=  0.31337518)

STATE  6:  E=   0.153555 au      4.178 eV    33701.4 cm**-1 <S**2> =   0.000000
    70a ->  74a  :     0.566908 (c= -0.75293267)
    71a ->  74a  :     0.041875 (c= -0.20463469)
    72a ->  75a  :     0.370488 (c=  0.60867757)

STATE  7:  E=   0.162196 au      4.414 eV    35597.9 cm**-1 <S**2> =   0.000000
    69a ->  73a  :     0.214433 (c= -0.46306893)
    70a ->  74a  :     0.305788 (c=  0.55298124)
    71a ->  74a  :     0.028202 (c= -0.16793480)
    71a ->  76a  :     0.034008 (c=  0.18441133)
    72a ->  75a  :     0.378507 (c=  0.61522934)

STATE  8:  E=   0.166357 au      4.527 eV    36511.2 cm**-1 <S**2> =   0.000000
    70a ->  73a  :     0.264009 (c=  0.51381778)
    71a ->  73a  :     0.014473 (c= -0.12030387)
    71a ->  75a  :     0.526509 (c=  0.72560964)
    72a ->  74a  :     0.034147 (c=  0.18478795)
    72a ->  76a  :     0.120954 (c= -0.34778371)

STATE  9:  E=   0.170683 au      4.645 eV    37460.7 cm**-1 <S**2> =   0.000000
    69a ->  74a  :     0.465376 (c= -0.68218502)
    71a ->  75a  :     0.102312 (c= -0.31986208)
    72a ->  76a  :     0.414587 (c= -0.64388431)

STATE 10:  E=   0.173390 au      4.718 eV    38054.6 cm**-1 <S**2> =   0.000000
    69a ->  73a  :     0.425704 (c= -0.65245963)
    70a ->  74a  :     0.018607 (c= -0.13640726)
    70a ->  76a  :     0.018287 (c= -0.13522847)
    71a ->  76a  :     0.469007 (c= -0.68484103)
    71a ->  78a  :     0.012096 (c= -0.10998225)
    72a ->  75a  :     0.024165 (c= -0.15545007)


-----------------------------
TD-DFT/TDA-EXCITATION SPECTRA
-----------------------------

Center of mass = (  0.0312, -0.1576, -0.0327)
Calculating the Dipole integrals                  ... done
Transforming integrals                            ... done
Calculating the Linear Momentum integrals         ... done
Transforming integrals                            ... done
Calculating angular momentum integrals            ... done
Transforming integrals                            ... done

-----------------------------------------------------------------------------
         ABSORPTION SPECTRUM VIA TRANSITION ELECTRIC DIPOLE MOMENTS
-----------------------------------------------------------------------------
State   Energy    Wavelength  fosc         T2        TX        TY        TZ  
        (cm-1)      (nm)                 (au**2)    (au)      (au)      (au) 
-----------------------------------------------------------------------------
   1   27184.9    367.9   0.002664784   0.03227   0.03470  -0.17509  -0.02021
   2   29342.4    340.8   0.014465106   0.16229   0.38148   0.08432  -0.09825
   3   30908.0    323.5   0.661349481   7.04425   2.55983   0.45167   0.53622
   4   32746.6    305.4   0.028197461   0.28348   0.42445   0.31837  -0.04429
   5   32765.7    305.2   0.140114429   1.40780  -0.31681   1.13450   0.14264
   6   33701.4    296.7   0.008479345   0.08283   0.05855  -0.28006  -0.03110
   7   35597.9    280.9   0.196765390   1.81970   0.25446  -1.31679  -0.14496
   8   36511.2    273.9   0.562137627   5.06864   2.20886   0.43541   0.00114
   9   37460.7    266.9   0.012430235   0.10924  -0.31005  -0.07849   0.08336
  10   38054.6    262.8   0.047243384   0.40870  -0.12326   0.62338   0.07007

-----------------------------------------------------------------------------
         ABSORPTION SPECTRUM VIA TRANSITION VELOCITY DIPOLE MOMENTS
-----------------------------------------------------------------------------
State   Energy    Wavelength   fosc        P2         PX        PY        PZ  
        (cm-1)      (nm)                 (au**2)     (au)      (au)      (au) 
-----------------------------------------------------------------------------
   1   27184.9    367.9   0.000008875   0.00000   0.00025  -0.00125  -0.00015
   2   29342.4    340.8   0.000116666   0.00002   0.00202   0.00101  -0.00428
   3   30908.0    323.5   0.178370572   0.03768  -0.18537  -0.03164  -0.04812
   4   32746.6    305.4   0.000543738   0.00012  -0.00901  -0.00477  -0.00420
   5   32765.7    305.2   0.001392859   0.00031   0.00517  -0.01687  -0.00074
   6   33701.4    296.7   0.000439614   0.00010  -0.00224   0.00976   0.00100
   7   35597.9    280.9   0.011671133   0.00284  -0.00993   0.05202   0.00592
   8   36511.2    273.9   0.087654991   0.02187  -0.14048  -0.02332  -0.03993
   9   37460.7    266.9   0.000727413   0.00019   0.01329   0.00284   0.00123
  10   38054.6    262.8   0.003510005   0.00091   0.00556  -0.02951  -0.00335

-------------------------------------------------------------------
                             CD SPECTRUM
-------------------------------------------------------------------
State  Energy     Wavelength     R         MX        MY        MZ   
       (cm-1)       (nm)     (1e40*cgs)   (au)      (au)      (au)  
-------------------------------------------------------------------
   1   27184.9    367.9     -3.47656  -0.00792   0.04008   0.00405
   2   29342.4    340.8     -1.96884   0.01258  -0.00657   0.08570
   3   30908.0    323.5    386.96194   0.04789  -0.14695   1.42587
   4   32746.6    305.4      4.62641   0.06140  -0.03268   0.13196
   5   32765.7    305.2    -88.05029   0.02217  -0.15318  -0.04180
   6   33701.4    296.7      2.68980   0.00414  -0.01951   0.00001
   7   35597.9    280.9    -65.35215  -0.02156   0.10000   0.01005
   8   36511.2    273.9     43.39529   0.04554  -0.02035   0.27593
   9   37460.7    266.9      4.46700   0.03374  -0.01724   0.22293
  10   38054.6    262.8    -17.34009   0.01171  -0.05630  -0.00346

-------------------------------------------------------------------
         CD SPECTRUM VIA TRANSITION VELOCITY DIPOLE MOMENTS        
-------------------------------------------------------------------
State  Energy     Wavelength     R         MX        MY        MZ   
       (cm-1)       (nm)     (1e40*cgs)   (au)      (au)      (au)  
-------------------------------------------------------------------
   1   27184.9    367.9     -0.20062  -0.00792   0.04008   0.00405
   2   29342.4    340.8     -1.22713   0.01258  -0.00657   0.08570
   3   30908.0    323.5    -243.85986   0.04789  -0.14695   1.42587
   4   32746.6    305.4     -3.00799   0.06140  -0.03268   0.13196
   5   32765.7    305.2      8.62018   0.02217  -0.15318  -0.04180
   6   33701.4    296.7     -0.61291   0.00414  -0.01951   0.00001
   7   35597.9    280.9     15.91485  -0.02156   0.10000   0.01005
   8   36511.2    273.9    -48.00925   0.04554  -0.02035   0.27593
   9   37460.7    266.9      1.85862   0.03374  -0.01724   0.22293
  10   38054.6    262.8      4.72557   0.01171  -0.05630  -0.00346

Total run time:      798.022 sec

           *** ORCA-CIS/TD-DFT FINISHED WITHOUT ERROR ***

Maximum memory used throughout the entire CIS-calculation: 1882.3 MB

-----------------------
CIS/TD-DFT TOTAL ENERGY
-----------------------

    E(SCF)  =   -846.577353569 Eh
    DE(CIS) =      0.123863488 Eh (Root  1)
    ----------------------------- ---------
    E(tot)  =   -846.453490081 Eh


-------------------------   --------------------
FINAL SINGLE POINT ENERGY      -846.453490081382
-------------------------   --------------------


                            ***************************************
                            *     ORCA property calculations      *
                            ***************************************

                                    ---------------------
                                    Active property flags
                                    ---------------------
   (+) Dipole Moment


------------------------------------------------------------------------------
                       ORCA ELECTRIC PROPERTIES CALCULATION
------------------------------------------------------------------------------

Dipole Moment Calculation                       ... on
Quadrupole Moment Calculation                   ... off
Polarizability Calculation                      ... off
GBWName                                         ... b3lyp-train-10_job2.gbw
Electron density                                ... b3lyp-train-10_job2.scfp
The origin for moment calculation is the CENTER OF MASS  = ( 0.031230, -0.157642 -0.032744)

-------------
DIPOLE MOMENT
-------------
                                X             Y             Z
Electronic contribution:      0.63322      -3.18803      -0.33320
Nuclear contribution   :     -0.60888       3.07589       0.31530
                        -----------------------------------------
Total Dipole Moment    :      0.02434      -0.11214      -0.01790
                        -----------------------------------------
Magnitude (a.u.)       :      0.11614
Magnitude (Debye)      :      0.29520



--------------------
Rotational spectrum 
--------------------
 
Rotational constants in cm-1:     0.015049     0.009253     0.006183 
Rotational constants in MHz :   451.145058   277.397720   185.369387 

 Dipole components along the rotational axes: 
x,y,z [a.u.] :     0.001364     0.115992    -0.005646 
x,y,z [Debye]:     0.003468     0.294829    -0.014350 

 

Timings for individual modules:

Sum of individual times         ...     1265.736 sec (=  21.096 min)
GTO integral calculation        ...        5.596 sec (=   0.093 min)   0.4 %
SCF iterations                  ...      461.382 sec (=   7.690 min)  36.5 %
CIS module                      ...      798.758 sec (=  13.313 min)  63.1 %



                             ****ORCA TERMINATED NORMALLY****
TOTAL RUN TIME: 0 days 3 hours 54 minutes 46 seconds 978 msec
