
                                 *****************
                                 * O   R   C   A *
                                 *****************

                                            #,                                       
                                            ###                                      
                                            ####                                     
                                            #####                                    
                                            ######                                   
                                           ########,                                 
                                     ,,################,,,,,                         
                               ,,#################################,,                 
                          ,,##########################################,,             
                       ,#########################################, ''#####,          
                    ,#############################################,,   '####,        
                  ,##################################################,,,,####,       
                ,###########''''           ''''###############################       
              ,#####''   ,,,,##########,,,,          '''####'''          '####       
            ,##' ,,,,###########################,,,                        '##       
           ' ,,###''''                  '''############,,,                           
         ,,##''                                '''############,,,,        ,,,,,,###''
      ,#''                                            '''#######################'''  
     '                                                          ''''####''''         
             ,#######,   #######,   ,#######,      ##                                
            ,#'     '#,  ##    ##  ,#'     '#,    #''#        ######   ,####,        
            ##       ##  ##   ,#'  ##            #'  '#       #        #'  '#        
            ##       ##  #######   ##           ,######,      #####,   #    #        
            '#,     ,#'  ##    ##  '#,     ,#' ,#      #,         ##   #,  ,#        
             '#######'   ##     ##  '#######'  #'      '#     #####' # '####'        



                  #######################################################
                  #                        -***-                        #
                  #          Department of theory and spectroscopy      #
                  #    Directorship and core code : Frank Neese         #
                  #        Max Planck Institute fuer Kohlenforschung    #
                  #                Kaiser Wilhelm Platz 1               #
                  #                 D-45470 Muelheim/Ruhr               #
                  #                      Germany                        #
                  #                                                     #
                  #                  All rights reserved                #
                  #                        -***-                        #
                  #######################################################


                         Program Version 5.0.2 -  RELEASE  -


 With contributions from (in alphabetic order):
   Daniel Aravena         : Magnetic Suceptibility
   Michael Atanasov       : Ab Initio Ligand Field Theory (pilot matlab implementation)
   Alexander A. Auer      : GIAO ZORA, VPT2 properties, NMR spectrum
   Ute Becker             : Parallelization
   Giovanni Bistoni       : ED, misc. LED, open-shell LED, HFLD
   Martin Brehm           : Molecular dynamics
   Dmytro Bykov           : SCF Hessian
   Vijay G. Chilkuri      : MRCI spin determinant printing, contributions to CSF-ICE
   Dipayan Datta          : RHF DLPNO-CCSD density
   Achintya Kumar Dutta   : EOM-CC, STEOM-CC
   Dmitry Ganyushin       : Spin-Orbit,Spin-Spin,Magnetic field MRCI
   Miquel Garcia          : C-PCM and meta-GGA Hessian, CC/C-PCM, Gaussian charge scheme
   Yang Guo               : DLPNO-NEVPT2, F12-NEVPT2, CIM, IAO-localization
   Andreas Hansen         : Spin unrestricted coupled pair/coupled cluster methods
   Benjamin Helmich-Paris : MC-RPA, TRAH-SCF, COSX integrals
   Lee Huntington         : MR-EOM, pCC
   Robert Izsak           : Overlap fitted RIJCOSX, COSX-SCS-MP3, EOM
   Marcus Kettner         : VPT2
   Christian Kollmar      : KDIIS, OOCD, Brueckner-CCSD(T), CCSD density, CASPT2, CASPT2-K
   Simone Kossmann        : Meta GGA functionals, TD-DFT gradient, OOMP2, MP2 Hessian
   Martin Krupicka        : Initial AUTO-CI
   Lucas Lang             : DCDCAS
   Marvin Lechner         : AUTO-CI (C++ implementation), FIC-MRCC
   Dagmar Lenk            : GEPOL surface, SMD
   Dimitrios Liakos       : Extrapolation schemes; Compound Job, initial MDCI parallelization
   Dimitrios Manganas     : Further ROCIS development; embedding schemes
   Dimitrios Pantazis     : SARC Basis sets
   Anastasios Papadopoulos: AUTO-CI, single reference methods and gradients
   Taras Petrenko         : DFT Hessian,TD-DFT gradient, ASA, ECA, R-Raman, ABS, FL, XAS/XES, NRVS
   Peter Pinski           : DLPNO-MP2, DLPNO-MP2 Gradient
   Christoph Reimann      : Effective Core Potentials
   Marius Retegan         : Local ZFS, SOC
   Christoph Riplinger    : Optimizer, TS searches, QM/MM, DLPNO-CCSD(T), (RO)-DLPNO pert. Triples
   Tobias Risthaus        : Range-separated hybrids, TD-DFT gradient, RPA, STAB
   Michael Roemelt        : Original ROCIS implementation
   Masaaki Saitow         : Open-shell DLPNO-CCSD energy and density
   Barbara Sandhoefer     : DKH picture change effects
   Avijit Sen             : IP-ROCIS
   Kantharuban Sivalingam : CASSCF convergence, NEVPT2, FIC-MRCI
   Bernardo de Souza      : ESD, SOC TD-DFT
   Georgi Stoychev        : AutoAux, RI-MP2 NMR, DLPNO-MP2 response
   Willem Van den Heuvel  : Paramagnetic NMR
   Boris Wezisla          : Elementary symmetry handling
   Frank Wennmohs         : Technical directorship


 We gratefully acknowledge several colleagues who have allowed us to
 interface, adapt or use parts of their codes:
   Stefan Grimme, W. Hujo, H. Kruse, P. Pracht,  : VdW corrections, initial TS optimization,
                  C. Bannwarth, S. Ehlert          DFT functionals, gCP, sTDA/sTD-DF
   Ed Valeev, F. Pavosevic, A. Kumar             : LibInt (2-el integral package), F12 methods
   Garnet Chan, S. Sharma, J. Yang, R. Olivares  : DMRG
   Ulf Ekstrom                                   : XCFun DFT Library
   Mihaly Kallay                                 : mrcc  (arbitrary order and MRCC methods)
   Jiri Pittner, Ondrej Demel                    : Mk-CCSD
   Frank Weinhold                                : gennbo (NPA and NBO analysis)
   Christopher J. Cramer and Donald G. Truhlar   : smd solvation model
   Lars Goerigk                                  : TD-DFT with DH, B97 family of functionals
   V. Asgeirsson, H. Jonsson                     : NEB implementation
   FAccTs GmbH                                   : IRC, NEB, NEB-TS, DLPNO-Multilevel, CI-OPT
                                                   MM, QMMM, 2- and 3-layer-ONIOM, Crystal-QMMM,
                                                   LR-CPCM, SF, NACMEs, symmetry and pop. for TD-DFT,
                                                   nearIR, NL-DFT gradient (VV10), updates on ESD,
                                                   ML-optimized integration grids
   S Lehtola, MJT Oliveira, MAL Marques          : LibXC Library
   Liviu Ungur et al                             : ANISO software


 Your calculation uses the libint2 library for the computation of 2-el integrals
 For citations please refer to: http://libint.valeyev.net

 Your ORCA version has been built with support for libXC version: 5.1.0
 For citations please refer to: https://tddft.org/programs/libxc/

 This ORCA versions uses:
   CBLAS   interface :  Fast vector & matrix operations
   LAPACKE interface :  Fast linear algebra routines
   SCALAPACK package :  Parallel linear algebra routines
   Shared memory     :  Shared parallel matrices
   BLAS/LAPACK       :  OpenBLAS 0.3.15  USE64BITINT DYNAMIC_ARCH NO_AFFINITY Sandybridge SINGLE_THREADED
        Core in use  :  Sandybridge
   Copyright (c) 2011-2014, The OpenBLAS Project


Your calculation utilizes the atom-pairwise dispersion correction
with the Becke-Johnson damping scheme (D3BJ)
Cite in your paper:
S.Grimme, S.Ehrlich, L.Goerigk, J Comput Chem, (2011), 32, 1456–1465 
S.Grimme, J.Antony, S.Ehrlich and H.Krieg, J.Chem.Phys., 132, (2010), 154104 
   

Your calculation utilizes the SMD solvation module
Please cite in your paper:
A.V. Marenich, C.J. Cramer, D.G. Truhlar J. Phys. Chem. B, 113, (2009), 6378 

================================================================================

----- Orbital basis set information -----
Your calculation utilizes the basis: aug-cc-pVTZ 
    H, B-Ne : Obtained from the ccRepo (grant-hill.group.shef.ac.uk/ccrepo) Feb. 2017
              R. A. Kendall, T. H. Dunning, Jr., R. J. Harrison, J. Chem. Phys. 96, 6796 (1992)
         He : Obtained from the ccRepo (grant-hill.group.shef.ac.uk/ccrepo) Feb. 2017
              D. E. Woon, T. H. Dunning, Jr., J. Chem. Phys. 100, 2975 (1994)
  Li-Be, Na : Obtained from the ccRepo (grant-hill.group.shef.ac.uk/ccrepo) Feb. 2017
              B. P. Prascher, D. E. Woon, K. A. Peterson, T. H. Dunning, Jr., A. K. Wilson, Theor. Chem. Acc. 128, 69 (2011)
         Mg : Obtained from the Peterson Research Group Website (tyr0.chem.wsu.edu/~kipeters) Feb. 2017
              B. P. Prascher, D. E. Woon, K. A. Peterson, T. H. Dunning, Jr., A. K. Wilson, Theor. Chem. Acc. 128, 69 (2011)
      Al-Ar : Obtained from the ccRepo (grant-hill.group.shef.ac.uk/ccrepo) Feb. 2017
              D. E. Woon, T. H. Dunning, Jr., J. Chem. Phys. 98, 1358 (1993)
      Sc-Zn : Obtained from the ccRepo (grant-hill.group.shef.ac.uk/ccrepo) Feb. 2017
              N. B. Balabanov, K. A. Peterson, J. Chem. Phys. 123, 064107 (2005)
              N. B. Balabanov, K. A. Peterson, J. Chem. Phys. 125, 074110 (2006)
      Ga-Kr : Obtained from the ccRepo (grant-hill.group.shef.ac.uk/ccrepo) Feb. 2017
              A. K. Wilson, D. E. Woon, K. A. Peterson, T. H. Dunning, Jr., J. Chem. Phys. 110, 7667 (1999)
     Ag, Au : Obtained from the Peterson Research Group Website (tyr0.chem.wsu.edu/~kipeters) Feb. 2017
              K. A. Peterson, C. Puzzarini, Theor. Chem. Acc. 114, 283 (2005)

The basis set includes element-specific modifications.

Your calculation utilizes the basis: cc-pVTZ 
       H, B-Ne : Obtained from the ccRepo (grant-hill.group.shef.ac.uk/ccrepo) Feb. 2017
                 T. H. Dunning, Jr., J. Chem. Phys. 90, 1007 (1989)
            He : Obtained from the ccRepo (grant-hill.group.shef.ac.uk/ccrepo) Feb. 2017
                 D. E. Woon, T. H. Dunning, Jr., J. Chem. Phys. 100, 2975 (1994)
  Li-Be, Na-Mg : Obtained from the ccRepo (grant-hill.group.shef.ac.uk/ccrepo) Feb. 2017
                 B. P. Prascher, D. E. Woon, K. A. Peterson, T. H. Dunning, Jr., A. K. Wilson, Theor. Chem. Acc. 128, 69 (2011)
         Al-Ar : Obtained from the ccRepo (grant-hill.group.shef.ac.uk/ccrepo) Feb. 2017
                 D. E. Woon, T. H. Dunning, Jr., J. Chem. Phys. 98, 1358 (1993)
            Ca : Obtained from the Peterson Research Group Website (tyr0.chem.wsu.edu/~kipeters) Feb. 2017
                 J. Koput, K. A. Peterson, J. Phys. Chem. 106, 9595 (2002)
         Sc-Zn : Obtained from the ccRepo (grant-hill.group.shef.ac.uk/ccrepo) Feb. 2017
                 N. B. Balabanov, K. A. Peterson, J. Chem. Phys. 123, 064107 (2005)
                 N. B. Balabanov, K. A. Peterson, J. Chem. Phys. 125, 074110 (2006)
         Ga-Kr : Obtained from the ccRepo (grant-hill.group.shef.ac.uk/ccrepo) Feb. 2017
                 A. K. Wilson, D. E. Woon, K. A. Peterson, T. H. Dunning, Jr., J. Chem. Phys. 110, 7667 (1999)
             Y : Obtained from the ccRepo (grant-hill.group.shef.ac.uk/ccrepo) Feb. 2017
                 K. A. Peterson, D. Figgen, M. Dolg, H. Stoll, J. Chem. Phys. 126, 124101 (2007)
        Ag, Au : Obtained from the Peterson Research Group Website (tyr0.chem.wsu.edu/~kipeters) Feb. 2017
                 K. A. Peterson, C. Puzzarini, Theor. Chem. Acc. 114, 283 (2005)

----- AuxJ basis set information -----
Your calculation utilizes the auxiliary basis: aug-cc-pVTZ/JK 
  H, B-F, Al-Cl, Ga-Br : Obtained from the TURBOMOLE 7.0 basis set library

The basis set includes element-specific modifications.

Your calculation utilizes the auxiliary basis: cc-pVTZ/JK 
  H, B-F, Al-Cl, Ga-Br : Obtained from the TURBOMOLE 7.0 basis set library

----- AuxC basis set information -----
Your calculation utilizes the auxiliary basis: aug-cc-pVTZ/C 
  H-He, B-F, Al-Ar, Ga-Kr : Obtained from the EMSL Basis Set Exchange (bse.pnl.gov) Feb. 2017
                            F. Weigend, A. Kohn, C. Hattig, J. Chem. Phys. 116, 3175 (2002)
                   Be, Mg : Obtained from the TURBOMOLE 7.0 basis set library
                            C. Haettig, Phys. Chem. Chem. Phys. 7, 59 (2005)
                       Ne : Obtained from the EMSL Basis Set Exchange (bse.pnl.gov) Feb. 2017
                            C. Haettig, Phys. Chem. Chem. Phys. 7, 59 (2005)
                            F. Weigend, A. Kohn, C. Hattig, J. Chem. Phys. 116, 3175 (2002)
                    Sc-Zn : Obtained from the EMSL Basis Set Exchange (bse.pnl.gov) Feb. 2017
                            J. G. Hill, J. A. Platts, J. Chem. Phys. 128, 044104 (2008)

The basis set includes element-specific modifications.

Your calculation utilizes the auxiliary basis: cc-pVTZ/C 
  Obtained from the EMSL Basis Set Exchange (bse.pnl.gov) Feb. 2017
  H-He, B-F, Al-Ar, Ga-Kr : F. Weigend, A. Kohn, C. Hattig, J. Chem. Phys. 116, 3175 (2002)
             Li-Be, Na-Mg : C. Haettig, Phys. Chem. Chem. Phys. 7, 59 (2005)
                       Ne : C. Haettig, Phys. Chem. Chem. Phys. 7, 59 (2005)
                            F. Weigend, A. Kohn, C. Hattig, J. Chem. Phys. 116, 3175 (2002)
                    Sc-Zn : J. G. Hill, J. A. Platts, J. Chem. Phys. 128, 044104 (2008)

================================================================================
                                        WARNINGS
                       Please study these warnings very carefully!
================================================================================


WARNING: Geometry Optimization
  ===> : Switching off AutoStart
         For restart on a previous wavefunction, please use MOREAD

INFO   : the flag for use of the SHARK integral package has been found!



***************************************
The coordinates will be read from file: 
***************************************


Your calculation utilizes the atom-pairwise dispersion correction
with the Becke-Johnson damping scheme (D3BJ)
Cite in your paper:
S.Grimme, S.Ehrlich, L.Goerigk, J Comput Chem, (2011), 32, 1456–1465 
S.Grimme, J.Antony, S.Ehrlich and H.Krieg, J.Chem.Phys., 132, (2010), 154104 
   

Your calculation utilizes the SMD solvation module
Please cite in your paper:
A.V. Marenich, C.J. Cramer, D.G. Truhlar J. Phys. Chem. B, 113, (2009), 6378 

================================================================================

----- Orbital basis set information -----
Your calculation utilizes the basis: aug-cc-pVTZ 
    H, B-Ne : Obtained from the ccRepo (grant-hill.group.shef.ac.uk/ccrepo) Feb. 2017
              R. A. Kendall, T. H. Dunning, Jr., R. J. Harrison, J. Chem. Phys. 96, 6796 (1992)
         He : Obtained from the ccRepo (grant-hill.group.shef.ac.uk/ccrepo) Feb. 2017
              D. E. Woon, T. H. Dunning, Jr., J. Chem. Phys. 100, 2975 (1994)
  Li-Be, Na : Obtained from the ccRepo (grant-hill.group.shef.ac.uk/ccrepo) Feb. 2017
              B. P. Prascher, D. E. Woon, K. A. Peterson, T. H. Dunning, Jr., A. K. Wilson, Theor. Chem. Acc. 128, 69 (2011)
         Mg : Obtained from the Peterson Research Group Website (tyr0.chem.wsu.edu/~kipeters) Feb. 2017
              B. P. Prascher, D. E. Woon, K. A. Peterson, T. H. Dunning, Jr., A. K. Wilson, Theor. Chem. Acc. 128, 69 (2011)
      Al-Ar : Obtained from the ccRepo (grant-hill.group.shef.ac.uk/ccrepo) Feb. 2017
              D. E. Woon, T. H. Dunning, Jr., J. Chem. Phys. 98, 1358 (1993)
      Sc-Zn : Obtained from the ccRepo (grant-hill.group.shef.ac.uk/ccrepo) Feb. 2017
              N. B. Balabanov, K. A. Peterson, J. Chem. Phys. 123, 064107 (2005)
              N. B. Balabanov, K. A. Peterson, J. Chem. Phys. 125, 074110 (2006)
      Ga-Kr : Obtained from the ccRepo (grant-hill.group.shef.ac.uk/ccrepo) Feb. 2017
              A. K. Wilson, D. E. Woon, K. A. Peterson, T. H. Dunning, Jr., J. Chem. Phys. 110, 7667 (1999)
     Ag, Au : Obtained from the Peterson Research Group Website (tyr0.chem.wsu.edu/~kipeters) Feb. 2017
              K. A. Peterson, C. Puzzarini, Theor. Chem. Acc. 114, 283 (2005)

The basis set includes element-specific modifications.

Your calculation utilizes the basis: cc-pVTZ 
       H, B-Ne : Obtained from the ccRepo (grant-hill.group.shef.ac.uk/ccrepo) Feb. 2017
                 T. H. Dunning, Jr., J. Chem. Phys. 90, 1007 (1989)
            He : Obtained from the ccRepo (grant-hill.group.shef.ac.uk/ccrepo) Feb. 2017
                 D. E. Woon, T. H. Dunning, Jr., J. Chem. Phys. 100, 2975 (1994)
  Li-Be, Na-Mg : Obtained from the ccRepo (grant-hill.group.shef.ac.uk/ccrepo) Feb. 2017
                 B. P. Prascher, D. E. Woon, K. A. Peterson, T. H. Dunning, Jr., A. K. Wilson, Theor. Chem. Acc. 128, 69 (2011)
         Al-Ar : Obtained from the ccRepo (grant-hill.group.shef.ac.uk/ccrepo) Feb. 2017
                 D. E. Woon, T. H. Dunning, Jr., J. Chem. Phys. 98, 1358 (1993)
            Ca : Obtained from the Peterson Research Group Website (tyr0.chem.wsu.edu/~kipeters) Feb. 2017
                 J. Koput, K. A. Peterson, J. Phys. Chem. 106, 9595 (2002)
         Sc-Zn : Obtained from the ccRepo (grant-hill.group.shef.ac.uk/ccrepo) Feb. 2017
                 N. B. Balabanov, K. A. Peterson, J. Chem. Phys. 123, 064107 (2005)
                 N. B. Balabanov, K. A. Peterson, J. Chem. Phys. 125, 074110 (2006)
         Ga-Kr : Obtained from the ccRepo (grant-hill.group.shef.ac.uk/ccrepo) Feb. 2017
                 A. K. Wilson, D. E. Woon, K. A. Peterson, T. H. Dunning, Jr., J. Chem. Phys. 110, 7667 (1999)
             Y : Obtained from the ccRepo (grant-hill.group.shef.ac.uk/ccrepo) Feb. 2017
                 K. A. Peterson, D. Figgen, M. Dolg, H. Stoll, J. Chem. Phys. 126, 124101 (2007)
        Ag, Au : Obtained from the Peterson Research Group Website (tyr0.chem.wsu.edu/~kipeters) Feb. 2017
                 K. A. Peterson, C. Puzzarini, Theor. Chem. Acc. 114, 283 (2005)

----- AuxJ basis set information -----
Your calculation utilizes the auxiliary basis: aug-cc-pVTZ/JK 
  H, B-F, Al-Cl, Ga-Br : Obtained from the TURBOMOLE 7.0 basis set library

The basis set includes element-specific modifications.

Your calculation utilizes the auxiliary basis: cc-pVTZ/JK 
  H, B-F, Al-Cl, Ga-Br : Obtained from the TURBOMOLE 7.0 basis set library

----- AuxC basis set information -----
Your calculation utilizes the auxiliary basis: aug-cc-pVTZ/C 
  H-He, B-F, Al-Ar, Ga-Kr : Obtained from the EMSL Basis Set Exchange (bse.pnl.gov) Feb. 2017
                            F. Weigend, A. Kohn, C. Hattig, J. Chem. Phys. 116, 3175 (2002)
                   Be, Mg : Obtained from the TURBOMOLE 7.0 basis set library
                            C. Haettig, Phys. Chem. Chem. Phys. 7, 59 (2005)
                       Ne : Obtained from the EMSL Basis Set Exchange (bse.pnl.gov) Feb. 2017
                            C. Haettig, Phys. Chem. Chem. Phys. 7, 59 (2005)
                            F. Weigend, A. Kohn, C. Hattig, J. Chem. Phys. 116, 3175 (2002)
                    Sc-Zn : Obtained from the EMSL Basis Set Exchange (bse.pnl.gov) Feb. 2017
                            J. G. Hill, J. A. Platts, J. Chem. Phys. 128, 044104 (2008)

The basis set includes element-specific modifications.

Your calculation utilizes the auxiliary basis: cc-pVTZ/C 
  Obtained from the EMSL Basis Set Exchange (bse.pnl.gov) Feb. 2017
  H-He, B-F, Al-Ar, Ga-Kr : F. Weigend, A. Kohn, C. Hattig, J. Chem. Phys. 116, 3175 (2002)
             Li-Be, Na-Mg : C. Haettig, Phys. Chem. Chem. Phys. 7, 59 (2005)
                       Ne : C. Haettig, Phys. Chem. Chem. Phys. 7, 59 (2005)
                            F. Weigend, A. Kohn, C. Hattig, J. Chem. Phys. 116, 3175 (2002)
                    Sc-Zn : J. G. Hill, J. A. Platts, J. Chem. Phys. 128, 044104 (2008)

================================================================================
                                        WARNINGS
                       Please study these warnings very carefully!
================================================================================

INFO   : Checking CIS options ...
  ===> : (D) CORRECTION FOUND - SETTING MODE=3
  ===> : JK MODE FOUND - ACTIVATING RI-MP2 CODE
  ===> : MP2 AND CIS FOUND - CHECKING
WARNING: CIS(D) and MP2 runs must have the same orbital window
  ===> : adjusting orbital windows

WARNING: No MP2 level density has been requested!
         To caclulate MP2 level properties use
         %mp2 Density relaxed end
         or
         %mp2 Density unrelaxed end
         Otherwise for double-hybrid DFT only the energy is correct!

WARNING: The frozen-core approximation is turned on by default for 
         the MP2 part of double-hybrid DFT.

WARNING:  You are using a Range-Separated Double Hybrid functional with Doubles Correction 
          Changing Mode to AOINTS 


INFO   : the flag for use of the SHARK integral package has been found!

================================================================================
                                       INPUT FILE
================================================================================
NAME = optpbed3-wb2plyp-train-10.inp
|  1> ! pbe0 d3bj aug-cc-PVTZ RIJCOSX Opt
|  2> %maxcore 4000
|  3> %basis
|  4>  AuxJ "aug-cc-PVTZ/JK"
|  5>  AuxC "aug-cc-PVTZ/C"
|  6>  newGTO H "cc-PVTZ" end
|  7>  newAuxJGTO H "cc-PVTZ/JK" end
|  8>  newAuxCGTO H "cc-PVTZ/C" end
|  9> end
| 10> %cpcm
| 11>  SMD true
| 12>  SMDsolvent "chloroform"
| 13> end
| 14> %pal nprocs 4 end
| 15> * xyz 0 1
| 16> C          2.63170        2.93990        1.16310
| 17> C          1.32380        2.62580        1.54390
| 18> C          0.74590        1.44980        1.14140
| 19> C          1.44530        0.52960        0.33820
| 20> C          2.80920        0.79650        0.06560
| 21> C          3.36580        2.02840        0.45190
| 22> C          3.61690       -0.21340       -0.52300
| 23> C          3.12690       -1.46470       -0.69130
| 24> C          1.75930       -1.75730       -0.44100
| 25> C          1.28950       -3.08870       -0.51880
| 26> C         -0.00240       -3.37950       -0.21260
| 27> C         -0.94380       -2.34060       -0.02890
| 28> C         -2.30870       -2.64690        0.21990
| 29> C         -3.24230       -1.66890        0.29770
| 30> C         -2.90210       -0.32930       -0.03160
| 31> C         -3.89910        0.65190       -0.17360
| 32> C         -3.59490        1.90070       -0.64630
| 33> C         -2.28250        2.19220       -1.02970
| 34> C         -1.28630        1.26620       -0.85920
| 35> C         -1.55140        0.00340       -0.29700
| 36> C         -0.53090       -0.99550       -0.11270
| 37> C          0.87200       -0.71840       -0.09410
| 38> H          3.06750        3.88200        1.46180
| 39> H          0.76880        3.31200        2.16650
| 40> H         -0.25440        1.21190        1.46850
| 41> H          4.39820        2.22940        0.20270
| 42> H          4.64570        0.01930       -0.75770
| 43> H          3.76360       -2.26820       -1.03360
| 44> H          1.99210       -3.87110       -0.76710
| 45> H         -0.34570       -4.40290       -0.16360
| 46> H         -2.57920       -3.68400        0.35910
| 47> H         -4.27190       -1.89760        0.53290
| 48> H         -4.91940        0.39010        0.06890
| 49> H         -4.36680        2.64770       -0.75860
| 50> H         -2.05490        3.15160       -1.47070
| 51> H         -0.28510        1.49890       -1.18690
| 52> *
| 53> 
| 54> 
| 55> $new_job
| 56> ! wb2plyp aug-cc-PVTZ RIJCOSX SP
| 57> %maxcore 4000
| 58> %basis
| 59>  AuxJ "aug-cc-PVTZ/JK"
| 60>  AuxC "aug-cc-PVTZ/C"
| 61>  newGTO H "cc-PVTZ" end
| 62>  newAuxJGTO H "cc-PVTZ/JK" end
| 63>  newAuxCGTO H "cc-PVTZ/C" end
| 64> end
| 65> %cpcm
| 66>  SMD true
| 67>  SMDsolvent "chloroform"
| 68> end
| 69> %pal nprocs 4 end
| 70> %tddft
| 71>  nroots 10
| 72>  maxdim 7
| 73> end
| 74> * xyzfile 0 1
| 75> 
| 76>                          ****END OF INPUT****
================================================================================


                 $$$$$$$$$$$$$$$$$$$$$$$$$$$$$$$$$$$$$$$$$$$$$$ 
                 $ THERE ARE  2 JOBS TO BE PROCESSED THIS RUN $
                 $$$$$$$$$$$$$$$$$$$$$$$$$$$$$$$$$$$$$$$$$$$$$$ 




                 $$$$$$$$$$$$$$$$  JOB NUMBER  1 $$$$$$$$$$$$$$


                       *****************************
                       * Geometry Optimization Run *
                       *****************************

Geometry optimization settings:
Update method            Update   .... BFGS
Choice of coordinates    CoordSys .... Z-matrix Internals
Initial Hessian          InHess   .... Almoef's Model

Convergence Tolerances:
Energy Change            TolE     ....  5.0000e-06 Eh
Max. Gradient            TolMAXG  ....  3.0000e-04 Eh/bohr
RMS Gradient             TolRMSG  ....  1.0000e-04 Eh/bohr
Max. Displacement        TolMAXD  ....  4.0000e-03 bohr
RMS Displacement         TolRMSD  ....  2.0000e-03 bohr
Strict Convergence                ....  False
------------------------------------------------------------------------------
                        ORCA OPTIMIZATION COORDINATE SETUP
------------------------------------------------------------------------------

The optimization will be done in new redundant internal coordinates
Making redundant internal coordinates   ...  (new redundants) done
Evaluating the initial hessian          ...  (Almloef) done
Evaluating the coordinates              ...  done
Calculating the B-matrix                .... done
Calculating the G-matrix                .... done
Diagonalizing the G-matrix              .... done
Small eigenvalue found = 6.732e-03
Small eigenvalue found = 2.499e-02
Small eigenvalue found = 2.715e-02
The first mode is                       ....  108
The number of degrees of freedom        ....  102

    -----------------------------------------------------------------
                    Redundant Internal Coordinates


    -----------------------------------------------------------------
         Definition                    Initial Value    Approx d2E/dq
    -----------------------------------------------------------------
      1. B(C   1,C   0)                  1.3980         0.606808   
      2. B(C   2,C   1)                  1.3707         0.670585   
      3. B(C   3,C   2)                  1.4075         0.585891   
      4. B(C   4,C   3)                  1.4163         0.567355   
      5. B(C   5,C   4)                  1.4059         0.589305   
      6. B(C   5,C   0)                  1.3695         0.673657   
      7. B(C   6,C   4)                  1.4208         0.557916   
      8. B(C   7,C   6)                  1.3543         0.712307   
      9. B(C   8,C   7)                  1.4208         0.558011   
     10. B(C   9,C   8)                  1.4140         0.572072   
     11. B(C  10,C   9)                  1.3592         0.699736   
     12. B(C  11,C  10)                  1.4140         0.572145   
     13. B(C  12,C  11)                  1.4208         0.557955   
     14. B(C  13,C  12)                  1.3543         0.712337   
     15. B(C  14,C  13)                  1.4208         0.557933   
     16. B(C  15,C  14)                  1.4060         0.589061   
     17. B(C  16,C  15)                  1.3695         0.673708   
     18. B(C  17,C  16)                  1.3980         0.606735   
     19. B(C  18,C  17)                  1.3708         0.670576   
     20. B(C  19,C  18)                  1.4075         0.585928   
     21. B(C  19,C  14)                  1.4162         0.567541   
     22. B(C  20,C  19)                  1.4399         0.520230   
     23. B(C  20,C  11)                  1.4095         0.581519   
     24. B(C  21,C  20)                  1.4301         0.539164   
     25. B(C  21,C   8)                  1.4096         0.581404   
     26. B(C  21,C   3)                  1.4398         0.520314   
     27. B(H  22,C   0)                  1.0801         0.373387   
     28. B(H  23,C   1)                  1.0801         0.373495   
     29. B(H  24,C   2)                  1.0790         0.374982   
     30. B(H  25,C   5)                  1.0809         0.372337   
     31. B(H  26,C   6)                  1.0806         0.372773   
     32. B(H  27,C   7)                  1.0808         0.372453   
     33. B(H  28,C   9)                  1.0805         0.372909   
     34. B(H  29,C  10)                  1.0806         0.372811   
     35. B(H  30,C  12)                  1.0808         0.372482   
     36. B(H  31,C  13)                  1.0806         0.372751   
     37. B(H  32,C  15)                  1.0809         0.372334   
     38. B(H  33,C  16)                  1.0800         0.373543   
     39. B(H  34,C  17)                  1.0802         0.373364   
     40. B(H  35,C  18)                  1.0789         0.375143   
     41. A(C   5,C   0,H  22)          120.5208         0.360128   
     42. A(C   1,C   0,H  22)          119.8757         0.353790   
     43. A(C   1,C   0,C   5)          119.5656         0.438902   
     44. A(C   2,C   1,H  23)          119.8477         0.359865   
     45. A(C   0,C   1,H  23)          119.6719         0.353807   
     46. A(C   0,C   1,C   2)          120.4785         0.438541   
     47. A(C   1,C   2,C   3)          121.2630         0.435776   
     48. A(C   3,C   2,H  24)          119.3093         0.351950   
     49. A(C   1,C   2,H  24)          119.4061         0.360109   
     50. A(C   2,C   3,C  21)          122.6950         0.416424   
     51. A(C   2,C   3,C   4)          117.7214         0.422901   
     52. A(C   4,C   3,C  21)          119.2759         0.414050   
     53. A(C   3,C   4,C   6)          119.5543         0.419224   
     54. A(C   3,C   4,C   5)          119.5712         0.423340   
     55. A(C   5,C   4,C   6)          120.7690         0.422073   
     56. A(C   4,C   5,H  25)          118.5369         0.351874   
     57. A(C   0,C   5,H  25)          120.5267         0.359955   
     58. A(C   0,C   5,C   4)          120.9082         0.436592   
     59. A(C   4,C   6,H  26)          118.5643         0.348706   
     60. A(C   7,C   6,H  26)          121.0939         0.363471   
     61. A(C   4,C   6,C   7)          120.1671         0.436675   
     62. A(C   8,C   7,H  27)          118.0171         0.348666   
     63. A(C   6,C   7,C   8)          121.1079         0.436688   
     64. A(C   6,C   7,H  27)          120.8698         0.363418   
     65. A(C   7,C   8,C   9)          120.2674         0.419856   
     66. A(C   7,C   8,C  21)          119.8337         0.421070   
     67. A(C   9,C   8,C  21)          119.8920         0.422946   
     68. A(C   8,C   9,H  28)          118.5819         0.350205   
     69. A(C   8,C   9,C  10)          120.3226         0.437246   
     70. A(C  10,C   9,H  28)          120.9924         0.362390   
     71. A(C   9,C  10,H  29)          120.9866         0.362373   
     72. A(C  11,C  10,H  29)          118.5850         0.350197   
     73. A(C   9,C  10,C  11)          120.3251         0.437256   
     74. A(C  10,C  11,C  12)          120.2614         0.419858   
     75. A(C  12,C  11,C  20)          119.8377         0.421077   
     76. A(C  10,C  11,C  20)          119.8941         0.422970   
     77. A(C  11,C  12,H  30)          118.0246         0.348664   
     78. A(C  11,C  12,C  13)          121.1053         0.436684   
     79. A(C  13,C  12,H  30)          120.8648         0.363425   
     80. A(C  14,C  13,H  31)          118.5634         0.348705   
     81. A(C  12,C  13,H  31)          121.0971         0.363470   
     82. A(C  12,C  13,C  14)          120.1649         0.436681   
     83. A(C  15,C  14,C  19)          119.5667         0.423334   
     84. A(C  13,C  14,C  19)          119.5584         0.419251   
     85. A(C  13,C  14,C  15)          120.7695         0.422044   
     86. A(C  16,C  15,H  32)          120.5288         0.359959   
     87. A(C  14,C  15,H  32)          118.5320         0.351849   
     88. A(C  14,C  15,C  16)          120.9109         0.436565   
     89. A(C  17,C  16,H  33)          119.8821         0.353808   
     90. A(C  15,C  16,H  33)          120.5198         0.360158   
     91. A(C  15,C  16,C  17)          119.5598         0.438899   
     92. A(C  16,C  17,H  34)          119.6688         0.353779   
     93. A(C  16,C  17,C  18)          120.4835         0.438530   
     94. A(C  18,C  17,H  34)          119.8459         0.359843   
     95. A(C  17,C  18,C  19)          121.2583         0.435780   
     96. A(C  19,C  18,H  35)          119.3168         0.351979   
     97. A(C  17,C  18,H  35)          119.4031         0.360135   
     98. A(C  18,C  19,C  20)          122.6883         0.416416   
     99. A(C  14,C  19,C  20)          119.2760         0.414062   
    100. A(C  14,C  19,C  18)          117.7285         0.422931   
    101. A(C  11,C  20,C  19)          117.5180         0.415857   
    102. A(C  19,C  20,C  21)          124.2291         0.410310   
    103. A(C  11,C  20,C  21)          118.1307         0.418512   
    104. A(C   8,C  21,C  20)          118.1306         0.418498   
    105. A(C   3,C  21,C  20)          124.2253         0.410322   
    106. A(C   3,C  21,C   8)          117.5217         0.415854   
    107. D(C   2,C   1,C   0,H  22)    178.2288         0.025416   
    108. D(H  23,C   1,C   0,H  22)     -2.2759         0.025416   
    109. D(C   2,C   1,C   0,C   5)     -3.9990         0.025416   
    110. D(H  23,C   1,C   0,C   5)    175.4963         0.025416   
    111. D(H  24,C   2,C   1,C   0)    178.2684         0.031454   
    112. D(C   3,C   2,C   1,C   0)     -0.0302         0.031454   
    113. D(H  24,C   2,C   1,H  23)     -1.2260         0.031454   
    114. D(C   3,C   2,C   1,H  23)   -179.5246         0.031454   
    115. D(C  21,C   3,C   2,H  24)      1.2418         0.023606   
    116. D(C  21,C   3,C   2,C   1)    179.5420         0.023606   
    117. D(C   4,C   3,C   2,C   1)      5.9669         0.023606   
    118. D(C   4,C   3,C   2,H  24)   -172.3333         0.023606   
    119. D(C   6,C   4,C   3,C   2)    168.3355         0.022072   
    120. D(C   5,C   4,C   3,C   2)     -7.9593         0.022072   
    121. D(C   6,C   4,C   3,C  21)     -5.4668         0.022072   
    122. D(C   5,C   4,C   3,C  21)    178.2384         0.022072   
    123. D(H  25,C   5,C   4,C   6)      6.0145         0.023896   
    124. D(H  25,C   5,C   4,C   3)   -177.7367         0.023896   
    125. D(H  25,C   5,C   0,H  22)      1.5907         0.031765   
    126. D(C   4,C   5,C   0,H  22)    179.6296         0.031765   
    127. D(H  25,C   5,C   0,C   1)   -176.1669         0.031765   
    128. D(C   0,C   5,C   4,C   6)   -172.0627         0.023896   
    129. D(C   4,C   5,C   0,C   1)      1.8721         0.031765   
    130. D(C   0,C   5,C   4,C   3)      4.1861         0.023896   
    131. D(H  26,C   6,C   4,C   5)     -5.9790         0.021316   
    132. D(H  26,C   6,C   4,C   3)    177.7715         0.021316   
    133. D(C   7,C   6,C   4,C   3)     -6.9795         0.021316   
    134. D(C   7,C   6,C   4,C   5)    169.2699         0.021316   
    135. D(H  27,C   7,C   6,C   4)   -173.0652         0.035842   
    136. D(C   8,C   7,C   6,H  26)   -177.0971         0.035842   
    137. D(C   8,C   7,C   6,C   4)      7.7761         0.035842   
    138. D(H  27,C   7,C   6,H  26)      2.0617         0.035842   
    139. D(C  21,C   8,C   7,H  27)   -175.0765         0.021323   
    140. D(C  21,C   8,C   7,C   6)      4.1057         0.021323   
    141. D(C   9,C   8,C   7,H  27)      5.8786         0.021323   
    142. D(C   9,C   8,C   7,C   6)   -174.9393         0.021323   
    143. D(H  28,C   9,C   8,C  21)   -178.7866         0.022457   
    144. D(H  28,C   9,C   8,C   7)      0.2578         0.022457   
    145. D(C  10,C   9,C   8,C  21)     -2.4421         0.022457   
    146. D(C  10,C   9,C   8,C   7)    176.6023         0.022457   
    147. D(H  29,C  10,C   9,H  28)      2.9798         0.034483   
    148. D(H  29,C  10,C   9,C   8)   -173.2755         0.034483   
    149. D(C  11,C  10,C   9,C   8)     10.4741         0.034483   
    150. D(C  11,C  10,C   9,H  28)   -173.2706         0.034483   
    151. D(C  20,C  11,C  10,H  29)   -178.7852         0.022463   
    152. D(C  20,C  11,C  10,C   9)     -2.4457         0.022463   
    153. D(C  12,C  11,C  10,H  29)      0.2625         0.022463   
    154. D(C  12,C  11,C  10,C   9)    176.6019         0.022463   
    155. D(H  30,C  12,C  11,C  20)   -175.0750         0.021319   
    156. D(C  13,C  12,C  11,C  20)      4.1017         0.021319   
    157. D(C  13,C  12,C  11,C  10)   -174.9464         0.021319   
    158. D(H  30,C  12,C  11,C  10)      5.8769         0.021319   
    159. D(H  31,C  13,C  12,H  30)      2.0605         0.035845   
    160. D(H  31,C  13,C  12,C  11)   -177.0928         0.035845   
    161. D(C  14,C  13,C  12,H  30)   -173.0674         0.035845   
    162. D(C  14,C  13,C  12,C  11)      7.7793         0.035845   
    163. D(C  19,C  14,C  13,H  31)    177.7704         0.021317   
    164. D(C  19,C  14,C  13,C  12)     -6.9794         0.021317   
    165. D(C  15,C  14,C  13,H  31)     -5.9788         0.021317   
    166. D(C  15,C  14,C  13,C  12)    169.2714         0.021317   
    167. D(H  32,C  15,C  14,C  13)      6.0091         0.023875   
    168. D(C  16,C  15,C  14,C  19)      4.1840         0.023875   
    169. D(C  16,C  15,C  14,C  13)   -172.0665         0.023875   
    170. D(H  32,C  15,C  14,C  19)   -177.7404         0.023875   
    171. D(H  33,C  16,C  15,H  32)      1.5840         0.031770   
    172. D(H  33,C  16,C  15,C  14)    179.6213         0.031770   
    173. D(C  17,C  16,C  15,H  32)   -176.1591         0.031770   
    174. D(C  17,C  16,C  15,C  14)      1.8781         0.031770   
    175. D(H  34,C  17,C  16,H  33)     -2.2625         0.025409   
    176. D(H  34,C  17,C  16,C  15)    175.4952         0.025409   
    177. D(C  18,C  17,C  16,H  33)    178.2327         0.025409   
    178. D(C  18,C  17,C  16,C  15)     -4.0096         0.025409   
    179. D(H  35,C  18,C  17,H  34)     -1.2306         0.031453   
    180. D(H  35,C  18,C  17,C  16)    178.2734         0.031453   
    181. D(C  19,C  18,C  17,H  34)   -179.5230         0.031453   
    182. D(C  19,C  18,C  17,C  16)     -0.0191         0.031453   
    183. D(C  20,C  19,C  18,H  35)      1.2487         0.023610   
    184. D(C  20,C  19,C  18,C  17)    179.5425         0.023610   
    185. D(C  14,C  19,C  18,H  35)   -172.3329         0.023610   
    186. D(C  14,C  19,C  18,C  17)      5.9610         0.023610   
    187. D(C  20,C  19,C  14,C  15)    178.2343         0.022087   
    188. D(C  20,C  19,C  14,C  13)     -5.4694         0.022087   
    189. D(C  18,C  19,C  14,C  15)     -7.9577         0.022087   
    190. D(C  18,C  19,C  14,C  13)    168.3386         0.022087   
    191. D(C  21,C  20,C  19,C  18)     19.1853         0.018457   
    192. D(C  21,C  20,C  19,C  14)   -167.3284         0.018457   
    193. D(C  11,C  20,C  19,C  18)   -156.7094         0.018457   
    194. D(C  11,C  20,C  19,C  14)     16.7769         0.018457   
    195. D(C  21,C  20,C  11,C  12)    167.6525         0.023239   
    196. D(C  21,C  20,C  11,C  10)    -13.2958         0.023239   
    197. D(C  19,C  20,C  11,C  12)    -16.1959         0.023239   
    198. D(C  19,C  20,C  11,C  10)    162.8558         0.023239   
    199. D(C   8,C  21,C  20,C  19)   -154.9850         0.019861   
    200. D(C   3,C  21,C  20,C  19)     29.1452         0.019861   
    201. D(C   3,C  21,C  20,C  11)   -154.9834         0.019861   
    202. D(C  20,C  21,C   8,C   9)    -13.2989         0.023229   
    203. D(C  20,C  21,C   8,C   7)    167.6525         0.023229   
    204. D(C   3,C  21,C   8,C   9)    162.8507         0.023229   
    205. D(C   3,C  21,C   8,C   7)    -16.1979         0.023229   
    206. D(C  20,C  21,C   3,C   4)   -167.3314         0.018463   
    207. D(C  20,C  21,C   3,C   2)     19.1892         0.018463   
    208. D(C   8,C  21,C  20,C  11)     20.8864         0.019861   
    209. D(C   8,C  21,C   3,C   4)     16.7757         0.018463   
    210. D(C   8,C  21,C   3,C   2)   -156.7038         0.018463   
    -----------------------------------------------------------------

Number of atoms                         .... 36
Number of degrees of freedom            .... 210

         *************************************************************
         *                GEOMETRY OPTIMIZATION CYCLE   1            *
         *************************************************************
---------------------------------
CARTESIAN COORDINATES (ANGSTROEM)
---------------------------------
  C      2.631700    2.939900    1.163100
  C      1.323800    2.625800    1.543900
  C      0.745900    1.449800    1.141400
  C      1.445300    0.529600    0.338200
  C      2.809200    0.796500    0.065600
  C      3.365800    2.028400    0.451900
  C      3.616900   -0.213400   -0.523000
  C      3.126900   -1.464700   -0.691300
  C      1.759300   -1.757300   -0.441000
  C      1.289500   -3.088700   -0.518800
  C     -0.002400   -3.379500   -0.212600
  C     -0.943800   -2.340600   -0.028900
  C     -2.308700   -2.646900    0.219900
  C     -3.242300   -1.668900    0.297700
  C     -2.902100   -0.329300   -0.031600
  C     -3.899100    0.651900   -0.173600
  C     -3.594900    1.900700   -0.646300
  C     -2.282500    2.192200   -1.029700
  C     -1.286300    1.266200   -0.859200
  C     -1.551400    0.003400   -0.297000
  C     -0.530900   -0.995500   -0.112700
  C      0.872000   -0.718400   -0.094100
  H      3.067500    3.882000    1.461800
  H      0.768800    3.312000    2.166500
  H     -0.254400    1.211900    1.468500
  H      4.398200    2.229400    0.202700
  H      4.645700    0.019300   -0.757700
  H      3.763600   -2.268200   -1.033600
  H      1.992100   -3.871100   -0.767100
  H     -0.345700   -4.402900   -0.163600
  H     -2.579200   -3.684000    0.359100
  H     -4.271900   -1.897600    0.532900
  H     -4.919400    0.390100    0.068900
  H     -4.366800    2.647700   -0.758600
  H     -2.054900    3.151600   -1.470700
  H     -0.285100    1.498900   -1.186900

----------------------------
CARTESIAN COORDINATES (A.U.)
----------------------------
  NO LB      ZA    FRAG     MASS         X           Y           Z
   0 C     6.0000    0    12.011    4.973192    5.555606    2.197940
   1 C     6.0000    0    12.011    2.501619    4.962043    2.917548
   2 C     6.0000    0    12.011    1.409547    2.739725    2.156933
   3 C     6.0000    0    12.011    2.731221    1.000799    0.639105
   4 C     6.0000    0    12.011    5.308619    1.505167    0.123966
   5 C     6.0000    0    12.011    6.360440    3.833120    0.853967
   6 C     6.0000    0    12.011    6.834950   -0.403268   -0.988327
   7 C     6.0000    0    12.011    5.908985   -2.767882   -1.306368
   8 C     6.0000    0    12.011    3.324595   -3.320816   -0.833369
   9 C     6.0000    0    12.011    2.436802   -5.836797   -0.980390
  10 C     6.0000    0    12.011   -0.004535   -6.386329   -0.401756
  11 C     6.0000    0    12.011   -1.783524   -4.423093   -0.054613
  12 C     6.0000    0    12.011   -4.362811   -5.001916    0.415551
  13 C     6.0000    0    12.011   -6.127059   -3.153764    0.562571
  14 C     6.0000    0    12.011   -5.484174   -0.622287   -0.059715
  15 C     6.0000    0    12.011   -7.368231    1.231912   -0.328056
  16 C     6.0000    0    12.011   -6.793376    3.591802   -1.221330
  17 C     6.0000    0    12.011   -4.313300    4.142658   -1.945851
  18 C     6.0000    0    12.011   -2.430755    2.392771   -1.623653
  19 C     6.0000    0    12.011   -2.931721    0.006425   -0.561249
  20 C     6.0000    0    12.011   -1.003256   -1.881222   -0.212972
  21 C     6.0000    0    12.011    1.647841   -1.357579   -0.177823
  22 H     1.0000    0     1.008    5.796735    7.335917    2.762402
  23 H     1.0000    0     1.008    1.452821    6.258773    4.094092
  24 H     1.0000    0     1.008   -0.480746    2.290159    2.775063
  25 H     1.0000    0     1.008    8.311393    4.212955    0.383047
  26 H     1.0000    0     1.008    8.779101    0.036472   -1.431845
  27 H     1.0000    0     1.008    7.112173   -4.286277   -1.953221
  28 H     1.0000    0     1.008    3.764523   -7.315319   -1.449609
  29 H     1.0000    0     1.008   -0.653278   -8.320275   -0.309159
  30 H     1.0000    0     1.008   -4.873982   -6.961751    0.678601
  31 H     1.0000    0     1.008   -8.072721   -3.585944    1.007035
  32 H     1.0000    0     1.008   -9.296319    0.737182    0.130202
  33 H     1.0000    0     1.008   -8.252056    5.003428   -1.433546
  34 H     1.0000    0     1.008   -3.883198    5.955661   -2.779220
  35 H     1.0000    0     1.008   -0.538761    2.832511   -2.242916

--------------------------------
INTERNAL COORDINATES (ANGSTROEM)
--------------------------------
 C      0   0   0     0.000000000000     0.00000000     0.00000000
 C      1   0   0     1.397952023497     0.00000000     0.00000000
 C      2   1   0     1.370748211744   120.47847259     0.00000000
 C      3   2   1     1.407500849023   121.26304499   359.96980482
 C      4   3   2     1.416251947925   117.72135362     5.96685951
 C      1   2   3     1.369503742237   119.56559484   356.00100396
 C      5   4   3     1.420819221435   119.55427839   168.33553127
 C      7   5   4     1.354317754443   120.16709708   353.02049476
 C      8   7   5     1.420772539853   121.10789751     7.77605111
 C      9   8   7     1.413998175388   120.26737050   185.06067483
 C     10   9   8     1.359164703044   120.32257572   176.60231097
 C     11  10   9     1.413963528525   120.32505819    10.47408854
 C     12  11  10     1.420800175957   120.26138339   176.60191049
 C     13  12  11     1.354306390740   121.10532381   185.05355824
 C     14  13  12     1.420810574989   120.16490282     7.77930275
 C     15  14  13     1.406032161794   120.76948432   169.27136539
 C     16  15  14     1.369483249259   120.91094577   187.93351813
 C     17  16  15     1.397984824667   119.55975374     1.87811703
 C     18  17  16     1.370751870325   120.48346057   355.99038518
 C     19  18  17     1.407483815182   121.25834742     0.00000000
 C     12  11  10     1.409539946224   119.89407163   357.55426099
 C      9   8   7     1.409593597460   119.83372463     4.10565330
 H      1   2   3     1.080136907989   119.87571736   178.22878966
 H      2   1   3     1.080058424346   119.67191566   179.49531505
 H      3   2   1     1.078976788444   119.40607721   178.26838215
 H      6   1   2     1.080903048381   120.52672963   183.83312542
 H      7   5   4     1.080584480733   118.56428342   177.77152787
 H      8   7   5     1.080818407504   120.86983172   186.93483518
 H     10   9   8     1.080485728735   118.58188569     0.25778899
 H     11  10   9     1.080557009139   120.98655515   186.72447464
 H     13  12  11     1.080797529605   118.02463366     5.87685914
 H     14  13  12     1.080601170645   121.09707540   182.90717777
 H     16  15  14     1.080905907098   118.53198809     6.00912511
 H     17  16  15     1.080023101605   120.51975067   179.62125429
 H     18  17  16     1.080153285418   119.66878871   175.49523137
 H     19  18  17     1.078859592347   119.40311127   178.27336572

---------------------------
INTERNAL COORDINATES (A.U.)
---------------------------
 C      0   0   0     0.000000000000     0.00000000     0.00000000
 C      1   0   0     2.641746472771     0.00000000     0.00000000
 C      2   1   0     2.590338718759   120.47847259     0.00000000
 C      3   2   1     2.659791137915   121.26304499   359.96980482
 C      4   3   2     2.676328318210   117.72135362     5.96685951
 C      1   2   3     2.587987012207   119.56559484   356.00100396
 C      5   4   3     2.684959214324   119.55427839   168.33553127
 C      7   5   4     2.559289654205   120.16709708   353.02049476
 C      8   7   5     2.684870998918   121.10789751     7.77605111
 C      9   8   7     2.672069305347   120.26737050   185.06067483
 C     10   9   8     2.568449059645   120.32257572   176.60231097
 C     11  10   9     2.672003832266   120.32505819    10.47408854
 C     12  11  10     2.684923223586   120.26138339   176.60191049
 C     13  12  11     2.559268179918   121.10532381   185.05355824
 C     14  13  12     2.684942874908   120.16490282     7.77930275
 C     15  14  13     2.657015721277   120.76948432   169.27136539
 C     16  15  14     2.587948286091   120.91094577   187.93351813
 C     17  16  15     2.641808457999   119.55975374     1.87811703
 C     18  17  16     2.590345632475   120.48346057   355.99038518
 C     19  18  17     2.659758948621   121.25834742     0.00000000
 C     12  11  10     2.663644473185   119.89407163   357.55426099
 C      9   8   7     2.663745859328   119.83372463     4.10565330
 H      1   2   3     2.041162943240   119.87571736   178.22878966
 H      2   1   3     2.041014630648   119.67191566   179.49531505
 H      3   2   1     2.038970635016   119.40607721   178.26838215
 H      6   1   2     2.042610738761   120.52672963   183.83312542
 H      7   5   4     2.042008733150   118.56428342   177.77152787
 H      8   7   5     2.042450790684   120.86983172   186.93483518
 H     10   9   8     2.041822118919   118.58188569     0.25778899
 H     11  10   9     2.041956819362   120.98655515   186.72447464
 H     13  12  11     2.042411337172   118.02463366     5.87685914
 H     14  13  12     2.042040272514   121.09707540   182.90717777
 H     16  15  14     2.042616140954   118.53198809     6.00912511
 H     17  16  15     2.040947880341   120.51975067   179.62125429
 H     18  17  16     2.041193892096   119.66878871   175.49523137
 H     19  18  17     2.038749166491   119.40311127   178.27336572

---------------------
BASIS SET INFORMATION
---------------------
There are 2 groups of distinct atoms

 Group   1 Type C   : 19s6p3d2f contracted to 5s4p3d2f pattern {88111/3111/111/11}
 Group   2 Type H   : 5s2p1d contracted to 3s2p1d pattern {311/11/1}

Atom   0C    basis set group =>   1
Atom   1C    basis set group =>   1
Atom   2C    basis set group =>   1
Atom   3C    basis set group =>   1
Atom   4C    basis set group =>   1
Atom   5C    basis set group =>   1
Atom   6C    basis set group =>   1
Atom   7C    basis set group =>   1
Atom   8C    basis set group =>   1
Atom   9C    basis set group =>   1
Atom  10C    basis set group =>   1
Atom  11C    basis set group =>   1
Atom  12C    basis set group =>   1
Atom  13C    basis set group =>   1
Atom  14C    basis set group =>   1
Atom  15C    basis set group =>   1
Atom  16C    basis set group =>   1
Atom  17C    basis set group =>   1
Atom  18C    basis set group =>   1
Atom  19C    basis set group =>   1
Atom  20C    basis set group =>   1
Atom  21C    basis set group =>   1
Atom  22H    basis set group =>   2
Atom  23H    basis set group =>   2
Atom  24H    basis set group =>   2
Atom  25H    basis set group =>   2
Atom  26H    basis set group =>   2
Atom  27H    basis set group =>   2
Atom  28H    basis set group =>   2
Atom  29H    basis set group =>   2
Atom  30H    basis set group =>   2
Atom  31H    basis set group =>   2
Atom  32H    basis set group =>   2
Atom  33H    basis set group =>   2
Atom  34H    basis set group =>   2
Atom  35H    basis set group =>   2
---------------------------------
AUXILIARY/J BASIS SET INFORMATION
---------------------------------
There are 2 groups of distinct atoms

 Group   1 Type C   : 10s7p5d2f1g contracted to 10s7p5d2f1g pattern {1111111111/1111111/11111/11/1}
 Group   2 Type H   : 4s3p2d1f contracted to 4s3p2d1f pattern {1111/111/11/1}

Atom   0C    basis set group =>   1
Atom   1C    basis set group =>   1
Atom   2C    basis set group =>   1
Atom   3C    basis set group =>   1
Atom   4C    basis set group =>   1
Atom   5C    basis set group =>   1
Atom   6C    basis set group =>   1
Atom   7C    basis set group =>   1
Atom   8C    basis set group =>   1
Atom   9C    basis set group =>   1
Atom  10C    basis set group =>   1
Atom  11C    basis set group =>   1
Atom  12C    basis set group =>   1
Atom  13C    basis set group =>   1
Atom  14C    basis set group =>   1
Atom  15C    basis set group =>   1
Atom  16C    basis set group =>   1
Atom  17C    basis set group =>   1
Atom  18C    basis set group =>   1
Atom  19C    basis set group =>   1
Atom  20C    basis set group =>   1
Atom  21C    basis set group =>   1
Atom  22H    basis set group =>   2
Atom  23H    basis set group =>   2
Atom  24H    basis set group =>   2
Atom  25H    basis set group =>   2
Atom  26H    basis set group =>   2
Atom  27H    basis set group =>   2
Atom  28H    basis set group =>   2
Atom  29H    basis set group =>   2
Atom  30H    basis set group =>   2
Atom  31H    basis set group =>   2
Atom  32H    basis set group =>   2
Atom  33H    basis set group =>   2
Atom  34H    basis set group =>   2
Atom  35H    basis set group =>   2
---------------------------------
AUXILIARY/C BASIS SET INFORMATION
---------------------------------
There are 2 groups of distinct atoms

 Group   1 Type C   : 9s7p6d4f2g contracted to 9s7p6d4f2g pattern {111111111/1111111/111111/1111/11}
 Group   2 Type H   : 4s3p2d1f contracted to 4s3p2d1f pattern {1111/111/11/1}

Atom   0C    basis set group =>   1
Atom   1C    basis set group =>   1
Atom   2C    basis set group =>   1
Atom   3C    basis set group =>   1
Atom   4C    basis set group =>   1
Atom   5C    basis set group =>   1
Atom   6C    basis set group =>   1
Atom   7C    basis set group =>   1
Atom   8C    basis set group =>   1
Atom   9C    basis set group =>   1
Atom  10C    basis set group =>   1
Atom  11C    basis set group =>   1
Atom  12C    basis set group =>   1
Atom  13C    basis set group =>   1
Atom  14C    basis set group =>   1
Atom  15C    basis set group =>   1
Atom  16C    basis set group =>   1
Atom  17C    basis set group =>   1
Atom  18C    basis set group =>   1
Atom  19C    basis set group =>   1
Atom  20C    basis set group =>   1
Atom  21C    basis set group =>   1
Atom  22H    basis set group =>   2
Atom  23H    basis set group =>   2
Atom  24H    basis set group =>   2
Atom  25H    basis set group =>   2
Atom  26H    basis set group =>   2
Atom  27H    basis set group =>   2
Atom  28H    basis set group =>   2
Atom  29H    basis set group =>   2
Atom  30H    basis set group =>   2
Atom  31H    basis set group =>   2
Atom  32H    basis set group =>   2
Atom  33H    basis set group =>   2
Atom  34H    basis set group =>   2
Atom  35H    basis set group =>   2


           ************************************************************
           *        Program running with 4 parallel MPI-processes     *
           *              working on a common directory               *
           ************************************************************
------------------------------------------------------------------------------
                           ORCA GTO INTEGRAL CALCULATION
                           -- RI-GTO INTEGRALS CHOSEN --
------------------------------------------------------------------------------
------------------------------------------------------------------------------
                   ___                                                        
                  /   \      - P O W E R E D   B Y -                         
                 /     \                                                     
                 |  |  |   _    _      __       _____    __    __             
                 |  |  |  | |  | |    /  \     |  _  \  |  |  /  |          
                  \  \/   | |  | |   /    \    | | | |  |  | /  /          
                 / \  \   | |__| |  /  /\  \   | |_| |  |  |/  /          
                |  |  |   |  __  | /  /__\  \  |    /   |      \           
                |  |  |   | |  | | |   __   |  |    \   |  |\   \          
                \     /   | |  | | |  |  |  |  | |\  \  |  | \   \       
                 \___/    |_|  |_| |__|  |__|  |_| \__\ |__|  \__/        
                                                                              
                      - O R C A' S   B I G   F R I E N D -                    
                                      &                                       
                       - I N T E G R A L  F E E D E R -                       
                                                                              
 v1 FN, 2020, v2 2021                                                         
------------------------------------------------------------------------------


Reading SHARK input file optpbed3-wb2plyp-train-10.SHARKINP.tmp ... ok
----------------------
SHARK INTEGRAL PACKAGE
----------------------

Number of atoms                             ...     36
Number of basis functions                   ...   1340
Number of shells                            ...    524
Maximum angular momentum                    ...      3
Integral batch strategy                     ... SHARK/LIBINT Hybrid
RI-J (if used) integral strategy            ... SPLIT-RIJ (Revised 2003 algorithm where possible)
Printlevel                                  ...      1
Contraction scheme used                     ... PARTIAL GENERAL contraction
Coulomb Range Separation                    ... NOT USED
Exchange Range Separation                   ... NOT USED
Finite Nucleus Model                        ... NOT USED
Auxiliary Coulomb fitting basis             ... AVAILABLE
   # of basis functions in Aux-J            ...   2158
   # of shells in Aux-J                     ...    690
   Maximum angular momentum in Aux-J        ...      4
Auxiliary J/K fitting basis                 ... NOT available
Auxiliary Correlation fitting basis         ... AVAILABLE
   # of basis functions in Aux-C            ...   2752
   # of shells in Aux-C                     ...    756
   Maximum angular momentum in Aux-C        ...      4
Auxiliary 'external' fitting basis          ... NOT available
Integral threshold                          ...     2.500000e-11
Primitive cut-off                           ...     2.500000e-12
Primitive pair pre-selection threshold      ...     2.500000e-12

Calculating pre-screening integrals         ... done (  0.4 sec) Dimension = 524
Calculating pre-screening integrals (ORCA)  ... done (  0.7 sec) Dimension = 392
Organizing shell pair data                  ... done (  2.1 sec)
Shell pair information
Total number of shell pairs                 ...    137550
Shell pairs after pre-screening             ...     95297
Total number of primitive shell pairs       ...    178014
Primitive shell pairs kept                  ...    111731
          la=0 lb=0:  21488 shell pairs
          la=1 lb=0:  24016 shell pairs
          la=1 lb=1:   5746 shell pairs
          la=2 lb=0:  16160 shell pairs
          la=2 lb=1:   7741 shell pairs
          la=2 lb=2:   2684 shell pairs
          la=3 lb=0:   9136 shell pairs
          la=3 lb=1:   4394 shell pairs
          la=3 lb=2:   3028 shell pairs
          la=3 lb=3:    904 shell pairs

Calculating one electron integrals          ... done (  0.3 sec)
Calculating RI/J V-Matrix + Cholesky decomp.... done (  0.5 sec)
Calculating RI/C V-Matrix + Cholesky decomp.... done (  0.7 sec)
Calculating Nuclear repulsion               ... done (  0.0 sec) ENN=   1617.987178136255 Eh

SHARK setup successfully completed in   6.7 seconds

Maximum memory used throughout the entire GTOINT-calculation: 143.0 MB


           ************************************************************
           *        Program running with 4 parallel MPI-processes     *
           *              working on a common directory               *
           ************************************************************
-------------------------------------------------------------------------------
                                 ORCA SCF
-------------------------------------------------------------------------------

------------
SCF SETTINGS
------------
Hamiltonian:
 Density Functional     Method          .... DFT(GTOs)
 Exchange Functional    Exchange        .... PBE
   PBE kappa parameter   XKappa         ....  0.804000
   PBE mue parameter    XMuePBE         ....  0.219520
 Correlation Functional Correlation     .... PBE
   PBE beta parameter  CBetaPBE         ....  0.066725
 LDA part of GGA corr.  LDAOpt          .... PW91-LDA
 Gradients option       PostSCFGGA      .... off
 Hybrid DFT is turned on
   Fraction HF Exchange ScalHFX         ....  0.250000
   Scaling of DF-GGA-X  ScalDFX         ....  0.750000
   Scaling of DF-GGA-C  ScalDFC         ....  1.000000
   Scaling of DF-LDA-C  ScalLDAC        ....  1.000000
   Perturbative correction              ....  0.000000
   Density functional embedding theory  .... OFF
   NL short-range parameter             ....  6.900000
 RI-approximation to the Coulomb term is turned on
   Number of AuxJ basis functions       .... 2158
   RIJ-COSX (HFX calculated with COS-X)).... on


General Settings:
 Integral files         IntName         .... optpbed3-wb2plyp-train-10
 Hartree-Fock type      HFTyp           .... RHF
 Total Charge           Charge          ....    0
 Multiplicity           Mult            ....    1
 Number of Electrons    NEL             ....  146
 Basis Dimension        Dim             .... 1208
 Nuclear Repulsion      ENuc            ....   1617.9871781363 Eh

Convergence Acceleration:
 DIIS                   CNVDIIS         .... on
   Start iteration      DIISMaxIt       ....    12
   Startup error        DIISStart       ....  0.200000
   # of expansion vecs  DIISMaxEq       ....     5
   Bias factor          DIISBfac        ....   1.050
   Max. coefficient     DIISMaxC        ....  10.000
 Trust-Rad. Augm. Hess. CNVTRAH         .... auto
   Auto Start mean grad. ratio tolernc. ....  1.125000
   Auto Start start iteration           ....    20
   Auto Start num. interpolation iter.  ....    10
   Max. Number of Micro iterations      ....    16
   Max. Number of Macro iterations      .... Maxiter - #DIIS iter
   Number of Davidson start vectors     ....     2
   Converg. threshold I  (grad. norm)   ....   1.000e-05
   Converg. threshold II (energy diff.) ....   1.000e-08
   Grad. Scal. Fac. for Micro threshold ....   0.100
   Minimum threshold for Micro iter.    ....   0.010
   NR start threshold (gradient norm)   ....   0.001
   Initial trust radius                 ....   0.400
   Minimum AH scaling param. (alpha)    ....   1.000
   Maximum AH scaling param. (alpha)    .... 1000.000
   Orbital update algorithm             .... Taylor
   White noise on init. David. guess    .... on
   Maximum white noise                  ....   0.010
   Quad. conv. algorithm                .... NR
 SOSCF                  CNVSOSCF        .... on
   Start iteration      SOSCFMaxIt      ....   150
   Startup grad/error   SOSCFStart      ....  0.003300
 Level Shifting         CNVShift        .... on
   Level shift para.    LevelShift      ....    0.2500
   Turn off err/grad.   ShiftErr        ....    0.0010
 Zerner damping         CNVZerner       .... off
 Static damping         CNVDamp         .... on
   Fraction old density DampFac         ....    0.7000
   Max. Damping (<1)    DampMax         ....    0.9800
   Min. Damping (>=0)   DampMin         ....    0.0000
   Turn off err/grad.   DampErr         ....    0.1000
 Fernandez-Rico         CNVRico         .... off

SCF Procedure:
 Maximum # iterations   MaxIter         ....   125
 SCF integral mode      SCFMode         .... Direct
   Integral package                     .... SHARK and LIBINT hybrid scheme
 Reset frequency        DirectResetFreq ....    20
 Integral Threshold     Thresh          ....  2.500e-11 Eh
 Primitive CutOff       TCut            ....  2.500e-12 Eh

Convergence Tolerance:
 Convergence Check Mode ConvCheckMode   .... Total+1el-Energy
 Convergence forced     ConvForced      .... 0
 Energy Change          TolE            ....  1.000e-08 Eh
 1-El. energy change                    ....  1.000e-05 Eh
 Orbital Gradient       TolG            ....  1.000e-05
 Orbital Rotation angle TolX            ....  1.000e-05
 DIIS Error             TolErr          ....  5.000e-07


Diagonalization of the overlap matrix:
Smallest eigenvalue                        ... 2.383e-07
Time for diagonalization                   ...    0.388 sec
Threshold for overlap eigenvalues          ... 1.000e-08
Number of eigenvalues below threshold      ... 0
Time for construction of square roots      ...    0.255 sec
Total time needed                          ...    0.650 sec

Time for model grid setup =    1.252 sec

------------------------------
INITIAL GUESS: MODEL POTENTIAL
------------------------------
Loading Hartree-Fock densities                     ... done
Calculating cut-offs                               ... done
Initializing the effective Hamiltonian             ... done
Setting up the integral package (SHARK)            ... done
Starting the Coulomb interaction                   ... done (   4.3 sec)
Reading the grid                                   ... done
Mapping shells                                     ... done
Starting the XC term evaluation                    ... done (   3.6 sec)
  promolecular density results
     # of electrons  =    145.985580415
     EX              =   -116.779913576
     EC              =     -4.914951975
     EX+EC           =   -121.694865552
Transforming the Hamiltonian                       ... done (   0.2 sec)
Diagonalizing the Hamiltonian                      ... done (   0.4 sec)
Back transforming the eigenvectors                 ... done (   0.1 sec)
Now organizing SCF variables                       ... done
                      ------------------
                      INITIAL GUESS DONE (   9.9 sec)
                      ------------------
-------------------
DFT GRID GENERATION
-------------------

General Integration Accuracy     IntAcc      ... 4.388
Radial Grid Type                 RadialGrid  ... OptM3 with GC (2021)
Angular Grid (max. ang.)         AngularGrid ... 4 (Lebedev-302)
Angular grid pruning method      GridPruning ... 4 (adaptive)
Weight generation scheme         WeightScheme... Becke
Basis function cutoff            BFCut       ... 1.0000e-11
Integration weight cutoff        WCut        ... 1.0000e-14
Angular grids for H and He will be reduced by one unit
Partially contracted basis set               ... off
Rotationally invariant grid construction     ... off

Total number of grid points                  ...   180160
Total number of batches                      ...     2836
Average number of points per batch           ...       63
Average number of grid points per atom       ...     5004
Time for grid setup =    3.182 sec

--------------------
COSX GRID GENERATION
--------------------

GRIDX 1
-------
General Integration Accuracy     IntAcc      ... 3.816
Radial Grid Type                 RadialGrid  ... OptM3 with GC (2021)
Angular Grid (max. ang.)         AngularGrid ... 1 (Lebedev-50)
Angular grid pruning method      GridPruning ... 4 (adaptive)
Weight generation scheme         WeightScheme... Becke
Basis function cutoff            BFCut       ... 1.0000e-11
Integration weight cutoff        WCut        ... 1.0000e-14
Angular grids for H and He will be reduced by one unit
Partially contracted basis set               ... on
Rotationally invariant grid construction     ... off

Total number of grid points                  ...    22854
Total number of batches                      ...      378
Average number of points per batch           ...       60
Average number of grid points per atom       ...      635
UseSFitting                                  ... on

GRIDX 2
-------
General Integration Accuracy     IntAcc      ... 4.020
Radial Grid Type                 RadialGrid  ... OptM3 with GC (2021)
Angular Grid (max. ang.)         AngularGrid ... 2 (Lebedev-110)
Angular grid pruning method      GridPruning ... 4 (adaptive)
Weight generation scheme         WeightScheme... Becke
Basis function cutoff            BFCut       ... 1.0000e-11
Integration weight cutoff        WCut        ... 1.0000e-14
Angular grids for H and He will be reduced by one unit
Partially contracted basis set               ... on
Rotationally invariant grid construction     ... off

Total number of grid points                  ...    53931
Total number of batches                      ...      864
Average number of points per batch           ...       62
Average number of grid points per atom       ...     1498
UseSFitting                                  ... on

GRIDX 3
-------
General Integration Accuracy     IntAcc      ... 4.338
Radial Grid Type                 RadialGrid  ... OptM3 with GC (2021)
Angular Grid (max. ang.)         AngularGrid ... 3 (Lebedev-194)
Angular grid pruning method      GridPruning ... 4 (adaptive)
Weight generation scheme         WeightScheme... Becke
Basis function cutoff            BFCut       ... 1.0000e-11
Integration weight cutoff        WCut        ... 1.0000e-14
Angular grids for H and He will be reduced by one unit
Partially contracted basis set               ... on
Rotationally invariant grid construction     ... off

Total number of grid points                  ...   116539
Total number of batches                      ...     1844
Average number of points per batch           ...       63
Average number of grid points per atom       ...     3237
UseSFitting                                  ... on

Time for X-Grid setup             =    9.810 sec


--------------------
CPCM SOLVATION MODEL
--------------------
CPCM parameters:
  Epsilon                                         ...       4.7113
  Refrac                                          ...       1.4459
  Rsolv                                           ...       1.3000
  Surface type                                    ... GAUSSIAN VDW
  Epsilon function type                           ...         CPCM
Solvent:                                     ... CHLOROFORM
SMD-CDS solvent descriptors:
  Soln                                       ...    1.4459
  Soln25                                     ...    1.4431
  Sola                                       ...    0.1500
  Solb                                       ...    0.0200
  Solg                                       ...   38.3900
  Solc                                       ...    0.0000
  Solh                                       ...    0.7500
Radii:
 Radius for C  used is    3.4960 Bohr (=   1.8500 Ang.)
 Radius for H  used is    2.2677 Bohr (=   1.2000 Ang.)
Calculating surface                               ...        done! (  0.0s)
GEPOL surface points                              ...         1995
GEPOL Volume                                      ...    1898.5066
GEPOL Surface-area                                ...    1009.5498
Calculating surface distance matrix               ...        done! (  0.1s)
Performing Cholesky decomposition & store         ...        done! (  0.3s)
Overall time for CPCM initialization              ...                 0.3s
 re-compute Schwartz prescreening matrix in partically contracted basis (1) ...done (   0.306 sec)
--------------
SCF ITERATIONS
--------------
ITER       Energy         Delta-E        Max-DP      RMS-DP      [F,P]     Damp
               ***  Starting incremental Fock matrix formation  ***
  0   -845.6965578819   0.000000000000 0.75936001  0.00252829  0.1279492 0.7000
  1   -845.8584279527  -0.161870070777 0.54165188  0.00201206  0.0731866 0.7000
                               ***Turning on DIIS***
  2   -845.9397336753  -0.081305722604 1.15398243  0.00449438  0.0376461 0.0000
  3   -846.0608364815  -0.121102806217 0.10976193  0.00073414  0.0345164 0.0000
  4   -846.0849168499  -0.024080368445 0.08768223  0.00033157  0.0060921 0.0000
                      *** Initiating the SOSCF procedure ***
                           *** Shutting down DIIS ***
                      *** Re-Reading the Fockian *** 
                      *** Removing any level shift *** 
ITER      Energy       Delta-E        Grad      Rot      Max-DP    RMS-DP
  5   -846.08573844  -0.0008215878  0.000422  0.000422  0.013395  0.000111
               *** Restarting incremental Fock matrix formation ***
  6   -846.08581106  -0.0000726265  0.000143  0.000752  0.159497  0.000902
  7   -846.08581569  -0.0000046210  0.000313  0.001000  0.075005  0.000303
  8   -846.08581916  -0.0000034775  0.000133  0.000338  0.062471  0.000303
  9   -846.08582017  -0.0000010097  0.000025  0.000037  0.138428  0.000295
 10   -846.08582036  -0.0000001908  0.000015  0.000051  0.080686  0.000193
 11   -846.08582038  -0.0000000207  0.000009  0.000028  0.025418  0.000132
 12   -846.08582042  -0.0000000346  0.000005  0.000011  0.154068  0.000295
 13   -846.08582048  -0.0000000596  0.000003  0.000014  0.386040  0.000746
 14   -846.08582047   0.0000000093  0.000008  0.000008  0.084024  0.000211
 15   -846.08582048  -0.0000000141  0.000004  0.000010  0.137543  0.000336
 16   -846.08582051  -0.0000000300  0.000004  0.000004  0.046836  0.000129
                  ***Gradient check signals convergence***
              ***Rediagonalizing the Fockian in SOSCF/NRSCF***

               *****************************************************
               *                     SUCCESS                       *
               *           SCF CONVERGED AFTER  17 CYCLES          *
               *****************************************************

Old exchange energy                            =    -29.813946181 Eh
New exchange energy                            =    -29.813974904 Eh
Exchange energy change after final integration =     -0.000028723 Eh
Total energy after final integration           =   -846.085849190 Eh
Final COS-X integration done in                =   208.381 sec

SMD CDS free energy correction energy :                -9.65253     Kcal/mol
Total Energy after SMD CDS correction =              -846.101231471 Eh

----------------
TOTAL SCF ENERGY
----------------

Total Energy       :         -846.10123147 Eh          -23023.58500 eV

Components:
Nuclear Repulsion  :         1617.98717814 Eh           44027.66944 eV
Electronic Energy  :        -2464.08840961 Eh          -67051.25445 eV
One Electron Energy:        -4358.23920188 Eh         -118593.71787 eV
Two Electron Energy:         1894.15079227 Eh           51542.46343 eV
Max COSX asymmetry :            0.00003899 Eh               0.00106 eV
CPCM Dielectric    :           -0.01260350 Eh              -0.34296 eV
SMD CDS (Gcds)     :           -0.01538228 Eh              -0.41857 eV

Virial components:
Potential Energy   :        -1687.58235681 Eh          -45921.45053 eV
Kinetic Energy     :          841.48112534 Eh           22897.86553 eV
Virial Ratio       :            2.00549045


DFT components:
N(Alpha)           :       72.999931184240 electrons
N(Beta)            :       72.999931184240 electrons
N(Total)           :      145.999862368480 electrons
E(X)               :      -89.156393475386 Eh       
E(C)               :       -4.910361550831 Eh       
E(XC)              :      -94.066755026217 Eh       
DFET-embed. en.    :        0.000000000000 Eh       
CPCM Solvation Model Properties:
Surface-charge          :           -0.06627921
Charge-correction       :            0.00025131 Eh               0.00684 eV
Free-energy (cav+disp)  :           -0.01538228 Eh              -0.41857 eV

---------------
SCF CONVERGENCE
---------------

  Last Energy change         ...    4.6491e-08  Tolerance :   1.0000e-08
  Last MAX-Density change    ...    2.6645e-15  Tolerance :   1.0000e-07
  Last RMS-Density change    ...    1.8666e-17  Tolerance :   5.0000e-09
  Last Orbital Gradient      ...    1.5892e-06  Tolerance :   1.0000e-05
  Last Orbital Rotation      ...    5.7167e-06  Tolerance :   1.0000e-05

             **** THE GBW FILE WAS UPDATED (optpbed3-wb2plyp-train-10.gbw) ****
             **** DENSITY optpbed3-wb2plyp-train-10.scfp WAS UPDATED ****
             **** ENERGY FILE WAS UPDATED (optpbed3-wb2plyp-train-10.en.tmp) ****
             **** THE GBW FILE WAS UPDATED (optpbed3-wb2plyp-train-10.gbw) ****
             **** DENSITY optpbed3-wb2plyp-train-10.scfp WAS UPDATED ****
----------------
ORBITAL ENERGIES
----------------

  NO   OCC          E(Eh)            E(eV) 
   0   2.0000     -10.247331      -278.8441 
   1   2.0000     -10.246830      -278.8304 
   2   2.0000     -10.242815      -278.7212 
   3   2.0000     -10.242792      -278.7205 
   4   2.0000     -10.241777      -278.6929 
   5   2.0000     -10.241751      -278.6922 
   6   2.0000     -10.239635      -278.6346 
   7   2.0000     -10.239608      -278.6339 
   8   2.0000     -10.229950      -278.3711 
   9   2.0000     -10.229535      -278.3598 
  10   2.0000     -10.229530      -278.3597 
  11   2.0000     -10.229138      -278.3490 
  12   2.0000     -10.228641      -278.3355 
  13   2.0000     -10.228635      -278.3353 
  14   2.0000     -10.227378      -278.3011 
  15   2.0000     -10.227357      -278.3005 
  16   2.0000     -10.226437      -278.2755 
  17   2.0000     -10.226392      -278.2743 
  18   2.0000     -10.226170      -278.2682 
  19   2.0000     -10.226116      -278.2668 
  20   2.0000     -10.225230      -278.2426 
  21   2.0000     -10.225194      -278.2417 
  22   2.0000      -0.928253       -25.2591 
  23   2.0000      -0.904458       -24.6116 
  24   2.0000      -0.881766       -23.9941 
  25   2.0000      -0.852786       -23.2055 
  26   2.0000      -0.827354       -22.5134 
  27   2.0000      -0.816318       -22.2131 
  28   2.0000      -0.788542       -21.4573 
  29   2.0000      -0.774734       -21.0816 
  30   2.0000      -0.762412       -20.7463 
  31   2.0000      -0.744598       -20.2615 
  32   2.0000      -0.735607       -20.0169 
  33   2.0000      -0.664409       -18.0795 
  34   2.0000      -0.660348       -17.9690 
  35   2.0000      -0.636957       -17.3325 
  36   2.0000      -0.631926       -17.1956 
  37   2.0000      -0.630853       -17.1664 
  38   2.0000      -0.596490       -16.2313 
  39   2.0000      -0.571835       -15.5604 
  40   2.0000      -0.549447       -14.9512 
  41   2.0000      -0.544069       -14.8049 
  42   2.0000      -0.519566       -14.1381 
  43   2.0000      -0.514590       -14.0027 
  44   2.0000      -0.507542       -13.8109 
  45   2.0000      -0.480339       -13.0707 
  46   2.0000      -0.478923       -13.0322 
  47   2.0000      -0.464974       -12.6526 
  48   2.0000      -0.448860       -12.2141 
  49   2.0000      -0.447456       -12.1759 
  50   2.0000      -0.445869       -12.1327 
  51   2.0000      -0.438659       -11.9365 
[...]
   Time for LR-CPCM terms:       16.133
   Time for Sigma-Completion:     0.259
   Size of expansion space: 40
   Lowest Energy          :     0.153452183747
   Maximum Energy change  :     0.025160474141 (vector 3)
   Maximum residual norm  :     0.001902254099

                       ****Iteration    2****
   Time for densities:            0.350
   Time for RI-J (Direct):       18.806
   Time for K (COSX):            83.362
   Time for XC-Integration:      30.792
   Time for LR-CPCM terms:       15.974
   Time for Sigma-Completion:     0.283
   Size of expansion space: 50
   Lowest Energy          :     0.152696021569
   Maximum Energy change  :     0.005288672865 (vector 3)
   Maximum residual norm  :     0.000493507473

                       ****Iteration    3****
   Time for densities:            0.332
   Time for RI-J (Direct):       18.675
   Time for K (COSX):            83.495
   Time for XC-Integration:      32.602
   Time for LR-CPCM terms:       16.186
   Time for Sigma-Completion:     0.272
   Size of expansion space: 60
   Lowest Energy          :     0.152601536058
   Maximum Energy change  :     0.001658890336 (vector 4)
   Maximum residual norm  :     0.000270589402

                       ****Iteration    4****
   Time for densities:            0.347
   Time for RI-J (Direct):       18.765
   Time for K (COSX):            83.789
   Time for XC-Integration:      32.350
   Time for LR-CPCM terms:       16.132
   Time for Sigma-Completion:     0.292
   Size of expansion space: 70
   Lowest Energy          :     0.152573402109
   Maximum Energy change  :     0.002251586124 (vector 8)
   Maximum residual norm  :     0.001789299416
   Rebuilding the expansion space

                       ****Iteration    5****
   Time for densities:            0.691
   Time for RI-J (Direct):       25.240
   Time for K (COSX):           139.968
   Time for XC-Integration:      60.599
   Time for LR-CPCM terms:       25.147
   Time for Sigma-Completion:     0.555
   Size of expansion space: 20
   Lowest Energy          :     0.152569105847
   Maximum Energy change  :     0.002748174861 (vector 8)
   Maximum residual norm  :     0.000376940210

                       ****Iteration    6****
   Time for densities:            0.337
   Time for RI-J (Direct):       18.568
   Time for K (COSX):            83.775
   Time for XC-Integration:      32.866
   Time for LR-CPCM terms:       16.056
   Time for Sigma-Completion:     0.276
   Size of expansion space: 30
   Lowest Energy          :     0.152568232551
   Maximum Energy change  :     0.001156006092 (vector 8)
   Maximum residual norm  :     0.000246604190

                       ****Iteration    7****
   Time for densities:            0.337
   Time for RI-J (Direct):       18.562
   Time for K (COSX):            82.741
   Time for XC-Integration:      32.457
   Time for LR-CPCM terms:       15.968
   Time for Sigma-Completion:     0.279
   Size of expansion space: 40
   Lowest Energy          :     0.152568052245
   Maximum Energy change  :     0.001154081580 (vector 8)
   Maximum residual norm  :     0.000237887710

                       ****Iteration    8****
   Time for densities:            0.343
   Time for RI-J (Direct):       18.662
   Time for K (COSX):            83.805
   Time for XC-Integration:      33.252
   Time for LR-CPCM terms:       15.949
   Time for Sigma-Completion:     0.282
   Size of expansion space: 50
   Lowest Energy          :     0.152568023354
   Maximum Energy change  :     0.001146766369 (vector 8)
   Maximum residual norm  :     0.000148509846

                       ****Iteration    9****
   Time for densities:            0.344
   Time for RI-J (Direct):       18.818
   Time for K (COSX):            84.182
   Time for XC-Integration:      33.135
   Time for LR-CPCM terms:       16.139
   Time for Sigma-Completion:     0.276
   Size of expansion space: 60
   Lowest Energy          :     0.152568020948
   Maximum Energy change  :     0.000483964299 (vector 8)
   Maximum residual norm  :     0.000100536633

                       ****Iteration   10****
   Time for densities:            0.347
   Time for RI-J (Direct):       18.830
   Time for K (COSX):            83.939
   Time for XC-Integration:      33.611
   Time for LR-CPCM terms:       16.203
   Time for Sigma-Completion:     0.294
   Size of expansion space: 70
   Lowest Energy          :     0.152568020756
   Maximum Energy change  :     0.000335504475 (vector 9)
   Maximum residual norm  :     0.000029331671
   Rebuilding the expansion space

                       ****Iteration   11****
   Time for densities:            0.656
   Time for RI-J (Direct):       25.012
   Time for K (COSX):           138.127
   Time for XC-Integration:      61.259
   Time for LR-CPCM terms:       25.581
   Time for Sigma-Completion:     0.500
   Size of expansion space: 20
   Lowest Energy          :     0.152568025372
   Maximum Energy change  :     0.000066785755 (vector 9)
   Maximum residual norm  :     0.000010697752

                       ****Iteration   12****
   Time for densities:            0.336
   Time for RI-J (Direct):       19.139
   Time for K (COSX):            85.117
   Time for XC-Integration:      35.051
   Time for LR-CPCM terms:       16.320
   Time for Sigma-Completion:     0.306
   Size of expansion space: 30
   Lowest Energy          :     0.152568025370
   Maximum Energy change  :     0.000021505540 (vector 9)
   Maximum residual norm  :     0.000003146138

                       ****Iteration   13****
   Time for densities:            0.339
   Time for RI-J (Direct):       19.150
   Time for K (COSX):            85.455
   Time for XC-Integration:      35.342
   Time for LR-CPCM terms:       16.307
   Time for Sigma-Completion:     0.288
   Size of expansion space: 40
   Lowest Energy          :     0.152568025370
   Maximum Energy change  :     0.000007801043 (vector 9)
   Maximum residual norm  :     0.000001249080

                       ****Iteration   14****
   Time for densities:            0.343
   Time for RI-J (Direct):       18.978
   Time for K (COSX):            84.568
   Time for XC-Integration:      33.163
   Time for LR-CPCM terms:       16.090
   Time for Sigma-Completion:     0.301
   Size of expansion space: 50
   Lowest Energy          :     0.152568025370
   Maximum Energy change  :     0.000003673763 (vector 9)
   Maximum residual norm  :     0.000000588205

      *** CONVERGENCE OF RESIDUAL NORM REACHED ***

Storing the converged CI vectors               ... optpbed3-wb2plyp-train-10_job2.cis1

                 *** DAVIDSON DONE ***

Total time for solving the CIS problem:  2702.678sec

------------------
DOUBLES CORRECTION (Double precision version)
------------------

The (D) correction will be scaled by  0.2700
Doing v(i,a)*T(i,a) terms (RI)                    ... ok
Doing u(i,j,a,b) terms for state   0              ... ok
Doing u(i,j,a,b) terms for state   1              ... ok
Doing u(i,j,a,b) terms for state   2              ... ok
Doing u(i,j,a,b) terms for state   3              ... ok
Doing u(i,j,a,b) terms for state   4              ... ok
Doing u(i,j,a,b) terms for state   5              ... ok
Doing u(i,j,a,b) terms for state   6              ... ok
Doing u(i,j,a,b) terms for state   7              ... ok
Doing u(i,j,a,b) terms for state   8              ... ok
Doing u(i,j,a,b) terms for state   9              ... ok

Contributions to the (D) correction(s) (in eV)

STATE  Final   Init.   Total   v(ext)   v(int)  v(3)    u
       omega   omega     (D)                             
-----------------------------------------------------------------------------
   0   3.879   4.152  -0.273   0.511   0.888  -0.026  -1.645
   1   4.231   4.266  -0.034   0.501   0.886  -0.045  -1.376
   2   4.411   4.642  -0.231   0.490   0.883  -0.046  -1.557
   3   4.612   4.906  -0.293   0.474   0.852  -0.025  -1.595
   4   4.856   5.026  -0.170   0.454   0.865  -0.059  -1.430
   5   5.046   5.387  -0.341   0.484   0.867  -0.094  -1.599
   6   5.553   5.646  -0.092   0.105   0.873  -0.006  -1.064
   7   5.447   5.669  -0.222   0.321   0.853  -0.049  -1.348
   8   5.382   5.687  -0.305   0.414   0.848  -0.021  -1.545
   9   5.771   5.864  -0.093   0.139   0.871  -0.015  -1.087

(D)-timings
 V(i,a)*T(i,a) terms           ...   984.460 sec
 U(i,j,a,b) 3-internal         ...    15.321 sec
 U(i,j,a,b) 3-external         ...   431.113 sec
 U(i,j,a,b) pair terms         ...   615.788 sec
 Total measured time           ...  5189.369 sec

 Time for (ab|v) I/O           ...   132.325 sec


------------------------------------
TD-DFT/TDA EXCITED STATES (SINGLETS)
------------------------------------

the weight of the individual excitations are printed if larger than 1.0e-02

STATE  1:  E=   0.142554 au      3.879 eV    31286.9 cm**-1 <S**2> =   0.000000
    69a ->  81a  :     0.012399 (c=  0.11135028)
    70a ->  87a  :     0.016299 (c=  0.12766794)
    71a ->  74a  :     0.359853 (c=  0.59987728)
    72a ->  73a  :     0.504799 (c=  0.71049190)
    72a ->  75a  :     0.011670 (c=  0.10802741)

STATE  2:  E=   0.155503 au      4.231 eV    34128.9 cm**-1 <S**2> =   0.000000
    69a ->  87a  :     0.011869 (c=  0.10894303)
    70a ->  79a  :     0.012434 (c= -0.11150726)
    70a ->  81a  :     0.018910 (c= -0.13751231)
    71a ->  73a  :     0.480033 (c= -0.69284416)
    72a ->  74a  :     0.398935 (c=  0.63161288)

STATE  3:  E=   0.162111 au      4.411 eV    35579.3 cm**-1 <S**2> =   0.000000
    69a ->  74a  :     0.013707 (c=  0.11707488)
    71a ->  73a  :     0.404179 (c= -0.63575043)
    72a ->  74a  :     0.466687 (c= -0.68314528)

STATE  4:  E=   0.169498 au      4.612 eV    37200.5 cm**-1 <S**2> =   0.000000
    69a ->  74a  :     0.122736 (c=  0.35033759)
    70a ->  73a  :     0.349052 (c= -0.59080600)
    71a ->  79a  :     0.086621 (c=  0.29431481)
    71a ->  81a  :     0.122100 (c=  0.34942851)
    71a ->  82a  :     0.012268 (c= -0.11076202)
    72a ->  83a  :     0.023854 (c=  0.15444603)
    72a ->  85a  :     0.010015 (c=  0.10007450)
    72a ->  87a  :     0.105098 (c= -0.32418810)
    72a ->  95a  :     0.013981 (c=  0.11824279)

STATE  5:  E=   0.178450 au      4.856 eV    39165.1 cm**-1 <S**2> =   0.000000
    69a ->  73a  :     0.093343 (c= -0.30552116)
    70a ->  74a  :     0.155540 (c= -0.39438570)
    71a ->  74a  :     0.168296 (c=  0.41023850)
    71a ->  87a  :     0.040719 (c=  0.20178937)
    72a ->  73a  :     0.166995 (c= -0.40865002)
    72a ->  79a  :     0.090074 (c=  0.30012398)
    72a ->  81a  :     0.137001 (c=  0.37013618)

STATE  6:  E=   0.185428 au      5.046 eV    40696.8 cm**-1 <S**2> =   0.000000
    69a ->  73a  :     0.028567 (c= -0.16901669)
    70a ->  74a  :     0.113810 (c= -0.33735666)
    71a ->  74a  :     0.374701 (c= -0.61212790)
    71a ->  87a  :     0.012252 (c=  0.11069067)
    72a ->  73a  :     0.224144 (c=  0.47343883)
    72a ->  75a  :     0.018113 (c=  0.13458371)
    72a ->  79a  :     0.051817 (c=  0.22763329)
    72a ->  81a  :     0.065044 (c=  0.25503638)

STATE  7:  E=   0.204080 au      5.553 eV    44790.3 cm**-1 <S**2> =   0.000000
    69a ->  73a  :     0.064720 (c= -0.25440150)
    70a ->  74a  :     0.013806 (c= -0.11749911)
    70a ->  76a  :     0.039675 (c= -0.19918564)
    70a ->  87a  :     0.025750 (c=  0.16046751)
    70a ->  88a  :     0.010520 (c=  0.10256660)
    72a ->  75a  :     0.528672 (c= -0.72709807)
    72a ->  77a  :     0.015200 (c= -0.12328776)
    72a ->  79a  :     0.014092 (c= -0.11870847)
    72a ->  81a  :     0.014491 (c= -0.12037709)
    72a ->  82a  :     0.093962 (c= -0.30653229)
    72a ->  84a  :     0.011838 (c=  0.10880406)
    72a -> 105a  :     0.021076 (c=  0.14517408)

STATE  8:  E=   0.200155 au      5.447 eV    43929.1 cm**-1 <S**2> =   0.000000
    68a ->  74a  :     0.025079 (c= -0.15836322)
    70a ->  73a  :     0.246580 (c=  0.49656810)
    70a ->  79a  :     0.036241 (c= -0.19037015)
    70a ->  81a  :     0.056061 (c= -0.23677221)
    71a ->  75a  :     0.164951 (c=  0.40614141)
    71a ->  79a  :     0.132058 (c=  0.36339763)
    71a ->  81a  :     0.114308 (c=  0.33809449)
    72a ->  83a  :     0.010025 (c=  0.10012547)
    72a ->  98a  :     0.011648 (c= -0.10792402)

STATE  9:  E=   0.197774 au      5.382 eV    43406.4 cm**-1 <S**2> =   0.000000
    67a ->  74a  :     0.065783 (c= -0.25648281)
    68a ->  73a  :     0.071616 (c= -0.26761164)
    69a ->  73a  :     0.115531 (c= -0.33989813)
    69a ->  79a  :     0.036864 (c=  0.19199979)
    69a ->  81a  :     0.056048 (c=  0.23674423)
    70a ->  74a  :     0.080174 (c=  0.28315092)
    70a ->  87a  :     0.049016 (c=  0.22139517)
    70a ->  95a  :     0.010187 (c= -0.10093072)
    71a ->  83a  :     0.066781 (c=  0.25842001)
    71a ->  85a  :     0.024518 (c=  0.15658356)
    71a ->  87a  :     0.049798 (c= -0.22315371)
    71a ->  96a  :     0.034247 (c=  0.18505974)
    71a ->  98a  :     0.041897 (c= -0.20468643)
    71a -> 101a  :     0.013063 (c= -0.11429199)
    72a ->  73a  :     0.014516 (c= -0.12048422)
    72a ->  75a  :     0.043686 (c=  0.20901089)
    72a -> 102a  :     0.019334 (c=  0.13904506)
    72a -> 109a  :     0.012075 (c= -0.10988497)

STATE 10:  E=   0.212085 au      5.771 eV    46547.3 cm**-1 <S**2> =   0.000000
    68a ->  74a  :     0.018195 (c= -0.13488943)
    69a ->  76a  :     0.011235 (c=  0.10599682)
    70a ->  73a  :     0.032301 (c=  0.17972368)
    70a ->  79a  :     0.034384 (c= -0.18542876)
    70a ->  81a  :     0.050499 (c= -0.22472046)
    71a ->  73a  :     0.014044 (c=  0.11850763)
    71a ->  75a  :     0.397990 (c= -0.63086411)
    71a ->  77a  :     0.031324 (c= -0.17698449)
    71a ->  82a  :     0.095380 (c= -0.30883611)
    71a ->  84a  :     0.019146 (c=  0.13837043)
    71a ->  92a  :     0.014314 (c= -0.11964141)
    71a -> 107a  :     0.013331 (c=  0.11545779)
    72a ->  80a  :     0.014633 (c= -0.12096640)
    72a ->  83a  :     0.031116 (c=  0.17639853)
    72a ->  85a  :     0.011442 (c=  0.10696687)
    72a ->  96a  :     0.011115 (c=  0.10542915)
    72a ->  98a  :     0.015537 (c= -0.12464867)


-----------------------------
TD-DFT/TDA-EXCITATION SPECTRA
-----------------------------

Center of mass = (  0.0315, -0.1595, -0.0327)
Calculating the Dipole integrals                  ... done
Transforming integrals                            ... done
Calculating the Linear Momentum integrals         ... done
Transforming integrals                            ... done
Calculating angular momentum integrals            ... done
Transforming integrals                            ... done

-----------------------------------------------------------------------------
         ABSORPTION SPECTRUM VIA TRANSITION ELECTRIC DIPOLE MOMENTS
-----------------------------------------------------------------------------
State   Energy    Wavelength  fosc         T2        TX        TY        TZ  
        (cm-1)      (nm)                 (au**2)    (au)      (au)      (au) 
-----------------------------------------------------------------------------
   1   31286.9    319.6   0.002558719   0.02692   0.03077  -0.15998  -0.01956
   2   34128.9    293.0   0.010339560   0.09974   0.27106   0.06668  -0.14770
   3   35579.3    281.1   1.066678647   9.86987  -3.03927  -0.54313  -0.58115
   4   37200.5    268.8   0.002256886   0.01997  -0.02260  -0.02033   0.13802
   5   39165.1    255.3   0.029614564   0.24893  -0.09786   0.48591   0.05703
   6   40696.8    245.7   1.260645999  10.19784   0.61740  -3.11405  -0.34545
   7   44790.3    223.3   0.038727995   0.28465  -0.05782   0.52778   0.05249
   8   43929.1    227.6   0.635644711   4.76363   2.11790   0.43340  -0.30051
   9   43406.4    230.4   0.022177898   0.16821  -0.07497   0.40070   0.04502
  10   46547.3    214.8   0.022940502   0.16225   0.36136   0.05858   0.16804

-----------------------------------------------------------------------------
         ABSORPTION SPECTRUM VIA TRANSITION VELOCITY DIPOLE MOMENTS
-----------------------------------------------------------------------------
State   Energy    Wavelength   fosc        P2         PX        PY        PZ  
        (cm-1)      (nm)                 (au**2)     (au)      (au)      (au) 
-----------------------------------------------------------------------------
   1   31286.9    319.6   0.000030101   0.00001  -0.00033   0.00248   0.00041
   2   34128.9    293.0   0.000010984   0.00000   0.00060   0.00034   0.00145
   3   35579.3    281.1   0.419547876   0.10202   0.30565   0.05261   0.07638
   4   37200.5    268.8   0.001784472   0.00045  -0.01883  -0.00259  -0.00961
   5   39165.1    255.3   0.000947840   0.00025   0.00314  -0.01555  -0.00147
   6   40696.8    245.7   0.237500084   0.06606  -0.04980   0.25066   0.02739
   7   44790.3    223.3   0.009342728   0.00286   0.00622  -0.05276  -0.00617
   8   43929.1    227.6   0.118766996   0.03566  -0.18533  -0.03320  -0.01438
   9   43406.4    230.4   0.004330858   0.00128   0.00633  -0.03505  -0.00402
  10   46547.3    214.8   0.007960693   0.00253  -0.03691  -0.00414  -0.03396

-------------------------------------------------------------------
                             CD SPECTRUM
-------------------------------------------------------------------
State  Energy     Wavelength     R         MX        MY        MZ   
       (cm-1)       (nm)     (1e40*cgs)   (au)      (au)      (au)  
-------------------------------------------------------------------
   1   31286.9    319.6     -3.91949  -0.00935   0.04968   0.00397
   2   34128.9    293.0      5.44606   0.00707   0.00881  -0.06125
   3   35579.3    281.1    644.49851  -0.11160   0.19090  -1.94707
   4   37200.5    268.8      9.62989  -0.02535  -0.02066   0.14080
   5   39165.1    255.3    -29.95260   0.02542  -0.12387  -0.01499
   6   40696.8    245.7    -452.36335  -0.06173   0.29224   0.03287
   7   44790.3    223.3     21.43300  -0.01633   0.08377   0.00581
   8   43929.1    227.6    111.67725   0.05583   0.04837  -0.32505
   9   43406.4    230.4    -21.49286   0.02085  -0.10872  -0.01025
  10   46547.3    214.8    -27.05326  -0.18262  -0.04385   0.06652

-------------------------------------------------------------------
         CD SPECTRUM VIA TRANSITION VELOCITY DIPOLE MOMENTS        
-------------------------------------------------------------------
State  Energy     Wavelength     R         MX        MY        MZ   
       (cm-1)       (nm)     (1e40*cgs)   (au)      (au)      (au)  
-------------------------------------------------------------------
   1   31286.9    319.6      0.42339  -0.00935   0.04968   0.00397
   2   34128.9    293.0     -0.24675   0.00707   0.00881  -0.06125
   3   35579.3    281.1    -502.47191  -0.11160   0.19090  -1.94707
   4   37200.5    268.8     -2.28751  -0.02535  -0.02066   0.14080
   5   39165.1    255.3      5.35683   0.02542  -0.12387  -0.01499
   6   40696.8    245.7    196.34659  -0.06173   0.29224   0.03287
   7   44790.3    223.3    -10.52681  -0.01633   0.08377   0.00581
   8   43929.1    227.6    -17.14588   0.05583   0.04837  -0.32505
   9   43406.4    230.4      9.49686   0.02085  -0.10872  -0.01025
  10   46547.3    214.8     10.36425  -0.18262  -0.04385   0.06652

Total run time:     7905.179 sec

           *** ORCA-CIS/TD-DFT FINISHED WITHOUT ERROR ***

Maximum memory used throughout the entire CIS-calculation: 2218.5 MB

-----------------------
CIS/TD-DFT TOTAL ENERGY
-----------------------

    E(SCF)  =   -844.359476811 Eh
    DE(CIS) =      0.142553778 Eh (Root  1)
    ----------------------------- ---------
    E(tot)  =   -844.216923034 Eh

  Warning: (DFTVDWD): Non-parameterized functional used for dispersion correction ! 

  Warning: (D3BJ): Non-parameterized functional used for dispersion correction !

Please define all necessary parameters (s6, s8, a1, and a2) in the %method block!
[file orca_tools/Tool-Misc/qcdftvdw.cpp, line 36127]: ERROR in DFT dispersion correction!

