
                                 *****************
                                 * O   R   C   A *
                                 *****************

                                            #,                                       
                                            ###                                      
                                            ####                                     
                                            #####                                    
                                            ######                                   
                                           ########,                                 
                                     ,,################,,,,,                         
                               ,,#################################,,                 
                          ,,##########################################,,             
                       ,#########################################, ''#####,          
                    ,#############################################,,   '####,        
                  ,##################################################,,,,####,       
                ,###########''''           ''''###############################       
              ,#####''   ,,,,##########,,,,          '''####'''          '####       
            ,##' ,,,,###########################,,,                        '##       
           ' ,,###''''                  '''############,,,                           
         ,,##''                                '''############,,,,        ,,,,,,###''
      ,#''                                            '''#######################'''  
     '                                                          ''''####''''         
             ,#######,   #######,   ,#######,      ##                                
            ,#'     '#,  ##    ##  ,#'     '#,    #''#        ######   ,####,        
            ##       ##  ##   ,#'  ##            #'  '#       #        #'  '#        
            ##       ##  #######   ##           ,######,      #####,   #    #        
            '#,     ,#'  ##    ##  '#,     ,#' ,#      #,         ##   #,  ,#        
             '#######'   ##     ##  '#######'  #'      '#     #####' # '####'        



                  #######################################################
                  #                        -***-                        #
                  #          Department of theory and spectroscopy      #
                  #    Directorship and core code : Frank Neese         #
                  #        Max Planck Institute fuer Kohlenforschung    #
                  #                Kaiser Wilhelm Platz 1               #
                  #                 D-45470 Muelheim/Ruhr               #
                  #                      Germany                        #
                  #                                                     #
                  #                  All rights reserved                #
                  #                        -***-                        #
                  #######################################################


                         Program Version 5.0.2 -  RELEASE  -


 With contributions from (in alphabetic order):
   Daniel Aravena         : Magnetic Suceptibility
   Michael Atanasov       : Ab Initio Ligand Field Theory (pilot matlab implementation)
   Alexander A. Auer      : GIAO ZORA, VPT2 properties, NMR spectrum
   Ute Becker             : Parallelization
   Giovanni Bistoni       : ED, misc. LED, open-shell LED, HFLD
   Martin Brehm           : Molecular dynamics
   Dmytro Bykov           : SCF Hessian
   Vijay G. Chilkuri      : MRCI spin determinant printing, contributions to CSF-ICE
   Dipayan Datta          : RHF DLPNO-CCSD density
   Achintya Kumar Dutta   : EOM-CC, STEOM-CC
   Dmitry Ganyushin       : Spin-Orbit,Spin-Spin,Magnetic field MRCI
   Miquel Garcia          : C-PCM and meta-GGA Hessian, CC/C-PCM, Gaussian charge scheme
   Yang Guo               : DLPNO-NEVPT2, F12-NEVPT2, CIM, IAO-localization
   Andreas Hansen         : Spin unrestricted coupled pair/coupled cluster methods
   Benjamin Helmich-Paris : MC-RPA, TRAH-SCF, COSX integrals
   Lee Huntington         : MR-EOM, pCC
   Robert Izsak           : Overlap fitted RIJCOSX, COSX-SCS-MP3, EOM
   Marcus Kettner         : VPT2
   Christian Kollmar      : KDIIS, OOCD, Brueckner-CCSD(T), CCSD density, CASPT2, CASPT2-K
   Simone Kossmann        : Meta GGA functionals, TD-DFT gradient, OOMP2, MP2 Hessian
   Martin Krupicka        : Initial AUTO-CI
   Lucas Lang             : DCDCAS
   Marvin Lechner         : AUTO-CI (C++ implementation), FIC-MRCC
   Dagmar Lenk            : GEPOL surface, SMD
   Dimitrios Liakos       : Extrapolation schemes; Compound Job, initial MDCI parallelization
   Dimitrios Manganas     : Further ROCIS development; embedding schemes
   Dimitrios Pantazis     : SARC Basis sets
   Anastasios Papadopoulos: AUTO-CI, single reference methods and gradients
   Taras Petrenko         : DFT Hessian,TD-DFT gradient, ASA, ECA, R-Raman, ABS, FL, XAS/XES, NRVS
   Peter Pinski           : DLPNO-MP2, DLPNO-MP2 Gradient
   Christoph Reimann      : Effective Core Potentials
   Marius Retegan         : Local ZFS, SOC
   Christoph Riplinger    : Optimizer, TS searches, QM/MM, DLPNO-CCSD(T), (RO)-DLPNO pert. Triples
   Tobias Risthaus        : Range-separated hybrids, TD-DFT gradient, RPA, STAB
   Michael Roemelt        : Original ROCIS implementation
   Masaaki Saitow         : Open-shell DLPNO-CCSD energy and density
   Barbara Sandhoefer     : DKH picture change effects
   Avijit Sen             : IP-ROCIS
   Kantharuban Sivalingam : CASSCF convergence, NEVPT2, FIC-MRCI
   Bernardo de Souza      : ESD, SOC TD-DFT
   Georgi Stoychev        : AutoAux, RI-MP2 NMR, DLPNO-MP2 response
   Willem Van den Heuvel  : Paramagnetic NMR
   Boris Wezisla          : Elementary symmetry handling
   Frank Wennmohs         : Technical directorship


 We gratefully acknowledge several colleagues who have allowed us to
 interface, adapt or use parts of their codes:
   Stefan Grimme, W. Hujo, H. Kruse, P. Pracht,  : VdW corrections, initial TS optimization,
                  C. Bannwarth, S. Ehlert          DFT functionals, gCP, sTDA/sTD-DF
   Ed Valeev, F. Pavosevic, A. Kumar             : LibInt (2-el integral package), F12 methods
   Garnet Chan, S. Sharma, J. Yang, R. Olivares  : DMRG
   Ulf Ekstrom                                   : XCFun DFT Library
   Mihaly Kallay                                 : mrcc  (arbitrary order and MRCC methods)
   Jiri Pittner, Ondrej Demel                    : Mk-CCSD
   Frank Weinhold                                : gennbo (NPA and NBO analysis)
   Christopher J. Cramer and Donald G. Truhlar   : smd solvation model
   Lars Goerigk                                  : TD-DFT with DH, B97 family of functionals
   V. Asgeirsson, H. Jonsson                     : NEB implementation
   FAccTs GmbH                                   : IRC, NEB, NEB-TS, DLPNO-Multilevel, CI-OPT
                                                   MM, QMMM, 2- and 3-layer-ONIOM, Crystal-QMMM,
                                                   LR-CPCM, SF, NACMEs, symmetry and pop. for TD-DFT,
                                                   nearIR, NL-DFT gradient (VV10), updates on ESD,
                                                   ML-optimized integration grids
   S Lehtola, MJT Oliveira, MAL Marques          : LibXC Library
   Liviu Ungur et al                             : ANISO software


 Your calculation uses the libint2 library for the computation of 2-el integrals
 For citations please refer to: http://libint.valeyev.net

 Your ORCA version has been built with support for libXC version: 5.1.0
 For citations please refer to: https://tddft.org/programs/libxc/

 This ORCA versions uses:
   CBLAS   interface :  Fast vector & matrix operations
   LAPACKE interface :  Fast linear algebra routines
   SCALAPACK package :  Parallel linear algebra routines
   Shared memory     :  Shared parallel matrices
   BLAS/LAPACK       :  OpenBLAS 0.3.15  USE64BITINT DYNAMIC_ARCH NO_AFFINITY Haswell SINGLE_THREADED
        Core in use  :  Haswell
   Copyright (c) 2011-2014, The OpenBLAS Project


Your calculation utilizes the atom-pairwise dispersion correction
with the Becke-Johnson damping scheme (D3BJ)
Cite in your paper:
S.Grimme, S.Ehrlich, L.Goerigk, J Comput Chem, (2011), 32, 1456–1465 
S.Grimme, J.Antony, S.Ehrlich and H.Krieg, J.Chem.Phys., 132, (2010), 154104 
   

Your calculation utilizes the SMD solvation module
Please cite in your paper:
A.V. Marenich, C.J. Cramer, D.G. Truhlar J. Phys. Chem. B, 113, (2009), 6378 

================================================================================

----- Orbital basis set information -----
Your calculation utilizes the basis: aug-cc-pVTZ 
    H, B-Ne : Obtained from the ccRepo (grant-hill.group.shef.ac.uk/ccrepo) Feb. 2017
              R. A. Kendall, T. H. Dunning, Jr., R. J. Harrison, J. Chem. Phys. 96, 6796 (1992)
         He : Obtained from the ccRepo (grant-hill.group.shef.ac.uk/ccrepo) Feb. 2017
              D. E. Woon, T. H. Dunning, Jr., J. Chem. Phys. 100, 2975 (1994)
  Li-Be, Na : Obtained from the ccRepo (grant-hill.group.shef.ac.uk/ccrepo) Feb. 2017
              B. P. Prascher, D. E. Woon, K. A. Peterson, T. H. Dunning, Jr., A. K. Wilson, Theor. Chem. Acc. 128, 69 (2011)
         Mg : Obtained from the Peterson Research Group Website (tyr0.chem.wsu.edu/~kipeters) Feb. 2017
              B. P. Prascher, D. E. Woon, K. A. Peterson, T. H. Dunning, Jr., A. K. Wilson, Theor. Chem. Acc. 128, 69 (2011)
      Al-Ar : Obtained from the ccRepo (grant-hill.group.shef.ac.uk/ccrepo) Feb. 2017
              D. E. Woon, T. H. Dunning, Jr., J. Chem. Phys. 98, 1358 (1993)
      Sc-Zn : Obtained from the ccRepo (grant-hill.group.shef.ac.uk/ccrepo) Feb. 2017
              N. B. Balabanov, K. A. Peterson, J. Chem. Phys. 123, 064107 (2005)
              N. B. Balabanov, K. A. Peterson, J. Chem. Phys. 125, 074110 (2006)
      Ga-Kr : Obtained from the ccRepo (grant-hill.group.shef.ac.uk/ccrepo) Feb. 2017
              A. K. Wilson, D. E. Woon, K. A. Peterson, T. H. Dunning, Jr., J. Chem. Phys. 110, 7667 (1999)
     Ag, Au : Obtained from the Peterson Research Group Website (tyr0.chem.wsu.edu/~kipeters) Feb. 2017
              K. A. Peterson, C. Puzzarini, Theor. Chem. Acc. 114, 283 (2005)

The basis set includes element-specific modifications.

Your calculation utilizes the basis: cc-pVTZ 
       H, B-Ne : Obtained from the ccRepo (grant-hill.group.shef.ac.uk/ccrepo) Feb. 2017
                 T. H. Dunning, Jr., J. Chem. Phys. 90, 1007 (1989)
            He : Obtained from the ccRepo (grant-hill.group.shef.ac.uk/ccrepo) Feb. 2017
                 D. E. Woon, T. H. Dunning, Jr., J. Chem. Phys. 100, 2975 (1994)
  Li-Be, Na-Mg : Obtained from the ccRepo (grant-hill.group.shef.ac.uk/ccrepo) Feb. 2017
                 B. P. Prascher, D. E. Woon, K. A. Peterson, T. H. Dunning, Jr., A. K. Wilson, Theor. Chem. Acc. 128, 69 (2011)
         Al-Ar : Obtained from the ccRepo (grant-hill.group.shef.ac.uk/ccrepo) Feb. 2017
                 D. E. Woon, T. H. Dunning, Jr., J. Chem. Phys. 98, 1358 (1993)
            Ca : Obtained from the Peterson Research Group Website (tyr0.chem.wsu.edu/~kipeters) Feb. 2017
                 J. Koput, K. A. Peterson, J. Phys. Chem. 106, 9595 (2002)
         Sc-Zn : Obtained from the ccRepo (grant-hill.group.shef.ac.uk/ccrepo) Feb. 2017
                 N. B. Balabanov, K. A. Peterson, J. Chem. Phys. 123, 064107 (2005)
                 N. B. Balabanov, K. A. Peterson, J. Chem. Phys. 125, 074110 (2006)
         Ga-Kr : Obtained from the ccRepo (grant-hill.group.shef.ac.uk/ccrepo) Feb. 2017
                 A. K. Wilson, D. E. Woon, K. A. Peterson, T. H. Dunning, Jr., J. Chem. Phys. 110, 7667 (1999)
             Y : Obtained from the ccRepo (grant-hill.group.shef.ac.uk/ccrepo) Feb. 2017
                 K. A. Peterson, D. Figgen, M. Dolg, H. Stoll, J. Chem. Phys. 126, 124101 (2007)
        Ag, Au : Obtained from the Peterson Research Group Website (tyr0.chem.wsu.edu/~kipeters) Feb. 2017
                 K. A. Peterson, C. Puzzarini, Theor. Chem. Acc. 114, 283 (2005)

----- AuxJ basis set information -----
Your calculation utilizes the auxiliary basis: aug-cc-pVTZ/JK 
  H, B-F, Al-Cl, Ga-Br : Obtained from the TURBOMOLE 7.0 basis set library

The basis set includes element-specific modifications.

Your calculation utilizes the auxiliary basis: cc-pVTZ/JK 
  H, B-F, Al-Cl, Ga-Br : Obtained from the TURBOMOLE 7.0 basis set library

----- AuxC basis set information -----
Your calculation utilizes the auxiliary basis: aug-cc-pVTZ/C 
  H-He, B-F, Al-Ar, Ga-Kr : Obtained from the EMSL Basis Set Exchange (bse.pnl.gov) Feb. 2017
                            F. Weigend, A. Kohn, C. Hattig, J. Chem. Phys. 116, 3175 (2002)
                   Be, Mg : Obtained from the TURBOMOLE 7.0 basis set library
                            C. Haettig, Phys. Chem. Chem. Phys. 7, 59 (2005)
                       Ne : Obtained from the EMSL Basis Set Exchange (bse.pnl.gov) Feb. 2017
                            C. Haettig, Phys. Chem. Chem. Phys. 7, 59 (2005)
                            F. Weigend, A. Kohn, C. Hattig, J. Chem. Phys. 116, 3175 (2002)
                    Sc-Zn : Obtained from the EMSL Basis Set Exchange (bse.pnl.gov) Feb. 2017
                            J. G. Hill, J. A. Platts, J. Chem. Phys. 128, 044104 (2008)

The basis set includes element-specific modifications.

Your calculation utilizes the auxiliary basis: cc-pVTZ/C 
  Obtained from the EMSL Basis Set Exchange (bse.pnl.gov) Feb. 2017
  H-He, B-F, Al-Ar, Ga-Kr : F. Weigend, A. Kohn, C. Hattig, J. Chem. Phys. 116, 3175 (2002)
             Li-Be, Na-Mg : C. Haettig, Phys. Chem. Chem. Phys. 7, 59 (2005)
                       Ne : C. Haettig, Phys. Chem. Chem. Phys. 7, 59 (2005)
                            F. Weigend, A. Kohn, C. Hattig, J. Chem. Phys. 116, 3175 (2002)
                    Sc-Zn : J. G. Hill, J. A. Platts, J. Chem. Phys. 128, 044104 (2008)

================================================================================
                                        WARNINGS
                       Please study these warnings very carefully!
================================================================================


WARNING: Geometry Optimization
  ===> : Switching off AutoStart
         For restart on a previous wavefunction, please use MOREAD

INFO   : the flag for use of the SHARK integral package has been found!



***************************************
The coordinates will be read from file: 
***************************************


Your calculation utilizes the atom-pairwise dispersion correction
with the Becke-Johnson damping scheme (D3BJ)
Cite in your paper:
S.Grimme, S.Ehrlich, L.Goerigk, J Comput Chem, (2011), 32, 1456–1465 
S.Grimme, J.Antony, S.Ehrlich and H.Krieg, J.Chem.Phys., 132, (2010), 154104 
   

Your calculation utilizes the SMD solvation module
Please cite in your paper:
A.V. Marenich, C.J. Cramer, D.G. Truhlar J. Phys. Chem. B, 113, (2009), 6378 

================================================================================

----- Orbital basis set information -----
Your calculation utilizes the basis: aug-cc-pVTZ 
    H, B-Ne : Obtained from the ccRepo (grant-hill.group.shef.ac.uk/ccrepo) Feb. 2017
              R. A. Kendall, T. H. Dunning, Jr., R. J. Harrison, J. Chem. Phys. 96, 6796 (1992)
         He : Obtained from the ccRepo (grant-hill.group.shef.ac.uk/ccrepo) Feb. 2017
              D. E. Woon, T. H. Dunning, Jr., J. Chem. Phys. 100, 2975 (1994)
  Li-Be, Na : Obtained from the ccRepo (grant-hill.group.shef.ac.uk/ccrepo) Feb. 2017
              B. P. Prascher, D. E. Woon, K. A. Peterson, T. H. Dunning, Jr., A. K. Wilson, Theor. Chem. Acc. 128, 69 (2011)
         Mg : Obtained from the Peterson Research Group Website (tyr0.chem.wsu.edu/~kipeters) Feb. 2017
              B. P. Prascher, D. E. Woon, K. A. Peterson, T. H. Dunning, Jr., A. K. Wilson, Theor. Chem. Acc. 128, 69 (2011)
      Al-Ar : Obtained from the ccRepo (grant-hill.group.shef.ac.uk/ccrepo) Feb. 2017
              D. E. Woon, T. H. Dunning, Jr., J. Chem. Phys. 98, 1358 (1993)
      Sc-Zn : Obtained from the ccRepo (grant-hill.group.shef.ac.uk/ccrepo) Feb. 2017
              N. B. Balabanov, K. A. Peterson, J. Chem. Phys. 123, 064107 (2005)
              N. B. Balabanov, K. A. Peterson, J. Chem. Phys. 125, 074110 (2006)
      Ga-Kr : Obtained from the ccRepo (grant-hill.group.shef.ac.uk/ccrepo) Feb. 2017
              A. K. Wilson, D. E. Woon, K. A. Peterson, T. H. Dunning, Jr., J. Chem. Phys. 110, 7667 (1999)
     Ag, Au : Obtained from the Peterson Research Group Website (tyr0.chem.wsu.edu/~kipeters) Feb. 2017
              K. A. Peterson, C. Puzzarini, Theor. Chem. Acc. 114, 283 (2005)

The basis set includes element-specific modifications.

Your calculation utilizes the basis: cc-pVTZ 
       H, B-Ne : Obtained from the ccRepo (grant-hill.group.shef.ac.uk/ccrepo) Feb. 2017
                 T. H. Dunning, Jr., J. Chem. Phys. 90, 1007 (1989)
            He : Obtained from the ccRepo (grant-hill.group.shef.ac.uk/ccrepo) Feb. 2017
                 D. E. Woon, T. H. Dunning, Jr., J. Chem. Phys. 100, 2975 (1994)
  Li-Be, Na-Mg : Obtained from the ccRepo (grant-hill.group.shef.ac.uk/ccrepo) Feb. 2017
                 B. P. Prascher, D. E. Woon, K. A. Peterson, T. H. Dunning, Jr., A. K. Wilson, Theor. Chem. Acc. 128, 69 (2011)
         Al-Ar : Obtained from the ccRepo (grant-hill.group.shef.ac.uk/ccrepo) Feb. 2017
                 D. E. Woon, T. H. Dunning, Jr., J. Chem. Phys. 98, 1358 (1993)
            Ca : Obtained from the Peterson Research Group Website (tyr0.chem.wsu.edu/~kipeters) Feb. 2017
                 J. Koput, K. A. Peterson, J. Phys. Chem. 106, 9595 (2002)
         Sc-Zn : Obtained from the ccRepo (grant-hill.group.shef.ac.uk/ccrepo) Feb. 2017
                 N. B. Balabanov, K. A. Peterson, J. Chem. Phys. 123, 064107 (2005)
                 N. B. Balabanov, K. A. Peterson, J. Chem. Phys. 125, 074110 (2006)
         Ga-Kr : Obtained from the ccRepo (grant-hill.group.shef.ac.uk/ccrepo) Feb. 2017
                 A. K. Wilson, D. E. Woon, K. A. Peterson, T. H. Dunning, Jr., J. Chem. Phys. 110, 7667 (1999)
             Y : Obtained from the ccRepo (grant-hill.group.shef.ac.uk/ccrepo) Feb. 2017
                 K. A. Peterson, D. Figgen, M. Dolg, H. Stoll, J. Chem. Phys. 126, 124101 (2007)
        Ag, Au : Obtained from the Peterson Research Group Website (tyr0.chem.wsu.edu/~kipeters) Feb. 2017
                 K. A. Peterson, C. Puzzarini, Theor. Chem. Acc. 114, 283 (2005)

----- AuxJ basis set information -----
Your calculation utilizes the auxiliary basis: aug-cc-pVTZ/JK 
  H, B-F, Al-Cl, Ga-Br : Obtained from the TURBOMOLE 7.0 basis set library

The basis set includes element-specific modifications.

Your calculation utilizes the auxiliary basis: cc-pVTZ/JK 
  H, B-F, Al-Cl, Ga-Br : Obtained from the TURBOMOLE 7.0 basis set library

----- AuxC basis set information -----
Your calculation utilizes the auxiliary basis: aug-cc-pVTZ/C 
  H-He, B-F, Al-Ar, Ga-Kr : Obtained from the EMSL Basis Set Exchange (bse.pnl.gov) Feb. 2017
                            F. Weigend, A. Kohn, C. Hattig, J. Chem. Phys. 116, 3175 (2002)
                   Be, Mg : Obtained from the TURBOMOLE 7.0 basis set library
                            C. Haettig, Phys. Chem. Chem. Phys. 7, 59 (2005)
                       Ne : Obtained from the EMSL Basis Set Exchange (bse.pnl.gov) Feb. 2017
                            C. Haettig, Phys. Chem. Chem. Phys. 7, 59 (2005)
                            F. Weigend, A. Kohn, C. Hattig, J. Chem. Phys. 116, 3175 (2002)
                    Sc-Zn : Obtained from the EMSL Basis Set Exchange (bse.pnl.gov) Feb. 2017
                            J. G. Hill, J. A. Platts, J. Chem. Phys. 128, 044104 (2008)

The basis set includes element-specific modifications.

Your calculation utilizes the auxiliary basis: cc-pVTZ/C 
  Obtained from the EMSL Basis Set Exchange (bse.pnl.gov) Feb. 2017
  H-He, B-F, Al-Ar, Ga-Kr : F. Weigend, A. Kohn, C. Hattig, J. Chem. Phys. 116, 3175 (2002)
             Li-Be, Na-Mg : C. Haettig, Phys. Chem. Chem. Phys. 7, 59 (2005)
                       Ne : C. Haettig, Phys. Chem. Chem. Phys. 7, 59 (2005)
                            F. Weigend, A. Kohn, C. Hattig, J. Chem. Phys. 116, 3175 (2002)
                    Sc-Zn : J. G. Hill, J. A. Platts, J. Chem. Phys. 128, 044104 (2008)

================================================================================
                                        WARNINGS
                       Please study these warnings very carefully!
================================================================================

INFO   : Checking CIS options ...
  ===> : (D) CORRECTION FOUND - SETTING MODE=3
  ===> : JK MODE FOUND - ACTIVATING RI-MP2 CODE
  ===> : MP2 AND CIS FOUND - CHECKING
WARNING: CIS(D) and MP2 runs must have the same orbital window
  ===> : adjusting orbital windows

WARNING: No MP2 level density has been requested!
         To caclulate MP2 level properties use
         %mp2 Density relaxed end
         or
         %mp2 Density unrelaxed end
         Otherwise for double-hybrid DFT only the energy is correct!

WARNING: The frozen-core approximation is turned on by default for 
         the MP2 part of double-hybrid DFT.

INFO   : the flag for use of the SHARK integral package has been found!

================================================================================
                                       INPUT FILE
================================================================================
NAME = optpbed3-b2plyp-test-390.inp
|  1> ! pbe0 d3bj aug-cc-PVTZ RIJCOSX Opt
|  2> %maxcore 4000
|  3> %basis
|  4>  AuxJ "aug-cc-PVTZ/JK"
|  5>  AuxC "aug-cc-PVTZ/C"
|  6>  newGTO H "cc-PVTZ" end
|  7>  newAuxJGTO H "cc-PVTZ/JK" end
|  8>  newAuxCGTO H "cc-PVTZ/C" end
|  9> end
| 10> %cpcm
| 11>  SMD true
| 12>  SMDsolvent "acetonitrile"
| 13> end
| 14> %pal nprocs 4 end
| 15> * xyz 0 1
| 16> C         -2.89710       -2.23790       -0.15620
| 17> N         -1.63490       -1.54890       -0.26190
| 18> C         -1.49810       -0.20580       -0.02400
| 19> C         -2.61970        0.63240        0.12710
| 20> C         -2.49960        1.98560        0.36120
| 21> C         -1.24820        2.58190        0.47240
| 22> C         -0.14100        1.77730        0.31030
| 23> C         -0.23830        0.40000        0.04140
| 24> C          1.11980       -0.13130       -0.10870
| 25> C          1.61580       -1.37750       -0.44940
| 26> C          2.99400       -1.56510       -0.51170
| 27> C          3.87840       -0.53360       -0.25280
| 28> C          3.39660        0.73200        0.06070
| 29> C          2.03270        0.91870        0.12580
| 30> C          1.28700        2.17060        0.39590
| 31> O          1.74090        3.26790        0.63150
| 32> H         -3.34260       -2.15840        0.84320
| 33> H         -3.60150       -1.83730       -0.88660
| 34> H         -2.73690       -3.29000       -0.38250
| 35> H         -0.82870       -2.10080       -0.01970
| 36> H         -3.60710        0.20320        0.06620
| 37> H         -3.39260        2.58290        0.47160
| 38> H         -1.13520        3.63470        0.67590
| 39> H          0.97190       -2.20850       -0.69580
| 40> H          3.37730       -2.54100       -0.77400
| 41> H          4.94210       -0.70990       -0.30710
| 42> H          4.06500        1.55910        0.24660
| 43> *
| 44> 
| 45> 
| 46> $new_job
| 47> ! b2plyp aug-cc-PVTZ RIJCOSX SP
| 48> %maxcore 4000
| 49> %basis
| 50>  AuxJ "aug-cc-PVTZ/JK"
| 51>  AuxC "aug-cc-PVTZ/C"
| 52>  newGTO H "cc-PVTZ" end
| 53>  newAuxJGTO H "cc-PVTZ/JK" end
| 54>  newAuxCGTO H "cc-PVTZ/C" end
| 55> end
| 56> %cpcm
| 57>  SMD true
| 58>  SMDsolvent "acetonitrile"
| 59> end
| 60> %pal nprocs 4 end
| 61> %tddft
| 62>  nroots 10
| 63>  maxdim 7
| 64> end
| 65> * xyzfile 0 1
| 66> 
| 67>                          ****END OF INPUT****
================================================================================


                 $$$$$$$$$$$$$$$$$$$$$$$$$$$$$$$$$$$$$$$$$$$$$$ 
                 $ THERE ARE  2 JOBS TO BE PROCESSED THIS RUN $
                 $$$$$$$$$$$$$$$$$$$$$$$$$$$$$$$$$$$$$$$$$$$$$$ 




                 $$$$$$$$$$$$$$$$  JOB NUMBER  1 $$$$$$$$$$$$$$


                       *****************************
                       * Geometry Optimization Run *
                       *****************************

Geometry optimization settings:
Update method            Update   .... BFGS
Choice of coordinates    CoordSys .... Z-matrix Internals
Initial Hessian          InHess   .... Almoef's Model

Convergence Tolerances:
Energy Change            TolE     ....  5.0000e-06 Eh
Max. Gradient            TolMAXG  ....  3.0000e-04 Eh/bohr
RMS Gradient             TolRMSG  ....  1.0000e-04 Eh/bohr
Max. Displacement        TolMAXD  ....  4.0000e-03 bohr
RMS Displacement         TolRMSD  ....  2.0000e-03 bohr
Strict Convergence                ....  False
------------------------------------------------------------------------------
                        ORCA OPTIMIZATION COORDINATE SETUP
------------------------------------------------------------------------------

The optimization will be done in new redundant internal coordinates
Making redundant internal coordinates   ...  (new redundants) done
Evaluating the initial hessian          ...  (Almloef) done
Evaluating the coordinates              ...  done
Calculating the B-matrix                .... done
Calculating the G-matrix                .... done
Diagonalizing the G-matrix              .... done
Small eigenvalue found = 1.048e-02
The first mode is                       ....   72
The number of degrees of freedom        ....   75

    -----------------------------------------------------------------
                    Redundant Internal Coordinates


    -----------------------------------------------------------------
         Definition                    Initial Value    Approx d2E/dq
    -----------------------------------------------------------------
      1. B(N   1,C   0)                  1.4419         0.462478   
      2. B(C   2,N   1)                  1.3708         0.600384   
      3. B(C   3,C   2)                  1.4083         0.584107   
      4. B(C   4,C   3)                  1.3785         0.651658   
      5. B(C   5,C   4)                  1.3907         0.623279   
      6. B(C   6,C   5)                  1.3782         0.652377   
      7. B(C   7,C   2)                  1.3994         0.603552   
      8. B(C   7,C   6)                  1.4067         0.587675   
      9. B(C   8,C   7)                  1.4660         0.472538   
     10. B(C   9,C   8)                  1.3839         0.639017   
     11. B(C  10,C   9)                  1.3923         0.619531   
     12. B(C  11,C  10)                  1.3832         0.640650   
     13. B(C  12,C  11)                  1.3900         0.624750   
     14. B(C  13,C  12)                  1.3782         0.652578   
     15. B(C  13,C   8)                  1.4110         0.578442   
     16. B(C  14,C  13)                  1.4820         0.445640   
     17. B(C  14,C   6)                  1.4836         0.442932   
     18. B(O  15,C  14)                  1.2106         1.081597   
     19. B(H  16,C   0)                  1.0971         0.350851   
     20. B(H  17,C   0)                  1.0909         0.358862   
     21. B(H  18,C   0)                  1.0880         0.362727   
     22. B(H  19,N   1)                  1.0066         0.438171   
     23. B(H  20,C   3)                  1.0784         0.375819   
     24. B(H  21,C   4)                  1.0800         0.373572   
     25. B(H  22,C   5)                  1.0782         0.376019   
     26. B(H  23,C   9)                  1.0798         0.373905   
     27. B(H  24,C  10)                  1.0808         0.372496   
     28. B(H  25,C  11)                  1.0796         0.374155   
     29. B(H  26,C  12)                  1.0795         0.374203   
     30. A(H  17,C   0,H  18)          108.1135         0.291014   
     31. A(N   1,C   0,H  16)          112.8067         0.332498   
     32. A(N   1,C   0,H  17)          109.9177         0.333745   
     33. A(N   1,C   0,H  18)          108.5379         0.334339   
     34. A(H  16,C   0,H  18)          108.6228         0.289985   
     35. A(H  16,C   0,H  17)          108.7292         0.289498   
     36. A(C   2,N   1,H  19)          114.5513         0.357475   
     37. A(C   0,N   1,C   2)          122.8749         0.404320   
     38. A(C   0,N   1,H  19)          114.9279         0.342076   
     39. A(C   3,C   2,C   7)          117.0191         0.427374   
     40. A(N   1,C   2,C   3)          121.4846         0.424190   
     41. A(N   1,C   2,C   7)          121.4718         0.426684   
     42. A(C   2,C   3,H  20)          119.0962         0.351901   
     43. A(C   4,C   3,H  20)          118.6889         0.358494   
     44. A(C   2,C   3,C   4)          122.2130         0.433299   
     45. A(C   5,C   4,H  21)          119.9161         0.355430   
     46. A(C   3,C   4,H  21)          119.2230         0.358128   
     47. A(C   3,C   4,C   5)          120.8560         0.438394   
     48. A(C   4,C   5,C   6)          117.5918         0.438482   
     49. A(C   6,C   5,H  22)          120.5325         0.358594   
     50. A(C   4,C   5,H  22)          121.8756         0.355824   
     51. A(C   5,C   6,C  14)          127.7105         0.412481   
     52. A(C   7,C   6,C  14)          109.7040         0.404923   
     53. A(C   5,C   6,C   7)          122.5825         0.433860   
     54. A(C   2,C   7,C   8)          132.2439         0.411524   
     55. A(C   2,C   7,C   6)          119.6736         0.427841   
     56. A(C   6,C   7,C   8)          108.0793         0.409584   
     57. A(C   7,C   8,C   9)          133.1246         0.415719   
     58. A(C   9,C   8,C  13)          118.6301         0.431020   
     59. A(C   7,C   8,C  13)          108.2194         0.408436   
     60. A(C   8,C   9,C  10)          119.1525         0.436374   
     61. A(C  10,C   9,H  23)          118.4496         0.355120   
     62. A(C   8,C   9,H  23)          122.3776         0.356992   
     63. A(C   9,C  10,C  11)          121.6051         0.436575   
     64. A(C  11,C  10,H  24)          119.4747         0.356918   
     65. A(C   9,C  10,H  24)          118.9195         0.354893   
     66. A(C  10,C  11,C  12)          119.9726         0.437235   
     67. A(C  12,C  11,H  25)          120.1024         0.355666   
     68. A(C  10,C  11,H  25)          119.9203         0.357187   
     69. A(C  13,C  12,H  26)          120.0542         0.358317   
     70. A(C  11,C  12,H  26)          121.4538         0.355674   
     71. A(C  11,C  12,C  13)          118.4914         0.438692   
     72. A(C  12,C  13,C  14)          128.3906         0.412950   
     73. A(C   8,C  13,C  14)          109.4731         0.404227   
     74. A(C   8,C  13,C  12)          122.1163         0.432650   
     75. A(C  13,C  14,O  15)          127.7695         0.449209   
     76. A(C   6,C  14,O  15)          127.7615         0.448713   
     77. A(C   6,C  14,C  13)          104.4690         0.385747   
     78. D(C   2,N   1,C   0,H  18)   -179.4035         0.018262   
     79. D(H  19,N   1,C   0,H  16)     88.7938         0.018262   
     80. D(C   2,N   1,C   0,H  17)     62.5439         0.018262   
     81. D(C   2,N   1,C   0,H  16)    -58.9802         0.018262   
     82. D(H  19,N   1,C   0,H  18)    -31.6295         0.018262   
     83. D(H  19,N   1,C   0,H  17)   -149.6821         0.018262   
     84. D(C   3,C   2,N   1,H  19)   -158.4312         0.029048   
     85. D(C   7,C   2,N   1,H  19)     23.4263         0.029048   
     86. D(C   3,C   2,N   1,C   0)    -10.5480         0.029048   
     87. D(C   7,C   2,N   1,C   0)    171.3095         0.029048   
     88. D(H  20,C   3,C   2,C   7)    179.0039         0.023456   
     89. D(C   4,C   3,C   2,C   7)     -1.5061         0.023456   
     90. D(C   4,C   3,C   2,N   1)   -179.7278         0.023456   
     91. D(H  20,C   3,C   2,N   1)      0.7823         0.023456   
     92. D(C   5,C   4,C   3,C   2)     -0.6690         0.029578   
     93. D(H  21,C   4,C   3,H  20)     -0.3734         0.029578   
     94. D(H  21,C   4,C   3,C   2)   -179.8653         0.029578   
     95. D(C   5,C   4,C   3,H  20)    178.8229         0.029578   
     96. D(H  22,C   5,C   4,H  21)      0.5004         0.026899   
     97. D(H  22,C   5,C   4,C   3)   -178.6903         0.026899   
     98. D(C   6,C   5,C   4,H  21)   -179.3847         0.026899   
     99. D(C   6,C   5,C   4,C   3)      1.4245         0.026899   
    100. D(C  14,C   6,C   5,H  22)      0.8249         0.029648   
    101. D(C  14,C   6,C   5,C   4)   -179.2883         0.029648   
    102. D(C   7,C   6,C   5,H  22)   -179.8862         0.029648   
    103. D(C   7,C   6,C   5,C   4)      0.0006         0.029648   
    104. D(C   8,C   7,C   2,C   3)   -177.8793         0.025128   
    105. D(C   8,C   7,C   2,N   1)      0.3427         0.025128   
    106. D(C   6,C   7,C   2,C   3)      2.8588         0.025128   
    107. D(C   2,C   7,C   6,C   5)     -2.2034         0.023758   
    108. D(C   6,C   7,C   2,N   1)   -178.9193         0.025128   
    109. D(C   8,C   7,C   6,C  14)     -2.2262         0.023758   
    110. D(C   8,C   7,C   6,C   5)    178.3713         0.023758   
    111. D(C   2,C   7,C   6,C  14)    177.1990         0.023758   
    112. D(C  13,C   8,C   7,C   6)      2.4054         0.015204   
    113. D(C  13,C   8,C   7,C   2)   -176.9200         0.015204   
    114. D(C   9,C   8,C   7,C   6)   -175.6580         0.015204   
    115. D(C   9,C   8,C   7,C   2)      5.0166         0.015204   
    116. D(H  23,C   9,C   8,C  13)   -176.4893         0.028365   
    117. D(H  23,C   9,C   8,C   7)      1.4148         0.028365   
    118. D(C  10,C   9,C   8,C  13)      1.8457         0.028365   
    119. D(C  10,C   9,C   8,C   7)    179.7498         0.028365   
    120. D(H  24,C  10,C   9,H  23)     -1.8600         0.026557   
    121. D(H  24,C  10,C   9,C   8)    179.7393         0.026557   
    122. D(C  11,C  10,C   9,H  23)    177.8296         0.026557   
    123. D(C  11,C  10,C   9,C   8)     -0.5711         0.026557   
    124. D(H  25,C  11,C  10,H  24)     -0.4282         0.028520   
    125. D(H  25,C  11,C  10,C   9)    179.8839         0.028520   
    126. D(C  12,C  11,C  10,H  24)    178.7830         0.028520   
    127. D(C  12,C  11,C  10,C   9)     -0.9049         0.028520   
    128. D(H  26,C  12,C  11,H  25)      0.5134         0.027034   
    129. D(H  26,C  12,C  11,C  10)   -178.6964         0.027034   
    130. D(C  13,C  12,C  11,H  25)   -179.7673         0.027034   
    131. D(C  13,C  12,C  11,C  10)      1.0229         0.027034   
    132. D(C  14,C  13,C  12,H  26)      1.8298         0.029668   
    133. D(C  14,C  13,C  12,C  11)   -177.8937         0.029668   
    134. D(C   8,C  13,C  12,H  26)   -179.9759         0.029668   
    135. D(C   8,C  13,C  12,C  11)      0.3006         0.029668   
    136. D(C  14,C  13,C   8,C   9)    176.7471         0.022982   
    137. D(C  14,C  13,C   8,C   7)     -1.6426         0.022982   
    138. D(C  12,C  13,C   8,C   9)     -1.7518         0.022982   
    139. D(C  12,C  13,C   8,C   7)    179.8585         0.022982   
    140. D(C  13,C  14,C   6,C   5)   -179.4241         0.013382   
    141. D(O  15,C  14,C  13,C  12)     -1.2200         0.013543   
    142. D(O  15,C  14,C  13,C   8)   -179.5979         0.013543   
    143. D(C   6,C  14,C  13,C  12)    178.6840         0.013543   
    144. D(C   6,C  14,C  13,C   8)      0.3061         0.013543   
    145. D(O  15,C  14,C   6,C   7)   -178.8836         0.013382   
    146. D(O  15,C  14,C   6,C   5)      0.4799         0.013382   
    147. D(C  13,C  14,C   6,C   7)      1.2124         0.013382   
    -----------------------------------------------------------------

Number of atoms                         .... 27
Number of degrees of freedom            .... 147

         *************************************************************
         *                GEOMETRY OPTIMIZATION CYCLE   1            *
         *************************************************************
---------------------------------
CARTESIAN COORDINATES (ANGSTROEM)
---------------------------------
  C     -2.897100   -2.237900   -0.156200
  N     -1.634900   -1.548900   -0.261900
  C     -1.498100   -0.205800   -0.024000
  C     -2.619700    0.632400    0.127100
  C     -2.499600    1.985600    0.361200
  C     -1.248200    2.581900    0.472400
  C     -0.141000    1.777300    0.310300
  C     -0.238300    0.400000    0.041400
  C      1.119800   -0.131300   -0.108700
  C      1.615800   -1.377500   -0.449400
  C      2.994000   -1.565100   -0.511700
  C      3.878400   -0.533600   -0.252800
  C      3.396600    0.732000    0.060700
  C      2.032700    0.918700    0.125800
  C      1.287000    2.170600    0.395900
  O      1.740900    3.267900    0.631500
  H     -3.342600   -2.158400    0.843200
  H     -3.601500   -1.837300   -0.886600
  H     -2.736900   -3.290000   -0.382500
  H     -0.828700   -2.100800   -0.019700
  H     -3.607100    0.203200    0.066200
  H     -3.392600    2.582900    0.471600
  H     -1.135200    3.634700    0.675900
  H      0.971900   -2.208500   -0.695800
  H      3.377300   -2.541000   -0.774000
  H      4.942100   -0.709900   -0.307100
  H      4.065000    1.559100    0.246600

----------------------------
CARTESIAN COORDINATES (A.U.)
----------------------------
  NO LB      ZA    FRAG     MASS         X           Y           Z
   0 C     6.0000    0    12.011   -5.474726   -4.229018   -0.295175
   1 N     7.0000    0    14.007   -3.089513   -2.926997   -0.494919
   2 C     6.0000    0    12.011   -2.830999   -0.388906   -0.045353
   3 C     6.0000    0    12.011   -4.950516    1.195063    0.240184
   4 C     6.0000    0    12.011   -4.723559    3.752240    0.682569
   5 C     6.0000    0    12.011   -2.358756    4.879084    0.892707
   6 C     6.0000    0    12.011   -0.266451    3.358610    0.586382
   7 C     6.0000    0    12.011   -0.450322    0.755890    0.078235
   8 C     6.0000    0    12.011    2.116115   -0.248121   -0.205413
   9 C     6.0000    0    12.011    3.053419   -2.603098   -0.849243
  10 C     6.0000    0    12.011    5.657840   -2.957610   -0.966973
  11 C     6.0000    0    12.011    7.329114   -1.008358   -0.477723
  12 C     6.0000    0    12.011    6.418644    1.383280    0.114706
  13 C     6.0000    0    12.011    3.841246    1.736091    0.237728
  14 C     6.0000    0    12.011    2.432078    4.101840    0.748143
  15 O     8.0000    0    15.999    3.289824    6.175436    1.193362
  16 H     1.0000    0     1.008   -6.316599   -4.078785    1.593417
  17 H     1.0000    0     1.008   -6.805849   -3.471994   -1.675431
  18 H     1.0000    0     1.008   -5.171991   -6.217199   -0.722820
  19 H     1.0000    0     1.008   -1.566016   -3.969937   -0.037228
  20 H     1.0000    0     1.008   -6.816431    0.383992    0.125100
  21 H     1.0000    0     1.008   -6.411085    4.880974    0.891195
  22 H     1.0000    0     1.008   -2.145217    6.868588    1.277266
  23 H     1.0000    0     1.008    1.836625   -4.173460   -1.314871
  24 H     1.0000    0     1.008    6.382172   -4.801794   -1.462648
  25 H     1.0000    0     1.008    9.339216   -1.341517   -0.580335
  26 H     1.0000    0     1.008    7.681737    2.946272    0.466006

--------------------------------
INTERNAL COORDINATES (ANGSTROEM)
--------------------------------
 C      0   0   0     0.000000000000     0.00000000     0.00000000
 N      1   0   0     1.441888459625     0.00000000     0.00000000
 C      2   1   0     1.370849466572   122.87492823     0.00000000
 C      3   2   1     1.408331285600   121.48458804   349.45196063
 C      4   3   2     1.378541642461   122.21295746   180.27220597
 C      5   4   3     1.390662104898   120.85597272   359.33097321
 C      6   5   4     1.378241419346   117.59179811     1.42450769
 C      3   2   1     1.399416607019   121.47175440   171.30945691
 C      8   3   2     1.466030460120   132.24385233     0.34265128
 C      9   8   3     1.383873885150   133.12460534     5.01660286
 C     10   9   8     1.392303950292   119.15249193   179.74984732
 C     11  10   9     1.383179243627   121.60510172   359.42886224
 C     12  11  10     1.390020449490   119.97260994   359.09512117
 C     13  12  11     1.378157505512   118.49135740     1.02294991
 C     14  13  12     1.481983842692   128.39057907   182.10632588
 O     15  14  13     1.210619618212   127.76945889   358.78004010
 H      1   2   3     1.097082886568   112.80673657   301.01983528
 H      1   2   3     1.090937156760   109.91769107    62.54392940
 H      1   2   3     1.088021203837   108.53787503   180.59653560
 H      2   1   3     1.006584765432   114.92793564   147.77395734
 H      4   3   2     1.078369236394   119.09621417     0.78226799
 H      5   4   3     1.080002060183   119.22304513   180.13468340
 H      6   5   4     1.078224971887   121.87556210   181.30969208
 H     10   9   8     1.079759774209   122.37758500     1.41483633
 H     11  10   9     1.080787208474   118.91950572   179.73927554
 H     12  11  10     1.079577635004   119.92027604   179.88388490
 H     13  12  11     1.079542393795   121.45380869   181.30356527

---------------------------
INTERNAL COORDINATES (A.U.)
---------------------------
 C      0   0   0     0.000000000000     0.00000000     0.00000000
 N      1   0   0     2.724774304353     0.00000000     0.00000000
 C      2   1   0     2.590530062653   122.87492823     0.00000000
 C      3   2   1     2.661360435617   121.48458804   349.45196063
 C      4   3   2     2.605066168458   122.21295746   180.27220597
 C      5   4   3     2.627970523080   120.85597272   359.33097321
 C      6   5   4     2.604498828990   117.59179811     1.42450769
 C      3   2   1     2.644514134527   121.47175440   171.30945691
 C      8   3   2     2.770396073614   132.24385233     0.34265128
 C      9   8   3     2.615142646819   133.12460534     5.01660286
 C     10   9   8     2.631073161229   119.15249193   179.74984732
 C     11  10   9     2.613829964579   121.60510172   359.42886224
 C     12  11  10     2.626757970086   119.97260994   359.09512117
 C     13  12  11     2.604340254826   118.49135740     1.02294991
 C     14  13  12     2.800543597584   128.39057907   182.10632588
 O     15  14  13     2.287739530773   127.76945889   358.78004010
 H      1   2   3     2.073186201825   112.80673657   301.01983528
 H      1   2   3     2.061572455595   109.91769107    62.54392940
 H      1   2   3     2.056062103152   108.53787503   180.59653560
 H      2   1   3     1.902169537244   114.92793564   147.77395734
 H      4   3   2     2.037822528030   119.09621417     0.78226799
 H      5   4   3     2.040908117817   119.22304513   180.13468340
 H      6   5   4     2.037549907621   121.87556210   181.30969208
 H     10   9   8     2.040450263680   122.37758500     1.41483633
 H     11  10   9     2.042391833060   118.91950572   179.73927554
 H     12  11  10     2.040106070463   119.92027604   179.88388490
 H     13  12  11     2.040039474230   121.45380869   181.30356527

---------------------
BASIS SET INFORMATION
---------------------
There are 4 groups of distinct atoms

 Group   1 Type C   : 19s6p3d2f contracted to 5s4p3d2f pattern {88111/3111/111/11}
 Group   2 Type N   : 19s6p3d2f contracted to 5s4p3d2f pattern {88111/3111/111/11}
 Group   3 Type O   : 19s6p3d2f contracted to 5s4p3d2f pattern {88111/3111/111/11}
 Group   4 Type H   : 5s2p1d contracted to 3s2p1d pattern {311/11/1}

Atom   0C    basis set group =>   1
Atom   1N    basis set group =>   2
Atom   2C    basis set group =>   1
Atom   3C    basis set group =>   1
Atom   4C    basis set group =>   1
Atom   5C    basis set group =>   1
Atom   6C    basis set group =>   1
Atom   7C    basis set group =>   1
Atom   8C    basis set group =>   1
Atom   9C    basis set group =>   1
Atom  10C    basis set group =>   1
Atom  11C    basis set group =>   1
Atom  12C    basis set group =>   1
Atom  13C    basis set group =>   1
Atom  14C    basis set group =>   1
Atom  15O    basis set group =>   3
Atom  16H    basis set group =>   4
Atom  17H    basis set group =>   4
Atom  18H    basis set group =>   4
Atom  19H    basis set group =>   4
Atom  20H    basis set group =>   4
Atom  21H    basis set group =>   4
Atom  22H    basis set group =>   4
Atom  23H    basis set group =>   4
Atom  24H    basis set group =>   4
Atom  25H    basis set group =>   4
Atom  26H    basis set group =>   4
---------------------------------
AUXILIARY/J BASIS SET INFORMATION
---------------------------------
There are 4 groups of distinct atoms

 Group   1 Type C   : 10s7p5d2f1g contracted to 10s7p5d2f1g pattern {1111111111/1111111/11111/11/1}
 Group   2 Type N   : 10s7p5d2f1g contracted to 10s7p5d2f1g pattern {1111111111/1111111/11111/11/1}
 Group   3 Type O   : 10s7p5d2f1g contracted to 10s7p5d2f1g pattern {1111111111/1111111/11111/11/1}
 Group   4 Type H   : 4s3p2d1f contracted to 4s3p2d1f pattern {1111/111/11/1}

Atom   0C    basis set group =>   1
Atom   1N    basis set group =>   2
Atom   2C    basis set group =>   1
Atom   3C    basis set group =>   1
Atom   4C    basis set group =>   1
Atom   5C    basis set group =>   1
Atom   6C    basis set group =>   1
Atom   7C    basis set group =>   1
Atom   8C    basis set group =>   1
Atom   9C    basis set group =>   1
Atom  10C    basis set group =>   1
Atom  11C    basis set group =>   1
Atom  12C    basis set group =>   1
Atom  13C    basis set group =>   1
Atom  14C    basis set group =>   1
Atom  15O    basis set group =>   3
Atom  16H    basis set group =>   4
Atom  17H    basis set group =>   4
Atom  18H    basis set group =>   4
Atom  19H    basis set group =>   4
Atom  20H    basis set group =>   4
Atom  21H    basis set group =>   4
Atom  22H    basis set group =>   4
Atom  23H    basis set group =>   4
Atom  24H    basis set group =>   4
Atom  25H    basis set group =>   4
Atom  26H    basis set group =>   4
---------------------------------
AUXILIARY/C BASIS SET INFORMATION
---------------------------------
There are 4 groups of distinct atoms

 Group   1 Type C   : 9s7p6d4f2g contracted to 9s7p6d4f2g pattern {111111111/1111111/111111/1111/11}
 Group   2 Type N   : 9s7p6d4f2g contracted to 9s7p6d4f2g pattern {111111111/1111111/111111/1111/11}
 Group   3 Type O   : 9s7p6d4f2g contracted to 9s7p6d4f2g pattern {111111111/1111111/111111/1111/11}
 Group   4 Type H   : 4s3p2d1f contracted to 4s3p2d1f pattern {1111/111/11/1}

Atom   0C    basis set group =>   1
Atom   1N    basis set group =>   2
Atom   2C    basis set group =>   1
Atom   3C    basis set group =>   1
Atom   4C    basis set group =>   1
Atom   5C    basis set group =>   1
Atom   6C    basis set group =>   1
Atom   7C    basis set group =>   1
Atom   8C    basis set group =>   1
Atom   9C    basis set group =>   1
Atom  10C    basis set group =>   1
Atom  11C    basis set group =>   1
Atom  12C    basis set group =>   1
Atom  13C    basis set group =>   1
Atom  14C    basis set group =>   1
Atom  15O    basis set group =>   3
Atom  16H    basis set group =>   4
Atom  17H    basis set group =>   4
Atom  18H    basis set group =>   4
Atom  19H    basis set group =>   4
Atom  20H    basis set group =>   4
Atom  21H    basis set group =>   4
Atom  22H    basis set group =>   4
Atom  23H    basis set group =>   4
Atom  24H    basis set group =>   4
Atom  25H    basis set group =>   4
Atom  26H    basis set group =>   4


           ************************************************************
           *        Program running with 4 parallel MPI-processes     *
           *              working on a common directory               *
           ************************************************************
------------------------------------------------------------------------------
                           ORCA GTO INTEGRAL CALCULATION
                           -- RI-GTO INTEGRALS CHOSEN --
------------------------------------------------------------------------------
------------------------------------------------------------------------------
                   ___                                                        
                  /   \      - P O W E R E D   B Y -                         
                 /     \                                                     
                 |  |  |   _    _      __       _____    __    __             
                 |  |  |  | |  | |    /  \     |  _  \  |  |  /  |          
                  \  \/   | |  | |   /    \    | | | |  |  | /  /          
                 / \  \   | |__| |  /  /\  \   | |_| |  |  |/  /          
                |  |  |   |  __  | /  /__\  \  |    /   |      \           
                |  |  |   | |  | | |   __   |  |    \   |  |\   \          
                \     /   | |  | | |  |  |  |  | |\  \  |  | \   \       
                 \___/    |_|  |_| |__|  |__|  |_| \__\ |__|  \__/        
                                                                              
                      - O R C A' S   B I G   F R I E N D -                    
                                      &                                       
                       - I N T E G R A L  F E E D E R -                       
                                                                              
 v1 FN, 2020, v2 2021                                                         
------------------------------------------------------------------------------


Reading SHARK input file optpbed3-b2plyp-test-390.SHARKINP.tmp ... ok
----------------------
SHARK INTEGRAL PACKAGE
----------------------

Number of atoms                             ...     27
Number of basis functions                   ...    986
Number of shells                            ...    386
Maximum angular momentum                    ...      3
Integral batch strategy                     ... SHARK/LIBINT Hybrid
RI-J (if used) integral strategy            ... SPLIT-RIJ (Revised 2003 algorithm where possible)
Printlevel                                  ...      1
Contraction scheme used                     ... PARTIAL GENERAL contraction
Coulomb Range Separation                    ... NOT USED
Exchange Range Separation                   ... NOT USED
Finite Nucleus Model                        ... NOT USED
Auxiliary Coulomb fitting basis             ... AVAILABLE
   # of basis functions in Aux-J            ...   1594
   # of shells in Aux-J                     ...    510
   Maximum angular momentum in Aux-J        ...      4
Auxiliary J/K fitting basis                 ... NOT available
Auxiliary Correlation fitting basis         ... AVAILABLE
   # of basis functions in Aux-C            ...   2026
   # of shells in Aux-C                     ...    558
   Maximum angular momentum in Aux-C        ...      4
Auxiliary 'external' fitting basis          ... NOT available
Integral threshold                          ...     2.500000e-11
Primitive cut-off                           ...     2.500000e-12
Primitive pair pre-selection threshold      ...     2.500000e-12

Calculating pre-screening integrals         ... done (  0.2 sec) Dimension = 386
Calculating pre-screening integrals (ORCA)  ... done (  0.4 sec) Dimension = 290
Organizing shell pair data                  ... done (  1.0 sec)
Shell pair information
Total number of shell pairs                 ...     74691
Shell pairs after pre-screening             ...     54212
Total number of primitive shell pairs       ...     97101
Primitive shell pairs kept                  ...     64308
          la=0 lb=0:  12477 shell pairs
          la=1 lb=0:  13625 shell pairs
          la=1 lb=1:   3241 shell pairs
          la=2 lb=0:   9233 shell pairs
          la=2 lb=1:   4350 shell pairs
          la=2 lb=2:   1512 shell pairs
          la=3 lb=0:   5182 shell pairs
          la=3 lb=1:   2427 shell pairs
          la=3 lb=2:   1666 shell pairs
          la=3 lb=3:    499 shell pairs

Calculating one electron integrals          ... done (  0.1 sec)
Calculating RI/J V-Matrix + Cholesky decomp.... done (  0.2 sec)
Calculating RI/C V-Matrix + Cholesky decomp.... done (  0.6 sec)
Calculating Nuclear repulsion               ... done (  0.0 sec) ENN=   1005.386321495284 Eh

SHARK setup successfully completed in   3.5 seconds

Maximum memory used throughout the entire GTOINT-calculation: 81.5 MB


           ************************************************************
           *        Program running with 4 parallel MPI-processes     *
           *              working on a common directory               *
           ************************************************************
-------------------------------------------------------------------------------
                                 ORCA SCF
-------------------------------------------------------------------------------

------------
SCF SETTINGS
------------
Hamiltonian:
 Density Functional     Method          .... DFT(GTOs)
 Exchange Functional    Exchange        .... PBE
   PBE kappa parameter   XKappa         ....  0.804000
   PBE mue parameter    XMuePBE         ....  0.219520
 Correlation Functional Correlation     .... PBE
   PBE beta parameter  CBetaPBE         ....  0.066725
 LDA part of GGA corr.  LDAOpt          .... PW91-LDA
 Gradients option       PostSCFGGA      .... off
 Hybrid DFT is turned on
   Fraction HF Exchange ScalHFX         ....  0.250000
   Scaling of DF-GGA-X  ScalDFX         ....  0.750000
   Scaling of DF-GGA-C  ScalDFC         ....  1.000000
   Scaling of DF-LDA-C  ScalLDAC        ....  1.000000
   Perturbative correction              ....  0.000000
   Density functional embedding theory  .... OFF
   NL short-range parameter             ....  6.900000
 RI-approximation to the Coulomb term is turned on
   Number of AuxJ basis functions       .... 1594
   RIJ-COSX (HFX calculated with COS-X)).... on


General Settings:
 Integral files         IntName         .... optpbed3-b2plyp-test-390
 Hartree-Fock type      HFTyp           .... RHF
 Total Charge           Charge          ....    0
 Multiplicity           Mult            ....    1
 Number of Electrons    NEL             ....  110
 Basis Dimension        Dim             ....  890
 Nuclear Repulsion      ENuc            ....   1005.3863214953 Eh

Convergence Acceleration:
 DIIS                   CNVDIIS         .... on
   Start iteration      DIISMaxIt       ....    12
   Startup error        DIISStart       ....  0.200000
   # of expansion vecs  DIISMaxEq       ....     5
   Bias factor          DIISBfac        ....   1.050
   Max. coefficient     DIISMaxC        ....  10.000
 Trust-Rad. Augm. Hess. CNVTRAH         .... auto
   Auto Start mean grad. ratio tolernc. ....  1.125000
   Auto Start start iteration           ....    20
   Auto Start num. interpolation iter.  ....    10
   Max. Number of Micro iterations      ....    16
   Max. Number of Macro iterations      .... Maxiter - #DIIS iter
   Number of Davidson start vectors     ....     2
   Converg. threshold I  (grad. norm)   ....   1.000e-05
   Converg. threshold II (energy diff.) ....   1.000e-08
   Grad. Scal. Fac. for Micro threshold ....   0.100
   Minimum threshold for Micro iter.    ....   0.010
   NR start threshold (gradient norm)   ....   0.001
   Initial trust radius                 ....   0.400
   Minimum AH scaling param. (alpha)    ....   1.000
   Maximum AH scaling param. (alpha)    .... 1000.000
   Orbital update algorithm             .... Taylor
   White noise on init. David. guess    .... on
   Maximum white noise                  ....   0.010
   Quad. conv. algorithm                .... NR
 SOSCF                  CNVSOSCF        .... on
   Start iteration      SOSCFMaxIt      ....   150
   Startup grad/error   SOSCFStart      ....  0.003300
 Level Shifting         CNVShift        .... on
   Level shift para.    LevelShift      ....    0.2500
   Turn off err/grad.   ShiftErr        ....    0.0010
 Zerner damping         CNVZerner       .... off
 Static damping         CNVDamp         .... on
   Fraction old density DampFac         ....    0.7000
   Max. Damping (<1)    DampMax         ....    0.9800
   Min. Damping (>=0)   DampMin         ....    0.0000
   Turn off err/grad.   DampErr         ....    0.1000
 Fernandez-Rico         CNVRico         .... off

SCF Procedure:
 Maximum # iterations   MaxIter         ....   125
 SCF integral mode      SCFMode         .... Direct
   Integral package                     .... SHARK and LIBINT hybrid scheme
 Reset frequency        DirectResetFreq ....    20
 Integral Threshold     Thresh          ....  2.500e-11 Eh
 Primitive CutOff       TCut            ....  2.500e-12 Eh

Convergence Tolerance:
 Convergence Check Mode ConvCheckMode   .... Total+1el-Energy
 Convergence forced     ConvForced      .... 0
 Energy Change          TolE            ....  1.000e-08 Eh
 1-El. energy change                    ....  1.000e-05 Eh
 Orbital Gradient       TolG            ....  1.000e-05
 Orbital Rotation angle TolX            ....  1.000e-05
 DIIS Error             TolErr          ....  5.000e-07


Diagonalization of the overlap matrix:
Smallest eigenvalue                        ... 5.694e-07
Time for diagonalization                   ...    0.259 sec
Threshold for overlap eigenvalues          ... 1.000e-08
Number of eigenvalues below threshold      ... 0
Time for construction of square roots      ...    0.141 sec
Total time needed                          ...    0.406 sec

Time for model grid setup =    0.531 sec

------------------------------
INITIAL GUESS: MODEL POTENTIAL
------------------------------
Loading Hartree-Fock densities                     ... done
Calculating cut-offs                               ... done
Initializing the effective Hamiltonian             ... done
Setting up the integral package (SHARK)            ... done
Starting the Coulomb interaction                   ... done (   1.7 sec)
Reading the grid                                   ... done
Mapping shells                                     ... done
Starting the XC term evaluation                    ... done (   1.8 sec)
  promolecular density results
     # of electrons  =    109.992725397
     EX              =    -89.623689178
     EC              =     -3.696352172
     EX+EC           =    -93.320041350
Transforming the Hamiltonian                       ... done (   0.1 sec)
Diagonalizing the Hamiltonian                      ... done (   0.2 sec)
Back transforming the eigenvectors                 ... done (   0.0 sec)
Now organizing SCF variables                       ... done
                      ------------------
                      INITIAL GUESS DONE (   4.5 sec)
                      ------------------
-------------------
DFT GRID GENERATION
-------------------

General Integration Accuracy     IntAcc      ... 4.388
Radial Grid Type                 RadialGrid  ... OptM3 with GC (2021)
Angular Grid (max. ang.)         AngularGrid ... 4 (Lebedev-302)
Angular grid pruning method      GridPruning ... 4 (adaptive)
Weight generation scheme         WeightScheme... Becke
Basis function cutoff            BFCut       ... 1.0000e-11
Integration weight cutoff        WCut        ... 1.0000e-14
Angular grids for H and He will be reduced by one unit
Partially contracted basis set               ... off
Rotationally invariant grid construction     ... off

Total number of grid points                  ...   134590
Total number of batches                      ...     2117
Average number of points per batch           ...       63
Average number of grid points per atom       ...     4985
Time for grid setup =    1.850 sec

--------------------
COSX GRID GENERATION
--------------------

GRIDX 1
-------
General Integration Accuracy     IntAcc      ... 3.816
Radial Grid Type                 RadialGrid  ... OptM3 with GC (2021)
Angular Grid (max. ang.)         AngularGrid ... 1 (Lebedev-50)
Angular grid pruning method      GridPruning ... 4 (adaptive)
Weight generation scheme         WeightScheme... Becke
Basis function cutoff            BFCut       ... 1.0000e-11
Integration weight cutoff        WCut        ... 1.0000e-14
Angular grids for H and He will be reduced by one unit
Partially contracted basis set               ... on
Rotationally invariant grid construction     ... off

Total number of grid points                  ...    17160
Total number of batches                      ...      284
Average number of points per batch           ...       60
Average number of grid points per atom       ...      636
UseSFitting                                  ... on

GRIDX 2
-------
General Integration Accuracy     IntAcc      ... 4.020
Radial Grid Type                 RadialGrid  ... OptM3 with GC (2021)
Angular Grid (max. ang.)         AngularGrid ... 2 (Lebedev-110)
Angular grid pruning method      GridPruning ... 4 (adaptive)
Weight generation scheme         WeightScheme... Becke
Basis function cutoff            BFCut       ... 1.0000e-11
Integration weight cutoff        WCut        ... 1.0000e-14
Angular grids for H and He will be reduced by one unit
Partially contracted basis set               ... on
Rotationally invariant grid construction     ... off

Total number of grid points                  ...    40791
Total number of batches                      ...      652
Average number of points per batch           ...       62
Average number of grid points per atom       ...     1511
UseSFitting                                  ... on

GRIDX 3
-------
General Integration Accuracy     IntAcc      ... 4.338
Radial Grid Type                 RadialGrid  ... OptM3 with GC (2021)
Angular Grid (max. ang.)         AngularGrid ... 3 (Lebedev-194)
Angular grid pruning method      GridPruning ... 4 (adaptive)
Weight generation scheme         WeightScheme... Becke
Basis function cutoff            BFCut       ... 1.0000e-11
Integration weight cutoff        WCut        ... 1.0000e-14
Angular grids for H and He will be reduced by one unit
Partially contracted basis set               ... on
Rotationally invariant grid construction     ... off

Total number of grid points                  ...    88029
Total number of batches                      ...     1391
Average number of points per batch           ...       63
Average number of grid points per atom       ...     3260
UseSFitting                                  ... on

Time for X-Grid setup             =    4.537 sec


--------------------
CPCM SOLVATION MODEL
--------------------
CPCM parameters:
  Epsilon                                         ...      35.6880
  Refrac                                          ...       1.3442
  Rsolv                                           ...       1.3000
  Surface type                                    ... GAUSSIAN VDW
  Epsilon function type                           ...         CPCM
Solvent:                                     ... ACETONITRILE
SMD-CDS solvent descriptors:
  Soln                                       ...    1.3442
  Soln25                                     ...    1.3416
  Sola                                       ...    0.0700
  Solb                                       ...    0.3200
  Solg                                       ...   41.2500
  Solc                                       ...    0.0000
  Solh                                       ...    0.0000
Radii:
 Radius for C  used is    3.4960 Bohr (=   1.8500 Ang.)
 Radius for N  used is    3.5716 Bohr (=   1.8900 Ang.)
 Radius for O  used is    4.0969 Bohr (=   2.1680 Ang.)
 Radius for H  used is    2.2677 Bohr (=   1.2000 Ang.)
Calculating surface                               ...        done! (  0.0s)
GEPOL surface points                              ...         1537
GEPOL Volume                                      ...    1540.5054
GEPOL Surface-area                                ...     848.2786
Calculating surface distance matrix               ...        done! (  0.0s)
Performing Cholesky decomposition & store         ...        done! (  3.8s)
Overall time for CPCM initialization              ...                 3.9s
 re-compute Schwartz prescreening matrix in partically contracted basis (1) ...done (   0.225 sec)
--------------
SCF ITERATIONS
--------------
ITER       Energy         Delta-E        Max-DP      RMS-DP      [F,P]     Damp
               ***  Starting incremental Fock matrix formation  ***
  0   -669.2326394125   0.000000000000 0.40649376  0.00159831  0.2607221 0.7000
  1   -669.3769911958  -0.144351783249 0.30490935  0.00120294  0.1113329 0.7000
                               ***Turning on DIIS***
  2   -669.4415720457  -0.064580849899 0.62455755  0.00261015  0.0402096 0.0000
  3   -669.5426189652  -0.101046919490 0.10795385  0.00057037  0.0523032 0.0000
  4   -669.5616531879  -0.019034222675 0.03988187  0.00027801  0.0147950 0.0000
  5   -669.5627155279  -0.001062340007 0.01012736  0.00009377  0.0094068 0.0000
                      *** Initiating the SOSCF procedure ***
                           *** Shutting down DIIS ***
                      *** Re-Reading the Fockian *** 
                      *** Removing any level shift *** 
ITER      Energy       Delta-E        Grad      Rot      Max-DP    RMS-DP
  6   -669.56283431  -0.0001187850  0.000318  0.000318  0.007942  0.000046
               *** Restarting incremental Fock matrix formation ***
  7   -669.56284000  -0.0000056840  0.000139  0.000581  0.034479  0.000308
  8   -669.56284066  -0.0000006609  0.000163  0.000643  0.006419  0.000091
  9   -669.56284248  -0.0000018224  0.000037  0.000105  0.010089  0.000106
 10   -669.56284252  -0.0000000416  0.000040  0.000067  0.010200  0.000044
 11   -669.56284258  -0.0000000544  0.000016  0.000071  0.009541  0.000059
 12   -669.56284262  -0.0000000413  0.000005  0.000014  0.011488  0.000041
 13   -669.56284267  -0.0000000538  0.000003  0.000008  0.009052  0.000071
                  ***Gradient check signals convergence***
              ***Rediagonalizing the Fockian in SOSCF/NRSCF***

               *****************************************************
               *                     SUCCESS                       *
               *           SCF CONVERGED AFTER  14 CYCLES          *
               *****************************************************

Old exchange energy                            =    -22.861481395 Eh
New exchange energy                            =    -22.861514161 Eh
Exchange energy change after final integration =     -0.000032766 Eh
Total energy after final integration           =   -669.562875417 Eh
Final COS-X integration done in                =    95.100 sec

SMD CDS free energy correction energy :                -3.91252     Kcal/mol
Total Energy after SMD CDS correction =              -669.569110420 Eh

----------------
TOTAL SCF ENERGY
----------------

Total Energy       :         -669.56911042 Eh          -18219.90178 eV

Components:
Nuclear Repulsion  :         1005.38632150 Eh           27357.95266 eV
Electronic Energy  :        -1674.95543192 Eh          -45577.85444 eV
One Electron Energy:        -2902.53423102 Eh          -78981.97179 eV
Two Electron Energy:         1227.57879910 Eh           33404.11736 eV
Max COSX asymmetry :            0.00002594 Eh               0.00071 eV
CPCM Dielectric    :           -0.02109059 Eh              -0.57390 eV
SMD CDS (Gcds)     :           -0.00623500 Eh              -0.16966 eV

Virial components:
Potential Energy   :        -1335.40394672 Eh          -36338.18879 eV
Kinetic Energy     :          665.83483630 Eh           18118.28701 eV
Virial Ratio       :            2.00560841


DFT components:
N(Alpha)           :       55.000090825252 electrons
N(Beta)            :       55.000090825252 electrons
N(Total)           :      110.000181650504 electrons
E(X)               :      -68.407574770744 Eh       
E(C)               :       -3.698627560627 Eh       
E(XC)              :      -72.106202331370 Eh       
DFET-embed. en.    :        0.000000000000 Eh       
CPCM Solvation Model Properties:
Surface-charge          :           -0.04875259
Charge-correction       :            0.00035170 Eh               0.00957 eV
Free-energy (cav+disp)  :           -0.00623500 Eh              -0.16966 eV

---------------
SCF CONVERGENCE
---------------

  Last Energy change         ...    2.0514e-08  Tolerance :   1.0000e-08
  Last MAX-Density change    ...    4.4409e-15  Tolerance :   1.0000e-07
  Last RMS-Density change    ...    2.0804e-17  Tolerance :   5.0000e-09
  Last Orbital Gradient      ...    1.8188e-06  Tolerance :   1.0000e-05
  Last Orbital Rotation      ...    2.8224e-06  Tolerance :   1.0000e-05

             **** THE GBW FILE WAS UPDATED (optpbed3-b2plyp-test-390.gbw) ****
             **** DENSITY optpbed3-b2plyp-test-390.scfp WAS UPDATED ****
             **** ENERGY FILE WAS UPDATED (optpbed3-b2plyp-test-390.en.tmp) ****
             **** THE GBW FILE WAS UPDATED (optpbed3-b2plyp-test-390.gbw) ****
             **** DENSITY optpbed3-b2plyp-test-390.scfp WAS UPDATED ****
----------------
ORBITAL ENERGIES
----------------

  NO   OCC          E(Eh)            E(eV) 
   0   2.0000     -19.207600      -522.6654 
   1   2.0000     -14.399865      -391.8402 
   2   2.0000     -10.316320      -280.7213 
   3   2.0000     -10.278037      -279.6796 
   4   2.0000     -10.251935      -278.9693 
   5   2.0000     -10.241672      -278.6901 
   6   2.0000     -10.241601      -278.6881 
   7   2.0000     -10.239188      -278.6225 
   8   2.0000     -10.237204      -278.5685 
   9   2.0000     -10.235784      -278.5298 
  10   2.0000     -10.234582      -278.4971 
  11   2.0000     -10.234549      -278.4962 
  12   2.0000     -10.231762      -278.4204 
  13   2.0000     -10.230913      -278.3973 
  14   2.0000     -10.229381      -278.3556 
  15   2.0000     -10.227627      -278.3079 
  16   2.0000      -1.080788       -29.4097 
  17   2.0000      -0.972073       -26.4515 
  18   2.0000      -0.918907       -25.0047 
  19   2.0000      -0.879799       -23.9405 
  20   2.0000      -0.830204       -22.5910 
  21   2.0000      -0.791398       -21.5350 
  22   2.0000      -0.774420       -21.0730 
  23   2.0000      -0.751840       -20.4586 
  24   2.0000      -0.707461       -19.2510 
  25   2.0000      -0.685039       -18.6408 
  26   2.0000      -0.654540       -17.8109 
  27   2.0000      -0.616131       -16.7658 
  28   2.0000      -0.609029       -16.5725 
  29   2.0000      -0.574051       -15.6207 
  30   2.0000      -0.540123       -14.6975 
  31   2.0000      -0.528730       -14.3875 
  32   2.0000      -0.516628       -14.0582 
  33   2.0000      -0.488417       -13.2905 
  34   2.0000      -0.479758       -13.0549 
  35   2.0000      -0.468422       -12.7464 
  36   2.0000      -0.462576       -12.5873 
  37   2.0000      -0.455701       -12.4003 
  38   2.0000      -0.449844       -12.2409 
  39   2.0000      -0.447297       -12.1716 
  40   2.0000      -0.437570       -11.9069 
  41   2.0000      -0.428478       -11.6595 
  42   2.0000      -0.399217       -10.8632 
  43   2.0000      -0.392915       -10.6918 
  44   2.0000      -0.386876       -10.5274 
  45   2.0000      -0.384544       -10.4640 
  46   2.0000      -0.377120       -10.2619 
  47   2.0000      -0.368491       -10.0272 
  48   2.0000      -0.351658        -9.5691 
  49   2.0000      -0.320083        -8.7099 
  50   2.0000      -0.309156        -8.4126 
  51   2.0000      -0.279464        -7.6046 
  52   2.0000      -0.273998        -7.4559 
  53   2.0000      -0.249708        -6.7949 
  54   2.0000      -0.213666        -5.8141 
  55   0.0000      -0.089082        -2.4240 
  56   0.0000      -0.032311        -0.8792 
  57   0.0000       0.001300         0.0354 
  58   0.0000       0.007422         0.2020 
  59   0.0000       0.014872         0.4047 
  60   0.0000       0.016208         0.4410 
  61   0.0000       0.025215         0.6861 
  62   0.0000       0.029662         0.8072 
  63   0.0000       0.032364         0.8807 
  64   0.0000       0.034586         0.9411 
  65   0.0000       0.037440         1.0188 
  66   0.0000       0.049800         1.3551 
  67   0.0000       0.051900         1.4123 
  68   0.0000       0.054135         1.4731 
  69   0.0000       0.056112         1.5269 
  70   0.0000       0.058715         1.5977 
  71   0.0000       0.063450         1.7266 
  72   0.0000       0.071477         1.9450 
  73   0.0000       0.076738         2.0881 
  74   0.0000       0.079448         2.1619 
  75   0.0000       0.081855         2.2274 
  76   0.0000       0.083404         2.2695 
  77   0.0000       0.091889         2.5004 
  78   0.0000       0.096558         2.6275 
  79   0.0000       0.101366         2.7583 
  80   0.0000       0.106616         2.9012 
  81   0.0000       0.110977         3.0198 
  82   0.0000       0.115744         3.1496 
  83   0.0000       0.116652         3.1743 
  84   0.0000       0.120987         3.2922 
  85   0.0000       0.123390         3.3576 
  86   0.0000       0.125998         3.4286 
  87   0.0000       0.128361         3.4929 
  88   0.0000       0.133235         3.6255 
  89   0.0000       0.138805         3.7771 
  90   0.0000       0.142817         3.8862 
  91   0.0000       0.143802         3.9131 
  92   0.0000       0.147066         4.0019 
  93   0.0000       0.147223         4.0062 
  94   0.0000       0.150761         4.1024 
  95   0.0000       0.154450         4.2028 
  96   0.0000       0.156592         4.2611 
  97   0.0000       0.158794         4.3210 
  98   0.0000       0.161905         4.4057 
  99   0.0000       0.165905         4.5145 
 100   0.0000       0.168561         4.5868 
 101   0.0000       0.170692         4.6448 
 102   0.0000       0.173292         4.7155 
 103   0.0000       0.174283         4.7425 
 104   0.0000       0.179815         4.8930 
 105   0.0000       0.181602         4.9416 
 106   0.0000       0.184328         5.0158 
 107   0.0000       0.187192         5.0938 
 108   0.0000       0.193043         5.2530 
 109   0.0000       0.195573         5.3218 
 110   0.0000       0.199525         5.4294 
 111   0.0000       0.200114         5.4454 
 112   0.0000       0.200696         5.4612 
 113   0.0000       0.203957         5.5499 
 114   0.0000       0.207032         5.6336 
 115   0.0000       0.208388         5.6705 
 116   0.0000       0.211029         5.7424 
 117   0.0000       0.214189         5.8284 
 118   0.0000       0.214572         5.8388 
 119   0.0000       0.222173         6.0456 
 120   0.0000       0.225810         6.1446 
 121   0.0000       0.228006         6.2044 
 122   0.0000       0.234947         6.3932 
 123   0.0000       0.236516         6.4359 
 124   0.0000       0.238973         6.5028 
 125   0.0000       0.244382         6.6500 
 126   0.0000       0.246557         6.7092 
 127   0.0000       0.247014         6.7216 
 128   0.0000       0.255652         6.9566 
 129   0.0000       0.256745         6.9864 
 130   0.0000       0.258128         7.0240 
 131   0.0000       0.258905         7.0452 
 132   0.0000       0.261878         7.1261 
 133   0.0000       0.272520         7.4157 
 134   0.0000       0.273791         7.4502 
 135   0.0000       0.277449         7.5498 
 136   0.0000       0.284105         7.7309 
 137   0.0000       0.287216         7.8155 
 138   0.0000       0.288986         7.8637 
 139   0.0000       0.294652         8.0179 
 140   0.0000       0.297931         8.1071 
 141   0.0000       0.299688         8.1549 
 142   0.0000       0.305409         8.3106 
 143   0.0000       0.309514         8.4223 
 144   0.0000       0.311258         8.4697 
 145   0.0000       0.318094         8.6558 
 146   0.0000       0.321717         8.7544 
 147   0.0000       0.324823         8.8389 
 148   0.0000       0.330418         8.9911 
 149   0.0000       0.331555         9.0221 
 150   0.0000       0.333886         9.0855 
 151   0.0000       0.340181         9.2568 
 152   0.0000       0.340393         9.2626 
 153   0.0000       0.342587         9.3223 
 154   0.0000       0.348890         9.4938 
 155   0.0000       0.352672         9.5967 
 156   0.0000       0.361281         9.8310 
 157   0.0000       0.364654         9.9228 
 158   0.0000       0.370618        10.0850 
 159   0.0000       0.374606        10.1936 
 160   0.0000       0.376087        10.2338 
 161   0.0000       0.380417        10.3517 
 162   0.0000       0.382569        10.4102 
 163   0.0000       0.386488        10.5169 
 164   0.0000       0.390549        10.6274 
 165   0.0000       0.395565        10.7639 
 166   0.0000       0.396579        10.7915 
 167   0.0000       0.401093        10.9143 
 168   0.0000       0.403353        10.9758 
 169   0.0000       0.408034        11.1032 
 170   0.0000       0.413901        11.2628 
 171   0.0000       0.415673        11.3111 
 172   0.0000       0.419114        11.4047 
 173   0.0000       0.422528        11.4976 
 174   0.0000       0.423329        11.5194 
 175   0.0000       0.426802        11.6139 
 176   0.0000       0.430785        11.7223 
 177   0.0000       0.434248        11.8165 
 178   0.0000       0.437244        11.8980 
 179   0.0000       0.439740        11.9659 
 180   0.0000       0.443308        12.0630 
 181   0.0000       0.444126        12.0853 
 182   0.0000       0.446525        12.1506 
 183   0.0000       0.448028        12.1915 
 184   0.0000       0.455158        12.3855 
 185   0.0000       0.458442        12.4749 
 186   0.0000       0.459882        12.5140 
 187   0.0000       0.463128        12.6023 
 188   0.0000       0.470039        12.7904 
 189   0.0000       0.477415        12.9911 
 190   0.0000       0.477869        13.0035 
 191   0.0000       0.479819        13.0565 
 192   0.0000       0.489095        13.3090 
 193   0.0000       0.494378        13.4527 
 194   0.0000       0.497296        13.5321 
 195   0.0000       0.501704        13.6521 
 196   0.0000       0.503912        13.7121 
 197   0.0000       0.508394        13.8341 
 198   0.0000       0.512555        13.9473 
 199   0.0000       0.517705        14.0875 
 200   0.0000       0.524783        14.2801 
 201   0.0000       0.526058        14.3148 
 202   0.0000       0.526623        14.3301 
 203   0.0000       0.534430        14.5426 
 204   0.0000       0.538674        14.6581 
 205   0.0000       0.548167        14.9164 
 206   0.0000       0.556418        15.1409 
 207   0.0000       0.558081        15.1862 
 208   0.0000       0.562536        15.3074 
 209   0.0000       0.563908        15.3447 
 210   0.0000       0.577086        15.7033 
 211   0.0000       0.578666        15.7463 
 212   0.0000       0.590350        16.0642 
 213   0.0000       0.594906        16.1882 
 214   0.0000       0.605223        16.4690 
 215   0.0000       0.610568        16.6144 
 216   0.0000       0.616457        16.7746 
 217   0.0000       0.624313        16.9884 
 218   0.0000       0.631799        17.1921 
 219   0.0000       0.637495        17.3471 
 220   0.0000       0.640141        17.4191 
 221   0.0000       0.642904        17.4943 
 222   0.0000       0.646151        17.5827 
[...]
   Time for XC-Integration:      13.250
   Time for LR-CPCM terms:        7.043
   Time for Sigma-Completion:     0.105
   Time for building 10 sigma-vectors
   Data Preparation Phase         ...     0.01 sec
   Transformed RI Coulomb         ...     0.37 sec
   Transformed RI-exchange        ...    76.67 sec
   (ab|v) reading and digestion   ...    71.05 sec
   Final sigma-completion         ...     0.00 sec
   Done building sigma-vectors             Size of expansion space: 40
   Lowest Energy          :     0.116680751638
   Maximum Energy change  :     0.017381089696 (vector 1)
   Maximum residual norm  :     0.000765687131

                       ****Iteration    2****
              <<< Entering MO-section for Build Sigma(Double) >>>
   Forming the XC and CPCM contribution:
   Time for densities:            0.142
   Time for XC-Integration:      13.217
   Time for LR-CPCM terms:        7.020
   Time for Sigma-Completion:     0.104
   Time for building 10 sigma-vectors
   Data Preparation Phase         ...     0.01 sec
   Transformed RI Coulomb         ...     0.36 sec
   Transformed RI-exchange        ...    72.88 sec
   (ab|v) reading and digestion   ...    67.50 sec
   Final sigma-completion         ...     0.00 sec
   Done building sigma-vectors             Size of expansion space: 50
   Lowest Energy          :     0.116049794059
   Maximum Energy change  :     0.002043992786 (vector 9)
   Maximum residual norm  :     0.000465125800

                       ****Iteration    3****
              <<< Entering MO-section for Build Sigma(Double) >>>
   Forming the XC and CPCM contribution:
   Time for densities:            0.142
   Time for XC-Integration:      13.618
   Time for LR-CPCM terms:        7.100
   Time for Sigma-Completion:     0.125
   Time for building 10 sigma-vectors
   Data Preparation Phase         ...     0.00 sec
   Transformed RI Coulomb         ...     0.36 sec
   Transformed RI-exchange        ...    72.88 sec
   (ab|v) reading and digestion   ...    67.27 sec
   Final sigma-completion         ...     0.00 sec
   Done building sigma-vectors             Size of expansion space: 60
   Lowest Energy          :     0.116019384491
   Maximum Energy change  :     0.001044796769 (vector 9)
   Maximum residual norm  :     0.000051634824

                       ****Iteration    4****
              <<< Entering MO-section for Build Sigma(Double) >>>
   Forming the XC and CPCM contribution:
   Time for densities:            0.139
   Time for XC-Integration:      13.531
   Time for LR-CPCM terms:        7.017
   Time for Sigma-Completion:     0.105
   Time for building 10 sigma-vectors
   Data Preparation Phase         ...     0.00 sec
   Transformed RI Coulomb         ...     0.36 sec
   Transformed RI-exchange        ...    73.98 sec
   (ab|v) reading and digestion   ...    67.35 sec
   Final sigma-completion         ...     0.00 sec
   Done building sigma-vectors             Size of expansion space: 70
   Lowest Energy          :     0.116017815531
   Maximum Energy change  :     0.000122764095 (vector 9)
   Maximum residual norm  :     0.000006852306
   Rebuilding the expansion space

                       ****Iteration    5****
              <<< Entering MO-section for Build Sigma(Double) >>>
   Forming the XC and CPCM contribution:
   Time for densities:            0.277
   Time for XC-Integration:      26.222
   Time for LR-CPCM terms:       11.341
   Time for Sigma-Completion:     0.218
   Time for building 20 sigma-vectors
   Data Preparation Phase         ...     0.01 sec
   Transformed RI Coulomb         ...     0.61 sec
   Transformed RI-exchange        ...   346.63 sec
   (ab|v) reading and digestion   ...   335.11 sec
   Final sigma-completion         ...     0.01 sec
   Done building sigma-vectors             Size of expansion space: 20
   Lowest Energy          :     0.116017751746
   Maximum Energy change  :     0.000009567402 (vector 9)
   Maximum residual norm  :     0.000000991101

      *** CONVERGENCE OF RESIDUAL NORM REACHED ***

Storing the converged CI vectors               ... optpbed3-b2plyp-test-390_job2.cis1

                 *** DAVIDSON DONE ***

Total time for solving the CIS problem:   843.415sec

------------------
DOUBLES CORRECTION (Double precision version)
------------------

The (D) correction will be scaled by  0.2700
Doing v(i,a)*T(i,a) terms (RI)                    ... ok
Doing u(i,j,a,b) terms for state   0              ... ok
Doing u(i,j,a,b) terms for state   1              ... ok
Doing u(i,j,a,b) terms for state   2              ... ok
Doing u(i,j,a,b) terms for state   3              ... ok
Doing u(i,j,a,b) terms for state   4              ... ok
Doing u(i,j,a,b) terms for state   5              ... ok
Doing u(i,j,a,b) terms for state   6              ... ok
Doing u(i,j,a,b) terms for state   7              ... ok
Doing u(i,j,a,b) terms for state   8              ... ok
Doing u(i,j,a,b) terms for state   9              ... ok

Contributions to the (D) correction(s) (in eV)

STATE  Final   Init.   Total   v(ext)   v(int)  v(3)    u
       omega   omega     (D)                             
-----------------------------------------------------------------------------
   0   2.709   3.157  -0.448   0.662   0.976  -0.040  -2.046
   1   3.326   3.864  -0.538   0.691   0.797  -0.030  -1.996
   2   3.551   4.059  -0.508   0.660   0.928  -0.043  -2.053
   3   4.180   4.682  -0.502   0.566   0.949  -0.039  -1.978
   4   4.530   5.062  -0.532   0.564   0.925  -0.059  -1.962
   5   4.931   5.224  -0.293   0.065   0.947  -0.004  -1.300
   6   4.987   5.582  -0.595   0.461   0.951  -0.028  -1.978
   7   5.333   5.658  -0.325   0.065   0.952  -0.004  -1.338
   8   5.393   5.711  -0.319   0.042   0.952  -0.003  -1.310
   9   5.381   5.862  -0.481   0.443   0.913  -0.039  -1.798

(D)-timings
 V(i,a)*T(i,a) terms           ...   167.837 sec
 U(i,j,a,b) 3-internal         ...     5.268 sec
 U(i,j,a,b) 3-external         ...   115.007 sec
 U(i,j,a,b) pair terms         ...    98.229 sec
 Total measured time           ...   820.644 sec

 Time for (ab|v) I/O           ...    43.941 sec


------------------------------------
TD-DFT/TDA EXCITED STATES (SINGLETS)
------------------------------------

the weight of the individual excitations are printed if larger than 1.0e-02

STATE  1:  E=   0.099549 au      2.709 eV    21848.6 cm**-1 <S**2> =   0.000000
    53a ->  55a  :     0.087853 (c=  0.29640065)
    54a ->  55a  :     0.877505 (c= -0.93675262)

STATE  2:  E=   0.122240 au      3.326 eV    26828.6 cm**-1 <S**2> =   0.000000
    51a ->  55a  :     0.897953 (c= -0.94760386)
    51a ->  78a  :     0.026735 (c=  0.16350789)
    51a ->  86a  :     0.013225 (c= -0.11499949)

STATE  3:  E=   0.130500 au      3.551 eV    28641.4 cm**-1 <S**2> =   0.000000
    52a ->  55a  :     0.015255 (c= -0.12351303)
    53a ->  55a  :     0.833642 (c= -0.91303992)
    54a ->  55a  :     0.083351 (c= -0.28870608)
    54a ->  56a  :     0.011598 (c= -0.10769395)

STATE  4:  E=   0.153613 au      4.180 eV    33714.3 cm**-1 <S**2> =   0.000000
    50a ->  55a  :     0.022825 (c= -0.15107818)
    52a ->  55a  :     0.307099 (c=  0.55416529)
    52a ->  56a  :     0.010962 (c= -0.10469724)
    53a ->  55a  :     0.022528 (c= -0.15009210)
    53a ->  56a  :     0.035840 (c= -0.18931373)
    54a ->  56a  :     0.526435 (c=  0.72555872)

STATE  5:  E=   0.166474 au      4.530 eV    36536.8 cm**-1 <S**2> =   0.000000
    52a ->  55a  :     0.482057 (c=  0.69430357)
    53a ->  56a  :     0.036533 (c= -0.19113645)
    54a ->  56a  :     0.372083 (c= -0.60998628)
    54a ->  57a  :     0.016360 (c= -0.12790427)
    54a ->  62a  :     0.014158 (c= -0.11898542)
    54a ->  70a  :     0.010942 (c=  0.10460459)

STATE  6:  E=   0.181226 au      4.931 eV    39774.4 cm**-1 <S**2> =   0.000000
    52a ->  55a  :     0.015729 (c=  0.12541377)
    54a ->  57a  :     0.695207 (c=  0.83379053)
    54a ->  58a  :     0.039097 (c= -0.19772947)
    54a ->  60a  :     0.052294 (c= -0.22867817)
    54a ->  61a  :     0.012496 (c= -0.11178565)
    54a ->  63a  :     0.077902 (c= -0.27910954)
    54a ->  64a  :     0.031624 (c=  0.17783201)

STATE  7:  E=   0.183275 au      4.987 eV    40224.2 cm**-1 <S**2> =   0.000000
    52a ->  56a  :     0.012313 (c= -0.11096209)
    53a ->  55a  :     0.015235 (c=  0.12342923)
    53a ->  56a  :     0.309170 (c=  0.55603017)
    53a ->  70a  :     0.011797 (c= -0.10861320)
    54a ->  55a  :     0.013429 (c=  0.11588248)
    54a ->  58a  :     0.035983 (c=  0.18969232)
    54a ->  59a  :     0.013526 (c= -0.11630095)
    54a ->  60a  :     0.016533 (c= -0.12858022)
    54a ->  61a  :     0.018027 (c= -0.13426421)
    54a ->  62a  :     0.223474 (c= -0.47273074)
    54a ->  63a  :     0.061622 (c=  0.24823871)
    54a ->  64a  :     0.149600 (c=  0.38678198)
    54a ->  68a  :     0.014567 (c=  0.12069569)

STATE  8:  E=   0.195986 au      5.333 eV    43014.0 cm**-1 <S**2> =   0.000000
    53a ->  56a  :     0.026473 (c=  0.16270529)
    54a ->  58a  :     0.154905 (c= -0.39357988)
    54a ->  59a  :     0.664310 (c=  0.81505213)
    54a ->  61a  :     0.025729 (c=  0.16040377)
    54a ->  64a  :     0.010908 (c=  0.10444038)
    54a ->  65a  :     0.010246 (c=  0.10122382)
    54a ->  82a  :     0.010138 (c=  0.10068559)

STATE  9:  E=   0.198179 au      5.393 eV    43495.3 cm**-1 <S**2> =   0.000000
    53a ->  56a  :     0.018061 (c= -0.13439123)
    53a ->  57a  :     0.058881 (c= -0.24265389)
    54a ->  57a  :     0.010413 (c=  0.10204367)
    54a ->  58a  :     0.574115 (c=  0.75770375)
    54a ->  59a  :     0.183525 (c=  0.42839770)
    54a ->  60a  :     0.036850 (c= -0.19196330)
    54a ->  63a  :     0.021337 (c= -0.14607344)
    54a ->  65a  :     0.013544 (c=  0.11637739)
    54a ->  69a  :     0.019084 (c=  0.13814313)

STATE 10:  E=   0.197764 au      5.381 eV    43404.1 cm**-1 <S**2> =   0.000000
    50a ->  55a  :     0.377853 (c= -0.61469709)
    52a ->  55a  :     0.012576 (c=  0.11214190)
    52a ->  56a  :     0.031287 (c= -0.17688149)
    53a ->  56a  :     0.111935 (c=  0.33456707)
    53a ->  62a  :     0.029282 (c=  0.17111915)
    53a ->  64a  :     0.011753 (c= -0.10841154)
    54a ->  56a  :     0.022544 (c= -0.15014812)
    54a ->  61a  :     0.016065 (c=  0.12674703)
    54a ->  62a  :     0.278877 (c=  0.52808807)
    54a ->  70a  :     0.013352 (c= -0.11554922)


-----------------------------
TD-DFT/TDA-EXCITATION SPECTRA
-----------------------------

Center of mass = (  0.5627,  0.7710,  0.0928)
Calculating the Dipole integrals                  ... done
Transforming integrals                            ... done
Calculating the Linear Momentum integrals         ... done
Transforming integrals                            ... done
Calculating angular momentum integrals            ... done
Transforming integrals                            ... done

-----------------------------------------------------------------------------
         ABSORPTION SPECTRUM VIA TRANSITION ELECTRIC DIPOLE MOMENTS
-----------------------------------------------------------------------------
State   Energy    Wavelength  fosc         T2        TX        TY        TZ  
        (cm-1)      (nm)                 (au**2)    (au)      (au)      (au) 
-----------------------------------------------------------------------------
   1   21848.6    457.7   0.072062184   1.08583  -1.03044   0.14815   0.04539
   2   26828.6    372.7   0.000012039   0.00015   0.00924  -0.00781  -0.00115
   3   28641.4    349.1   0.079925842   0.91869  -0.94970   0.12029   0.04786
   4   33714.3    296.6   0.110839052   1.08232  -1.00241  -0.27791  -0.01605
   5   36536.8    273.7   0.362080140   3.26249   1.74469  -0.42963  -0.18430
   6   39774.4    251.4   0.019476966   0.16121   0.33870  -0.20292  -0.07291
   7   40224.2    248.6   0.224953292   1.84111   1.35599   0.04382  -0.02217
   8   43014.0    232.5   0.022119308   0.16929   0.38503  -0.10320  -0.10196
   9   43495.3    229.9   0.026105280   0.19759  -0.34460   0.27386  -0.06194
  10   43404.1    230.4   0.338700371   2.56898   1.45204  -0.65950  -0.16007

-----------------------------------------------------------------------------
         ABSORPTION SPECTRUM VIA TRANSITION VELOCITY DIPOLE MOMENTS
-----------------------------------------------------------------------------
State   Energy    Wavelength   fosc        P2         PX        PY        PZ  
        (cm-1)      (nm)                 (au**2)     (au)      (au)      (au) 
-----------------------------------------------------------------------------
   1   21848.6    457.7   0.000764619   0.00011   0.01015  -0.00182  -0.00280
   2   26828.6    372.7   0.000007685   0.00000  -0.00114   0.00034  -0.00005
   3   28641.4    349.1   0.016306714   0.00319   0.05532  -0.01127  -0.00216
   4   33714.3    296.6   0.051562235   0.01188   0.10676   0.02105  -0.00632
   5   36536.8    273.7   0.191978456   0.04794  -0.21747   0.01481   0.02063
   6   39774.4    251.4   0.009249865   0.00251  -0.04449   0.01511   0.01751
   7   40224.2    248.6   0.107566075   0.02957  -0.17124   0.00809   0.01356
   8   43014.0    232.5   0.006774496   0.00199  -0.04265   0.00927   0.00929
   9   43495.3    229.9   0.009845338   0.00293   0.04174  -0.03079   0.01539
  10   43404.1    230.4   0.112454622   0.03336  -0.16004   0.08669   0.01519

-------------------------------------------------------------------
                             CD SPECTRUM
-------------------------------------------------------------------
State  Energy     Wavelength     R         MX        MY        MZ   
       (cm-1)       (nm)     (1e40*cgs)   (au)      (au)      (au)  
-------------------------------------------------------------------
   1   21848.6    457.7      6.34044  -0.02012   0.08934  -0.45204
   2   26828.6    372.7     -0.64410   0.12333   0.31491   0.04110
   3   28641.4    349.1      3.54750   0.00856  -0.13934   0.67722
   4   33714.3    296.6      6.90975  -0.00805  -0.04064   0.29358
   5   36536.8    273.7     47.44720   0.01755   0.04810  -0.49206
   6   39774.4    251.4    -10.66516  -0.04842   0.06275  -0.08930
   7   40224.2    248.6     23.44114   0.03631  -0.02834  -0.07793
   8   43014.0    232.5    -43.48939  -0.23799   0.02888  -0.02320
   9   43495.3    229.9    -39.48653  -0.00344  -0.31736  -0.03182
  10   43404.1    230.4     28.28772   0.03146  -0.02177   0.00020

-------------------------------------------------------------------
         CD SPECTRUM VIA TRANSITION VELOCITY DIPOLE MOMENTS        
-------------------------------------------------------------------
State  Energy     Wavelength     R         MX        MY        MZ   
       (cm-1)       (nm)     (1e40*cgs)   (au)      (au)      (au)  
-------------------------------------------------------------------
   1   21848.6    457.7      4.25825  -0.02012   0.08934  -0.45204
   2   26828.6    372.7     -0.13343   0.12333   0.31491   0.04110
   3   28641.4    349.1      2.09655   0.00856  -0.13934   0.67722
   4   33714.3    296.6    -10.95464  -0.00805  -0.04064   0.29358
   5   36536.8    273.7    -37.54383   0.01755   0.04810  -0.49206
   6   39774.4    251.4      4.00279  -0.04842   0.06275  -0.08930
   7   40224.2    248.6    -19.30276   0.03631  -0.02834  -0.07793
   8   43014.0    232.5     24.54354  -0.23799   0.02888  -0.02320
   9   43495.3    229.9     21.73598  -0.00344  -0.31736  -0.03182
  10   43404.1    230.4    -16.49336   0.03146  -0.02177   0.00020

Total run time:     1671.982 sec

           *** ORCA-CIS/TD-DFT FINISHED WITHOUT ERROR ***

Maximum memory used throughout the entire CIS-calculation: 762.4 MB

-----------------------
CIS/TD-DFT TOTAL ENERGY
-----------------------

    E(SCF)  =   -668.928851917 Eh
    DE(CIS) =      0.099549437 Eh (Root  1)
    ----------------------------- ---------
    E(tot)  =   -668.829302480 Eh



-------------------------------------------------------------------------------
                          DFT DISPERSION CORRECTION                            
                                                                               
                              DFTD3 V3.1  Rev 1                                
                          USING Becke-Johnson damping                          
-------------------------------------------------------------------------------
The B2PLYP functional is recognized
Active option DFTDOPT                   ...         4   

molecular C6(AA) [au] = 9154.785572 


            DFT-D V3
 parameters
 s6 scaling factor         :     0.6400 
 a1 scaling factor         :     0.3065 
 s8 scaling factor         :     0.9147 
 a2 scaling factor         :     5.0570 
 ad hoc parameters k1-k3   :    16.0000     1.3333    -4.0000 

 Edisp/kcal,au: -17.716814020083  -0.028233537281 
 E6   /kcal   :  -9.845775471 
 E8   /kcal   :  -7.871038549 
 % E8         :  44.426941208 

-------------------------   ----------------
Dispersion correction           -0.028233537
-------------------------   ----------------


-------------------------   --------------------
FINAL SINGLE POINT ENERGY      -668.857536017385
-------------------------   --------------------


                            ***************************************
                            *     ORCA property calculations      *
                            ***************************************


  WARNING: The energy has been calculated at the MP2 level but the densities
           used in the property calculations are still SCF densities
           MP2 response densities have not been calculated 
           use %mp2 Density relaxed end
           or  %mp2 Density unrelaxed end

                                    ---------------------
                                    Active property flags
                                    ---------------------
   (+) Dipole Moment


------------------------------------------------------------------------------
                       ORCA ELECTRIC PROPERTIES CALCULATION
------------------------------------------------------------------------------

Dipole Moment Calculation                       ... on
Quadrupole Moment Calculation                   ... off
Polarizability Calculation                      ... off
GBWName                                         ... optpbed3-b2plyp-test-390_job2.gbw
Electron density                                ... optpbed3-b2plyp-test-390_job2.scfp
The origin for moment calculation is the CENTER OF MASS  = ( 0.562739,  0.770972  0.092808)

-------------
DIPOLE MOMENT
-------------
                                X             Y             Z
Electronic contribution:      7.00214       7.84572       1.00421
Nuclear contribution   :     -8.06350     -10.61024      -1.21678
                        -----------------------------------------
Total Dipole Moment    :     -1.06135      -2.76451      -0.21257
                        -----------------------------------------
Magnitude (a.u.)       :      2.96887
Magnitude (Debye)      :      7.54627



--------------------
Rotational spectrum 
--------------------
 
Rotational constants in cm-1:     0.027711     0.016214     0.010260 
Rotational constants in MHz :   830.766647   486.077945   307.590711 

 Dipole components along the rotational axes: 
x,y,z [a.u.] :    -1.276473    -2.666907     0.269095 
x,y,z [Debye]:    -3.244536    -6.778740     0.683985 

 

Timings for individual modules:

Sum of individual times         ...     2670.023 sec (=  44.500 min)
GTO integral calculation        ...        3.855 sec (=   0.064 min)   0.1 %
SCF iterations                  ...      602.388 sec (=  10.040 min)  22.6 %
MP2 module                      ...      391.185 sec (=   6.520 min)  14.7 %
CIS module                      ...     1672.595 sec (=  27.877 min)  62.6 %



                             ****ORCA TERMINATED NORMALLY****
TOTAL RUN TIME: 0 days 2 hours 3 minutes 26 seconds 170 msec
