
                                 *****************
                                 * O   R   C   A *
                                 *****************

                                            #,                                       
                                            ###                                      
                                            ####                                     
                                            #####                                    
                                            ######                                   
                                           ########,                                 
                                     ,,################,,,,,                         
                               ,,#################################,,                 
                          ,,##########################################,,             
                       ,#########################################, ''#####,          
                    ,#############################################,,   '####,        
                  ,##################################################,,,,####,       
                ,###########''''           ''''###############################       
              ,#####''   ,,,,##########,,,,          '''####'''          '####       
            ,##' ,,,,###########################,,,                        '##       
           ' ,,###''''                  '''############,,,                           
         ,,##''                                '''############,,,,        ,,,,,,###''
      ,#''                                            '''#######################'''  
     '                                                          ''''####''''         
             ,#######,   #######,   ,#######,      ##                                
            ,#'     '#,  ##    ##  ,#'     '#,    #''#        ######   ,####,        
            ##       ##  ##   ,#'  ##            #'  '#       #        #'  '#        
            ##       ##  #######   ##           ,######,      #####,   #    #        
            '#,     ,#'  ##    ##  '#,     ,#' ,#      #,         ##   #,  ,#        
             '#######'   ##     ##  '#######'  #'      '#     #####' # '####'        



                  #######################################################
                  #                        -***-                        #
                  #          Department of theory and spectroscopy      #
                  #    Directorship and core code : Frank Neese         #
                  #        Max Planck Institute fuer Kohlenforschung    #
                  #                Kaiser Wilhelm Platz 1               #
                  #                 D-45470 Muelheim/Ruhr               #
                  #                      Germany                        #
                  #                                                     #
                  #                  All rights reserved                #
                  #                        -***-                        #
                  #######################################################


                         Program Version 5.0.2 -  RELEASE  -


 With contributions from (in alphabetic order):
   Daniel Aravena         : Magnetic Suceptibility
   Michael Atanasov       : Ab Initio Ligand Field Theory (pilot matlab implementation)
   Alexander A. Auer      : GIAO ZORA, VPT2 properties, NMR spectrum
   Ute Becker             : Parallelization
   Giovanni Bistoni       : ED, misc. LED, open-shell LED, HFLD
   Martin Brehm           : Molecular dynamics
   Dmytro Bykov           : SCF Hessian
   Vijay G. Chilkuri      : MRCI spin determinant printing, contributions to CSF-ICE
   Dipayan Datta          : RHF DLPNO-CCSD density
   Achintya Kumar Dutta   : EOM-CC, STEOM-CC
   Dmitry Ganyushin       : Spin-Orbit,Spin-Spin,Magnetic field MRCI
   Miquel Garcia          : C-PCM and meta-GGA Hessian, CC/C-PCM, Gaussian charge scheme
   Yang Guo               : DLPNO-NEVPT2, F12-NEVPT2, CIM, IAO-localization
   Andreas Hansen         : Spin unrestricted coupled pair/coupled cluster methods
   Benjamin Helmich-Paris : MC-RPA, TRAH-SCF, COSX integrals
   Lee Huntington         : MR-EOM, pCC
   Robert Izsak           : Overlap fitted RIJCOSX, COSX-SCS-MP3, EOM
   Marcus Kettner         : VPT2
   Christian Kollmar      : KDIIS, OOCD, Brueckner-CCSD(T), CCSD density, CASPT2, CASPT2-K
   Simone Kossmann        : Meta GGA functionals, TD-DFT gradient, OOMP2, MP2 Hessian
   Martin Krupicka        : Initial AUTO-CI
   Lucas Lang             : DCDCAS
   Marvin Lechner         : AUTO-CI (C++ implementation), FIC-MRCC
   Dagmar Lenk            : GEPOL surface, SMD
   Dimitrios Liakos       : Extrapolation schemes; Compound Job, initial MDCI parallelization
   Dimitrios Manganas     : Further ROCIS development; embedding schemes
   Dimitrios Pantazis     : SARC Basis sets
   Anastasios Papadopoulos: AUTO-CI, single reference methods and gradients
   Taras Petrenko         : DFT Hessian,TD-DFT gradient, ASA, ECA, R-Raman, ABS, FL, XAS/XES, NRVS
   Peter Pinski           : DLPNO-MP2, DLPNO-MP2 Gradient
   Christoph Reimann      : Effective Core Potentials
   Marius Retegan         : Local ZFS, SOC
   Christoph Riplinger    : Optimizer, TS searches, QM/MM, DLPNO-CCSD(T), (RO)-DLPNO pert. Triples
   Tobias Risthaus        : Range-separated hybrids, TD-DFT gradient, RPA, STAB
   Michael Roemelt        : Original ROCIS implementation
   Masaaki Saitow         : Open-shell DLPNO-CCSD energy and density
   Barbara Sandhoefer     : DKH picture change effects
   Avijit Sen             : IP-ROCIS
   Kantharuban Sivalingam : CASSCF convergence, NEVPT2, FIC-MRCI
   Bernardo de Souza      : ESD, SOC TD-DFT
   Georgi Stoychev        : AutoAux, RI-MP2 NMR, DLPNO-MP2 response
   Willem Van den Heuvel  : Paramagnetic NMR
   Boris Wezisla          : Elementary symmetry handling
   Frank Wennmohs         : Technical directorship


 We gratefully acknowledge several colleagues who have allowed us to
 interface, adapt or use parts of their codes:
   Stefan Grimme, W. Hujo, H. Kruse, P. Pracht,  : VdW corrections, initial TS optimization,
                  C. Bannwarth, S. Ehlert          DFT functionals, gCP, sTDA/sTD-DF
   Ed Valeev, F. Pavosevic, A. Kumar             : LibInt (2-el integral package), F12 methods
   Garnet Chan, S. Sharma, J. Yang, R. Olivares  : DMRG
   Ulf Ekstrom                                   : XCFun DFT Library
   Mihaly Kallay                                 : mrcc  (arbitrary order and MRCC methods)
   Jiri Pittner, Ondrej Demel                    : Mk-CCSD
   Frank Weinhold                                : gennbo (NPA and NBO analysis)
   Christopher J. Cramer and Donald G. Truhlar   : smd solvation model
   Lars Goerigk                                  : TD-DFT with DH, B97 family of functionals
   V. Asgeirsson, H. Jonsson                     : NEB implementation
   FAccTs GmbH                                   : IRC, NEB, NEB-TS, DLPNO-Multilevel, CI-OPT
                                                   MM, QMMM, 2- and 3-layer-ONIOM, Crystal-QMMM,
                                                   LR-CPCM, SF, NACMEs, symmetry and pop. for TD-DFT,
                                                   nearIR, NL-DFT gradient (VV10), updates on ESD,
                                                   ML-optimized integration grids
   S Lehtola, MJT Oliveira, MAL Marques          : LibXC Library
   Liviu Ungur et al                             : ANISO software


 Your calculation uses the libint2 library for the computation of 2-el integrals
 For citations please refer to: http://libint.valeyev.net

 Your ORCA version has been built with support for libXC version: 5.1.0
 For citations please refer to: https://tddft.org/programs/libxc/

 This ORCA versions uses:
   CBLAS   interface :  Fast vector & matrix operations
   LAPACKE interface :  Fast linear algebra routines
   SCALAPACK package :  Parallel linear algebra routines
   Shared memory     :  Shared parallel matrices
   BLAS/LAPACK       :  OpenBLAS 0.3.15  USE64BITINT DYNAMIC_ARCH NO_AFFINITY Haswell SINGLE_THREADED
        Core in use  :  Haswell
   Copyright (c) 2011-2014, The OpenBLAS Project


Your calculation utilizes the atom-pairwise dispersion correction
with the Becke-Johnson damping scheme (D3BJ)
Cite in your paper:
S.Grimme, S.Ehrlich, L.Goerigk, J Comput Chem, (2011), 32, 1456–1465 
S.Grimme, J.Antony, S.Ehrlich and H.Krieg, J.Chem.Phys., 132, (2010), 154104 
   

Your calculation utilizes the SMD solvation module
Please cite in your paper:
A.V. Marenich, C.J. Cramer, D.G. Truhlar J. Phys. Chem. B, 113, (2009), 6378 

================================================================================

----- Orbital basis set information -----
Your calculation utilizes the basis: aug-cc-pVTZ 
    H, B-Ne : Obtained from the ccRepo (grant-hill.group.shef.ac.uk/ccrepo) Feb. 2017
              R. A. Kendall, T. H. Dunning, Jr., R. J. Harrison, J. Chem. Phys. 96, 6796 (1992)
         He : Obtained from the ccRepo (grant-hill.group.shef.ac.uk/ccrepo) Feb. 2017
              D. E. Woon, T. H. Dunning, Jr., J. Chem. Phys. 100, 2975 (1994)
  Li-Be, Na : Obtained from the ccRepo (grant-hill.group.shef.ac.uk/ccrepo) Feb. 2017
              B. P. Prascher, D. E. Woon, K. A. Peterson, T. H. Dunning, Jr., A. K. Wilson, Theor. Chem. Acc. 128, 69 (2011)
         Mg : Obtained from the Peterson Research Group Website (tyr0.chem.wsu.edu/~kipeters) Feb. 2017
              B. P. Prascher, D. E. Woon, K. A. Peterson, T. H. Dunning, Jr., A. K. Wilson, Theor. Chem. Acc. 128, 69 (2011)
      Al-Ar : Obtained from the ccRepo (grant-hill.group.shef.ac.uk/ccrepo) Feb. 2017
              D. E. Woon, T. H. Dunning, Jr., J. Chem. Phys. 98, 1358 (1993)
      Sc-Zn : Obtained from the ccRepo (grant-hill.group.shef.ac.uk/ccrepo) Feb. 2017
              N. B. Balabanov, K. A. Peterson, J. Chem. Phys. 123, 064107 (2005)
              N. B. Balabanov, K. A. Peterson, J. Chem. Phys. 125, 074110 (2006)
      Ga-Kr : Obtained from the ccRepo (grant-hill.group.shef.ac.uk/ccrepo) Feb. 2017
              A. K. Wilson, D. E. Woon, K. A. Peterson, T. H. Dunning, Jr., J. Chem. Phys. 110, 7667 (1999)
     Ag, Au : Obtained from the Peterson Research Group Website (tyr0.chem.wsu.edu/~kipeters) Feb. 2017
              K. A. Peterson, C. Puzzarini, Theor. Chem. Acc. 114, 283 (2005)

The basis set includes element-specific modifications.

Your calculation utilizes the basis: cc-pVTZ 
       H, B-Ne : Obtained from the ccRepo (grant-hill.group.shef.ac.uk/ccrepo) Feb. 2017
                 T. H. Dunning, Jr., J. Chem. Phys. 90, 1007 (1989)
            He : Obtained from the ccRepo (grant-hill.group.shef.ac.uk/ccrepo) Feb. 2017
                 D. E. Woon, T. H. Dunning, Jr., J. Chem. Phys. 100, 2975 (1994)
  Li-Be, Na-Mg : Obtained from the ccRepo (grant-hill.group.shef.ac.uk/ccrepo) Feb. 2017
                 B. P. Prascher, D. E. Woon, K. A. Peterson, T. H. Dunning, Jr., A. K. Wilson, Theor. Chem. Acc. 128, 69 (2011)
         Al-Ar : Obtained from the ccRepo (grant-hill.group.shef.ac.uk/ccrepo) Feb. 2017
                 D. E. Woon, T. H. Dunning, Jr., J. Chem. Phys. 98, 1358 (1993)
            Ca : Obtained from the Peterson Research Group Website (tyr0.chem.wsu.edu/~kipeters) Feb. 2017
                 J. Koput, K. A. Peterson, J. Phys. Chem. 106, 9595 (2002)
         Sc-Zn : Obtained from the ccRepo (grant-hill.group.shef.ac.uk/ccrepo) Feb. 2017
                 N. B. Balabanov, K. A. Peterson, J. Chem. Phys. 123, 064107 (2005)
                 N. B. Balabanov, K. A. Peterson, J. Chem. Phys. 125, 074110 (2006)
         Ga-Kr : Obtained from the ccRepo (grant-hill.group.shef.ac.uk/ccrepo) Feb. 2017
                 A. K. Wilson, D. E. Woon, K. A. Peterson, T. H. Dunning, Jr., J. Chem. Phys. 110, 7667 (1999)
             Y : Obtained from the ccRepo (grant-hill.group.shef.ac.uk/ccrepo) Feb. 2017
                 K. A. Peterson, D. Figgen, M. Dolg, H. Stoll, J. Chem. Phys. 126, 124101 (2007)
        Ag, Au : Obtained from the Peterson Research Group Website (tyr0.chem.wsu.edu/~kipeters) Feb. 2017
                 K. A. Peterson, C. Puzzarini, Theor. Chem. Acc. 114, 283 (2005)

----- AuxJ basis set information -----
Your calculation utilizes the auxiliary basis: aug-cc-pVTZ/JK 
  H, B-F, Al-Cl, Ga-Br : Obtained from the TURBOMOLE 7.0 basis set library

The basis set includes element-specific modifications.

Your calculation utilizes the auxiliary basis: cc-pVTZ/JK 
  H, B-F, Al-Cl, Ga-Br : Obtained from the TURBOMOLE 7.0 basis set library

----- AuxC basis set information -----
Your calculation utilizes the auxiliary basis: aug-cc-pVTZ/C 
  H-He, B-F, Al-Ar, Ga-Kr : Obtained from the EMSL Basis Set Exchange (bse.pnl.gov) Feb. 2017
                            F. Weigend, A. Kohn, C. Hattig, J. Chem. Phys. 116, 3175 (2002)
                   Be, Mg : Obtained from the TURBOMOLE 7.0 basis set library
                            C. Haettig, Phys. Chem. Chem. Phys. 7, 59 (2005)
                       Ne : Obtained from the EMSL Basis Set Exchange (bse.pnl.gov) Feb. 2017
                            C. Haettig, Phys. Chem. Chem. Phys. 7, 59 (2005)
                            F. Weigend, A. Kohn, C. Hattig, J. Chem. Phys. 116, 3175 (2002)
                    Sc-Zn : Obtained from the EMSL Basis Set Exchange (bse.pnl.gov) Feb. 2017
                            J. G. Hill, J. A. Platts, J. Chem. Phys. 128, 044104 (2008)

The basis set includes element-specific modifications.

Your calculation utilizes the auxiliary basis: cc-pVTZ/C 
  Obtained from the EMSL Basis Set Exchange (bse.pnl.gov) Feb. 2017
  H-He, B-F, Al-Ar, Ga-Kr : F. Weigend, A. Kohn, C. Hattig, J. Chem. Phys. 116, 3175 (2002)
             Li-Be, Na-Mg : C. Haettig, Phys. Chem. Chem. Phys. 7, 59 (2005)
                       Ne : C. Haettig, Phys. Chem. Chem. Phys. 7, 59 (2005)
                            F. Weigend, A. Kohn, C. Hattig, J. Chem. Phys. 116, 3175 (2002)
                    Sc-Zn : J. G. Hill, J. A. Platts, J. Chem. Phys. 128, 044104 (2008)

================================================================================
                                        WARNINGS
                       Please study these warnings very carefully!
================================================================================


WARNING: Geometry Optimization
  ===> : Switching off AutoStart
         For restart on a previous wavefunction, please use MOREAD

INFO   : the flag for use of the SHARK integral package has been found!



***************************************
The coordinates will be read from file: 
***************************************


Your calculation utilizes the atom-pairwise dispersion correction
with the Becke-Johnson damping scheme (D3BJ)
Cite in your paper:
S.Grimme, S.Ehrlich, L.Goerigk, J Comput Chem, (2011), 32, 1456–1465 
S.Grimme, J.Antony, S.Ehrlich and H.Krieg, J.Chem.Phys., 132, (2010), 154104 
   

Your calculation utilizes the SMD solvation module
Please cite in your paper:
A.V. Marenich, C.J. Cramer, D.G. Truhlar J. Phys. Chem. B, 113, (2009), 6378 

================================================================================

----- Orbital basis set information -----
Your calculation utilizes the basis: aug-cc-pVTZ 
    H, B-Ne : Obtained from the ccRepo (grant-hill.group.shef.ac.uk/ccrepo) Feb. 2017
              R. A. Kendall, T. H. Dunning, Jr., R. J. Harrison, J. Chem. Phys. 96, 6796 (1992)
         He : Obtained from the ccRepo (grant-hill.group.shef.ac.uk/ccrepo) Feb. 2017
              D. E. Woon, T. H. Dunning, Jr., J. Chem. Phys. 100, 2975 (1994)
  Li-Be, Na : Obtained from the ccRepo (grant-hill.group.shef.ac.uk/ccrepo) Feb. 2017
              B. P. Prascher, D. E. Woon, K. A. Peterson, T. H. Dunning, Jr., A. K. Wilson, Theor. Chem. Acc. 128, 69 (2011)
         Mg : Obtained from the Peterson Research Group Website (tyr0.chem.wsu.edu/~kipeters) Feb. 2017
              B. P. Prascher, D. E. Woon, K. A. Peterson, T. H. Dunning, Jr., A. K. Wilson, Theor. Chem. Acc. 128, 69 (2011)
      Al-Ar : Obtained from the ccRepo (grant-hill.group.shef.ac.uk/ccrepo) Feb. 2017
              D. E. Woon, T. H. Dunning, Jr., J. Chem. Phys. 98, 1358 (1993)
      Sc-Zn : Obtained from the ccRepo (grant-hill.group.shef.ac.uk/ccrepo) Feb. 2017
              N. B. Balabanov, K. A. Peterson, J. Chem. Phys. 123, 064107 (2005)
              N. B. Balabanov, K. A. Peterson, J. Chem. Phys. 125, 074110 (2006)
      Ga-Kr : Obtained from the ccRepo (grant-hill.group.shef.ac.uk/ccrepo) Feb. 2017
              A. K. Wilson, D. E. Woon, K. A. Peterson, T. H. Dunning, Jr., J. Chem. Phys. 110, 7667 (1999)
     Ag, Au : Obtained from the Peterson Research Group Website (tyr0.chem.wsu.edu/~kipeters) Feb. 2017
              K. A. Peterson, C. Puzzarini, Theor. Chem. Acc. 114, 283 (2005)

The basis set includes element-specific modifications.

Your calculation utilizes the basis: cc-pVTZ 
       H, B-Ne : Obtained from the ccRepo (grant-hill.group.shef.ac.uk/ccrepo) Feb. 2017
                 T. H. Dunning, Jr., J. Chem. Phys. 90, 1007 (1989)
            He : Obtained from the ccRepo (grant-hill.group.shef.ac.uk/ccrepo) Feb. 2017
                 D. E. Woon, T. H. Dunning, Jr., J. Chem. Phys. 100, 2975 (1994)
  Li-Be, Na-Mg : Obtained from the ccRepo (grant-hill.group.shef.ac.uk/ccrepo) Feb. 2017
                 B. P. Prascher, D. E. Woon, K. A. Peterson, T. H. Dunning, Jr., A. K. Wilson, Theor. Chem. Acc. 128, 69 (2011)
         Al-Ar : Obtained from the ccRepo (grant-hill.group.shef.ac.uk/ccrepo) Feb. 2017
                 D. E. Woon, T. H. Dunning, Jr., J. Chem. Phys. 98, 1358 (1993)
            Ca : Obtained from the Peterson Research Group Website (tyr0.chem.wsu.edu/~kipeters) Feb. 2017
                 J. Koput, K. A. Peterson, J. Phys. Chem. 106, 9595 (2002)
         Sc-Zn : Obtained from the ccRepo (grant-hill.group.shef.ac.uk/ccrepo) Feb. 2017
                 N. B. Balabanov, K. A. Peterson, J. Chem. Phys. 123, 064107 (2005)
                 N. B. Balabanov, K. A. Peterson, J. Chem. Phys. 125, 074110 (2006)
         Ga-Kr : Obtained from the ccRepo (grant-hill.group.shef.ac.uk/ccrepo) Feb. 2017
                 A. K. Wilson, D. E. Woon, K. A. Peterson, T. H. Dunning, Jr., J. Chem. Phys. 110, 7667 (1999)
             Y : Obtained from the ccRepo (grant-hill.group.shef.ac.uk/ccrepo) Feb. 2017
                 K. A. Peterson, D. Figgen, M. Dolg, H. Stoll, J. Chem. Phys. 126, 124101 (2007)
        Ag, Au : Obtained from the Peterson Research Group Website (tyr0.chem.wsu.edu/~kipeters) Feb. 2017
                 K. A. Peterson, C. Puzzarini, Theor. Chem. Acc. 114, 283 (2005)

----- AuxJ basis set information -----
Your calculation utilizes the auxiliary basis: aug-cc-pVTZ/JK 
  H, B-F, Al-Cl, Ga-Br : Obtained from the TURBOMOLE 7.0 basis set library

The basis set includes element-specific modifications.

Your calculation utilizes the auxiliary basis: cc-pVTZ/JK 
  H, B-F, Al-Cl, Ga-Br : Obtained from the TURBOMOLE 7.0 basis set library

----- AuxC basis set information -----
Your calculation utilizes the auxiliary basis: aug-cc-pVTZ/C 
  H-He, B-F, Al-Ar, Ga-Kr : Obtained from the EMSL Basis Set Exchange (bse.pnl.gov) Feb. 2017
                            F. Weigend, A. Kohn, C. Hattig, J. Chem. Phys. 116, 3175 (2002)
                   Be, Mg : Obtained from the TURBOMOLE 7.0 basis set library
                            C. Haettig, Phys. Chem. Chem. Phys. 7, 59 (2005)
                       Ne : Obtained from the EMSL Basis Set Exchange (bse.pnl.gov) Feb. 2017
                            C. Haettig, Phys. Chem. Chem. Phys. 7, 59 (2005)
                            F. Weigend, A. Kohn, C. Hattig, J. Chem. Phys. 116, 3175 (2002)
                    Sc-Zn : Obtained from the EMSL Basis Set Exchange (bse.pnl.gov) Feb. 2017
                            J. G. Hill, J. A. Platts, J. Chem. Phys. 128, 044104 (2008)

The basis set includes element-specific modifications.

Your calculation utilizes the auxiliary basis: cc-pVTZ/C 
  Obtained from the EMSL Basis Set Exchange (bse.pnl.gov) Feb. 2017
  H-He, B-F, Al-Ar, Ga-Kr : F. Weigend, A. Kohn, C. Hattig, J. Chem. Phys. 116, 3175 (2002)
             Li-Be, Na-Mg : C. Haettig, Phys. Chem. Chem. Phys. 7, 59 (2005)
                       Ne : C. Haettig, Phys. Chem. Chem. Phys. 7, 59 (2005)
                            F. Weigend, A. Kohn, C. Hattig, J. Chem. Phys. 116, 3175 (2002)
                    Sc-Zn : J. G. Hill, J. A. Platts, J. Chem. Phys. 128, 044104 (2008)

================================================================================
                                        WARNINGS
                       Please study these warnings very carefully!
================================================================================

INFO   : Checking CIS options ...
  ===> : (D) CORRECTION FOUND - SETTING MODE=3
  ===> : JK MODE FOUND - ACTIVATING RI-MP2 CODE
  ===> : MP2 AND CIS FOUND - CHECKING
WARNING: CIS(D) and MP2 runs must have the same orbital window
  ===> : adjusting orbital windows

WARNING: No MP2 level density has been requested!
         To caclulate MP2 level properties use
         %mp2 Density relaxed end
         or
         %mp2 Density unrelaxed end
         Otherwise for double-hybrid DFT only the energy is correct!

WARNING: The frozen-core approximation is turned on by default for 
         the MP2 part of double-hybrid DFT.

INFO   : the flag for use of the SHARK integral package has been found!

================================================================================
                                       INPUT FILE
================================================================================
NAME = optpbed3-b2plyp-test-594.inp
|  1> ! pbe0 d3bj aug-cc-PVTZ RIJCOSX Opt
|  2> %maxcore 4000
|  3> %basis
|  4>  AuxJ "aug-cc-PVTZ/JK"
|  5>  AuxC "aug-cc-PVTZ/C"
|  6>  newGTO H "cc-PVTZ" end
|  7>  newAuxJGTO H "cc-PVTZ/JK" end
|  8>  newAuxCGTO H "cc-PVTZ/C" end
|  9> end
| 10> %cpcm
| 11>  SMD true
| 12>  SMDsolvent "methanol"
| 13> end
| 14> %pal nprocs 4 end
| 15> * xyz 0 1
| 16> O          2.02650       -0.80630        3.04530
| 17> C          1.91280       -0.50050        1.86950
| 18> C          0.61900       -0.43660        1.21430
| 19> C          0.46730       -0.13060       -0.09600
| 20> N         -0.69170       -0.05790       -0.80870
| 21> C         -2.01140       -0.01820       -0.42760
| 22> C         -2.97510       -0.37710       -1.38250
| 23> C         -4.31350       -0.35280       -1.07190
| 24> C         -4.71400        0.04860        0.20030
| 25> N         -6.10910        0.07320        0.53070
| 26> O         -6.41750        0.41220        1.65510
| 27> O         -6.89950       -0.24620       -0.33430
| 28> C         -3.77330        0.44450        1.14600
| 29> C         -2.43210        0.41290        0.83650
| 30> C          1.65340        0.09190       -0.98250
| 31> O          1.48700        0.24780       -2.18010
| 32> C          2.96600        0.10350       -0.33380
| 33> C          4.10070        0.38750       -1.09240
| 34> C          5.35050        0.40450       -0.50040
| 35> C          5.47930        0.13150        0.85310
| 36> C          4.35840       -0.15810        1.61380
| 37> C          3.09670       -0.17260        1.03330
| 38> H         -0.22480       -0.68500        1.83930
| 39> H         -0.50790       -0.02350       -1.81260
| 40> H         -2.65360       -0.68330       -2.36670
| 41> H         -5.06340       -0.64000       -1.79270
| 42> H         -4.11270        0.78120        2.11360
| 43> H         -1.71260        0.76260        1.55710
| 44> H          3.97770        0.59470       -2.14500
| 45> H          6.22420        0.62910       -1.09330
| 46> H          6.45470        0.14240        1.31580
| 47> H          4.43840       -0.37930        2.66780
| 48> *
| 49> 
| 50> 
| 51> $new_job
| 52> ! b2plyp aug-cc-PVTZ RIJCOSX SP
| 53> %maxcore 4000
| 54> %basis
| 55>  AuxJ "aug-cc-PVTZ/JK"
| 56>  AuxC "aug-cc-PVTZ/C"
| 57>  newGTO H "cc-PVTZ" end
| 58>  newAuxJGTO H "cc-PVTZ/JK" end
| 59>  newAuxCGTO H "cc-PVTZ/C" end
| 60> end
| 61> %cpcm
| 62>  SMD true
| 63>  SMDsolvent "methanol"
| 64> end
| 65> %pal nprocs 4 end
| 66> %tddft
| 67>  nroots 10
| 68>  maxdim 7
| 69> end
| 70> * xyzfile 0 1
| 71> 
| 72>                          ****END OF INPUT****
================================================================================


                 $$$$$$$$$$$$$$$$$$$$$$$$$$$$$$$$$$$$$$$$$$$$$$ 
                 $ THERE ARE  2 JOBS TO BE PROCESSED THIS RUN $
                 $$$$$$$$$$$$$$$$$$$$$$$$$$$$$$$$$$$$$$$$$$$$$$ 




                 $$$$$$$$$$$$$$$$  JOB NUMBER  1 $$$$$$$$$$$$$$


                       *****************************
                       * Geometry Optimization Run *
                       *****************************

Geometry optimization settings:
Update method            Update   .... BFGS
Choice of coordinates    CoordSys .... Z-matrix Internals
Initial Hessian          InHess   .... Almoef's Model

Convergence Tolerances:
Energy Change            TolE     ....  5.0000e-06 Eh
Max. Gradient            TolMAXG  ....  3.0000e-04 Eh/bohr
RMS Gradient             TolRMSG  ....  1.0000e-04 Eh/bohr
Max. Displacement        TolMAXD  ....  4.0000e-03 bohr
RMS Displacement         TolRMSD  ....  2.0000e-03 bohr
Strict Convergence                ....  False
------------------------------------------------------------------------------
                        ORCA OPTIMIZATION COORDINATE SETUP
------------------------------------------------------------------------------

The optimization will be done in new redundant internal coordinates
Making redundant internal coordinates   ...  (new redundants) done
Evaluating the initial hessian          ...  (Almloef) done
Evaluating the coordinates              ...  done
Calculating the B-matrix                .... done
Calculating the G-matrix                .... done
Diagonalizing the G-matrix              .... done
Small eigenvalue found = 3.250e-03
Small eigenvalue found = 1.355e-02
Small eigenvalue found = 2.829e-02
The first mode is                       ....   78
The number of degrees of freedom        ....   90

    -----------------------------------------------------------------
                    Redundant Internal Coordinates


    -----------------------------------------------------------------
         Definition                    Initial Value    Approx d2E/dq
    -----------------------------------------------------------------
      1. B(C   1,O   0)                  1.2202         1.044100   
      2. B(C   2,C   1)                  1.4517         0.498172   
      3. B(C   3,C   2)                  1.3541         0.712927   
      4. B(N   4,C   3)                  1.3625         0.619000   
      5. B(C   5,N   4)                  1.3742         0.593043   
      6. B(C   6,C   5)                  1.4033         0.594917   
      7. B(C   7,C   6)                  1.3742         0.662178   
      8. B(C   8,C   7)                  1.3928         0.618302   
      9. B(N   9,C   8)                  1.4339         0.476248   
     10. B(O  10,N   9)                  1.2142         0.956034   
     11. B(O  11,N   9)                  1.2145         0.955071   
     12. B(C  12,C   8)                  1.3914         0.621585   
     13. B(C  13,C  12)                  1.3768         0.655816   
     14. B(C  13,C   5)                  1.4003         0.601641   
     15. B(C  14,C   3)                  1.4974         0.421096   
     16. B(O  15,C  14)                  1.2191         1.048366   
     17. B(C  16,C  14)                  1.4642         0.475736   
     18. B(C  17,C  16)                  1.3942         0.615327   
     19. B(C  18,C  17)                  1.3830         0.641017   
     20. B(C  19,C  18)                  1.3868         0.632296   
     21. B(C  20,C  19)                  1.3853         0.635768   
     22. B(C  21,C  20)                  1.3889         0.627298   
     23. B(C  21,C  16)                  1.4008         0.600465   
     24. B(C  21,C   1)                  1.4861         0.439020   
     25. B(H  22,C   2)                  1.0790         0.374895   
     26. B(H  23,N   4)                  1.0212         0.415317   
     27. B(H  24,C   6)                  1.0797         0.373975   
     28. B(H  25,C   7)                  1.0791         0.374857   
     29. B(H  26,C  12)                  1.0793         0.374587   
     30. B(H  27,C  13)                  1.0767         0.378162   
     31. B(H  28,C  17)                  1.0798         0.373811   
     32. B(H  29,C  18)                  1.0795         0.374257   
     33. B(H  30,C  19)                  1.0796         0.374074   
     34. B(H  31,C  20)                  1.0799         0.373673   
     35. A(C   2,C   1,C  21)          116.5102         0.392716   
     36. A(O   0,C   1,C  21)          121.5522         0.445136   
     37. A(O   0,C   1,C   2)          121.9376         0.455472   
     38. A(C   3,C   2,H  22)          121.6619         0.363878   
     39. A(C   1,C   2,C   3)          123.1308         0.427942   
     40. A(C   1,C   2,H  22)          115.1758         0.342459   
     41. A(C   2,C   3,N   4)          127.8437         0.442088   
     42. A(C   2,C   3,C  14)          121.1795         0.415290   
     43. A(N   4,C   3,C  14)          110.8658         0.402421   
     44. A(C   3,N   4,H  23)          111.2795         0.356079   
     45. A(C   5,N   4,H  23)          116.3923         0.353502   
     46. A(C   3,N   4,C   5)          132.3274         0.424890   
     47. A(N   4,C   5,C  13)          123.2144         0.425503   
     48. A(N   4,C   5,C   6)          117.6061         0.424649   
     49. A(C   6,C   5,C  13)          119.1234         0.428538   
     50. A(C   7,C   6,H  24)          120.0701         0.359172   
     51. A(C   5,C   6,H  24)          119.2292         0.352701   
     52. A(C   5,C   6,C   7)          120.6983         0.435986   
     53. A(C   6,C   7,C   8)          119.4456         0.439027   
     54. A(C   6,C   7,H  25)          121.4106         0.359316   
     55. A(C   8,C   7,H  25)          119.1436         0.355154   
     56. A(C   7,C   8,C  12)          120.5573         0.434051   
     57. A(N   9,C   8,C  12)          119.7551         0.411579   
     58. A(C   7,C   8,N   9)          119.6807         0.411193   
     59. A(O  10,N   9,O  11)          124.5886         0.494925   
     60. A(C   8,N   9,O  11)          117.6827         0.438629   
     61. A(C   8,N   9,O  10)          117.7287         0.438708   
     62. A(C  13,C  12,H  26)          121.0000         0.358682   
     63. A(C   8,C  12,H  26)          119.0459         0.355429   
     64. A(C   8,C  12,C  13)          119.9521         0.438682   
     65. A(C  12,C  13,H  27)          119.5426         0.359262   
     66. A(C   5,C  13,H  27)          120.2261         0.354039   
     67. A(C   5,C  13,C  12)          120.1767         0.436111   
     68. A(O  15,C  14,C  16)          123.8190         0.452004   
     69. A(C   3,C  14,C  16)          116.6782         0.386742   
     70. A(C   3,C  14,O  15)          119.5025         0.442117   
     71. A(C  17,C  16,C  21)          119.6859         0.430989   
     72. A(C  14,C  16,C  21)          120.9614         0.411642   
     73. A(C  14,C  16,C  17)          119.3519         0.413432   
     74. A(C  16,C  17,C  18)          120.3371         0.436085   
     75. A(C  18,C  17,H  28)          121.1869         0.357166   
     76. A(C  16,C  17,H  28)          118.4758         0.354695   
     77. A(C  19,C  18,H  29)          120.1226         0.356408   
     78. A(C  17,C  18,H  29)          119.9239         0.357239   
     79. A(C  17,C  18,C  19)          119.9535         0.438228   
     80. A(C  20,C  19,H  30)          119.8549         0.356710   
     81. A(C  18,C  19,C  20)          120.1306         0.437579   
     82. A(C  18,C  19,H  30)          120.0144         0.356379   
     83. A(C  21,C  20,H  31)          118.2340         0.355834   
     84. A(C  19,C  20,H  31)          121.2540         0.356645   
     85. A(C  19,C  20,C  21)          120.5119         0.436953   
     86. A(C   1,C  21,C  16)          121.2192         0.405829   
     87. A(C  16,C  21,C  20)          119.3796         0.432483   
     88. A(C   1,C  21,C  20)          119.3949         0.408980   
     89. D(H  22,C   2,C   1,C  21)    179.6111         0.016903   
     90. D(C   3,C   2,C   1,O   0)   -178.4136         0.016903   
     91. D(C   3,C   2,C   1,C  21)      1.6257         0.016903   
     92. D(H  22,C   2,C   1,O   0)     -0.4282         0.016903   
     93. D(N   4,C   3,C   2,H  22)      1.3688         0.035910   
     94. D(C  14,C   3,C   2,H  22)   -174.4383         0.035910   
     95. D(N   4,C   3,C   2,C   1)    179.2267         0.035910   
     96. D(C  14,C   3,C   2,C   1)      3.4196         0.035910   
     97. D(H  23,N   4,C   3,C  14)      9.4653         0.031019   
     98. D(C   5,N   4,C   3,C  14)   -170.1990         0.031019   
     99. D(H  23,N   4,C   3,C   2)   -166.6963         0.031019   
    100. D(C   5,N   4,C   3,C   2)     13.6394         0.031019   
    101. D(C  13,C   5,N   4,C   3)     23.0689         0.028293   
    102. D(C   6,C   5,N   4,C   3)   -159.6823         0.028293   
    103. D(C   6,C   5,N   4,H  23)     20.6669         0.028293   
    104. D(C  13,C   5,N   4,H  23)   -156.5819         0.028293   
    105. D(H  24,C   6,C   5,C  13)    178.3011         0.024377   
    106. D(H  24,C   6,C   5,N   4)      0.9358         0.024377   
    107. D(C   7,C   6,C   5,C  13)     -2.2694         0.024377   
    108. D(C   7,C   6,C   5,N   4)   -179.6347         0.024377   
    109. D(H  25,C   7,C   6,H  24)      0.3142         0.030612   
    110. D(H  25,C   7,C   6,C   5)   -179.1105         0.030612   
    111. D(C   8,C   7,C   6,H  24)   -179.7887         0.030612   
    112. D(C   8,C   7,C   6,C   5)      0.7866         0.030612   
    113. D(C  12,C   8,C   7,H  25)   -179.0162         0.026445   
    114. D(C  12,C   8,C   7,C   6)      1.0845         0.026445   
    115. D(N   9,C   8,C   7,H  25)      0.0278         0.026445   
    116. D(N   9,C   8,C   7,C   6)   -179.8716         0.026445   
    117. D(O  11,N   9,C   8,C   7)     -0.9623         0.017887   
    118. D(O  10,N   9,C   8,C  12)     -1.8858         0.017887   
    119. D(O  10,N   9,C   8,C   7)    179.0625         0.017887   
    120. D(O  11,N   9,C   8,C  12)    178.0895         0.017887   
    121. D(H  26,C  12,C   8,N   9)     -1.0012         0.026744   
    122. D(H  26,C  12,C   8,C   7)    178.0421         0.026744   
    123. D(C  13,C  12,C   8,N   9)    179.5108         0.026744   
    124. D(C  13,C  12,C   8,C   7)     -1.4459         0.026744   
    125. D(H  27,C  13,C  12,H  26)     -2.2302         0.029984   
    126. D(C   5,C  13,C  12,H  26)   -179.5490         0.029984   
    127. D(C   5,C  13,C  12,C   8)     -0.0712         0.029984   
    128. D(H  27,C  13,C   5,C   6)   -175.4000         0.024961   
    129. D(C  12,C  13,C   5,C   6)      1.9004         0.024961   
    130. D(H  27,C  13,C  12,C   8)    177.2476         0.029984   
    131. D(C  12,C  13,C   5,N   4)    179.1095         0.024961   
    132. D(H  27,C  13,C   5,N   4)      1.8092         0.024961   
    133. D(C  16,C  14,C   3,N   4)    177.2103         0.012133   
    134. D(C  16,C  14,C   3,C   2)     -6.3322         0.012133   
    135. D(O  15,C  14,C   3,N   4)     -2.9605         0.012133   
    136. D(O  15,C  14,C   3,C   2)    173.4970         0.012133   
    137. D(C  21,C  16,C  14,O  15)   -175.5939         0.015410   
    138. D(C  21,C  16,C  14,C   3)      4.2272         0.015410   
    139. D(C  17,C  16,C  14,O  15)      4.0910         0.015410   
    140. D(C  17,C  16,C  14,C   3)   -176.0879         0.015410   
    141. D(H  28,C  17,C  16,C  21)    179.8262         0.026176   
    142. D(H  28,C  17,C  16,C  14)      0.1372         0.026176   
    143. D(C  18,C  17,C  16,C  21)     -0.3402         0.026176   
    144. D(C  18,C  17,C  16,C  14)    179.9708         0.026176   
    145. D(H  29,C  18,C  17,H  28)      0.0736         0.028555   
    146. D(H  29,C  18,C  17,C  16)   -179.7554         0.028555   
    147. D(C  19,C  18,C  17,H  28)   -179.8493         0.028555   
    148. D(C  19,C  18,C  17,C  16)      0.3217         0.028555   
    149. D(H  30,C  19,C  18,C  17)    179.8675         0.027733   
    150. D(C  20,C  19,C  18,H  29)   -179.9329         0.027733   
    151. D(C  20,C  19,C  18,C  17)     -0.0102         0.027733   
    152. D(H  30,C  19,C  18,H  29)     -0.0552         0.027733   
    153. D(H  31,C  20,C  19,H  30)     -0.2575         0.028059   
    154. D(H  31,C  20,C  19,C  18)    179.6204         0.028059   
    155. D(C  21,C  20,C  19,H  30)    179.8389         0.028059   
    156. D(C  21,C  20,C  19,C  18)     -0.2832         0.028059   
    157. D(C  16,C  21,C  20,H  31)   -179.6447         0.027269   
    158. D(C   1,C  21,C  20,H  31)     -0.5481         0.027269   
    159. D(C   1,C  21,C  20,C  19)    179.3583         0.027269   
    160. D(C  20,C  21,C  16,C  17)      0.0486         0.024858   
    161. D(C  20,C  21,C  16,C  14)    179.7325         0.024858   
    162. D(C   1,C  21,C  16,C  17)   -179.0310         0.024858   
    163. D(C   1,C  21,C  16,C  14)      0.6529         0.024858   
    164. D(C  20,C  21,C   1,C   2)    177.2157         0.013153   
    165. D(C  20,C  21,C   1,O   0)     -2.7451         0.013153   
    166. D(C  16,C  21,C  20,C  19)      0.2617         0.027269   
    167. D(C  16,C  21,C   1,C   2)     -3.7048         0.013153   
    168. D(C  16,C  21,C   1,O   0)    176.3344         0.013153   
    -----------------------------------------------------------------

Number of atoms                         .... 32
Number of degrees of freedom            .... 168

         *************************************************************
         *                GEOMETRY OPTIMIZATION CYCLE   1            *
         *************************************************************
---------------------------------
CARTESIAN COORDINATES (ANGSTROEM)
---------------------------------
  O      2.026500   -0.806300    3.045300
  C      1.912800   -0.500500    1.869500
  C      0.619000   -0.436600    1.214300
  C      0.467300   -0.130600   -0.096000
  N     -0.691700   -0.057900   -0.808700
  C     -2.011400   -0.018200   -0.427600
  C     -2.975100   -0.377100   -1.382500
  C     -4.313500   -0.352800   -1.071900
  C     -4.714000    0.048600    0.200300
  N     -6.109100    0.073200    0.530700
  O     -6.417500    0.412200    1.655100
  O     -6.899500   -0.246200   -0.334300
  C     -3.773300    0.444500    1.146000
  C     -2.432100    0.412900    0.836500
  C      1.653400    0.091900   -0.982500
  O      1.487000    0.247800   -2.180100
  C      2.966000    0.103500   -0.333800
  C      4.100700    0.387500   -1.092400
  C      5.350500    0.404500   -0.500400
  C      5.479300    0.131500    0.853100
  C      4.358400   -0.158100    1.613800
  C      3.096700   -0.172600    1.033300
  H     -0.224800   -0.685000    1.839300
  H     -0.507900   -0.023500   -1.812600
  H     -2.653600   -0.683300   -2.366700
  H     -5.063400   -0.640000   -1.792700
  H     -4.112700    0.781200    2.113600
  H     -1.712600    0.762600    1.557100
  H      3.977700    0.594700   -2.145000
  H      6.224200    0.629100   -1.093300
  H      6.454700    0.142400    1.315800
  H      4.438400   -0.379300    2.667800

----------------------------
CARTESIAN COORDINATES (A.U.)
----------------------------
  NO LB      ZA    FRAG     MASS         X           Y           Z
   0 O     8.0000    0    15.999    3.829530   -1.523686    5.754783
   1 C     6.0000    0    12.011    3.614668   -0.945808    3.532843
   2 C     6.0000    0    12.011    1.169740   -0.825054    2.294694
   3 C     6.0000    0    12.011    0.883069   -0.246798   -0.181414
   4 N     7.0000    0    14.007   -1.307124   -0.109415   -1.528222
   5 C     6.0000    0    12.011   -3.800995   -0.034393   -0.808047
   6 C     6.0000    0    12.011   -5.622124   -0.712616   -2.612546
   7 C     6.0000    0    12.011   -8.151334   -0.666695   -2.025597
   8 C     6.0000    0    12.011   -8.908169    0.091841    0.378512
   9 N     7.0000    0    14.007  -11.544526    0.138328    1.002878
  10 O     8.0000    0    15.999  -12.127317    0.778945    3.127686
  11 O     8.0000    0    15.999  -13.038165   -0.465251   -0.631735
  12 C     6.0000    0    12.011   -7.130504    0.839983    2.165626
  13 C     6.0000    0    12.011   -4.596003    0.780268    1.580756
  14 C     6.0000    0    12.011    3.124473    0.173666   -1.856656
  15 O     8.0000    0    15.999    2.810023    0.468274   -4.119792
  16 C     6.0000    0    12.011    5.604928    0.195587   -0.630791
  17 C     6.0000    0    12.011    7.749200    0.732269   -2.064337
  18 C     6.0000    0    12.011   10.110980    0.764394   -0.945619
  19 C     6.0000    0    12.011   10.354376    0.248499    1.612125
  20 C     6.0000    0    12.011    8.236182   -0.298766    3.049640
  21 C     6.0000    0    12.011    5.851915   -0.326167    1.952654
  22 H     1.0000    0     1.008   -0.424810   -1.294462    3.475773
  23 H     1.0000    0     1.008   -0.959792   -0.044409   -3.425318
  24 H     1.0000    0     1.008   -5.014577   -1.291250   -4.472415
  25 H     1.0000    0     1.008   -9.568439   -1.209425   -3.387712
  26 H     1.0000    0     1.008   -7.771877    1.476254    3.994125
  27 H     1.0000    0     1.008   -3.236345    1.441105    2.942493
  28 H     1.0000    0     1.008    7.516764    1.123820   -4.053463
  29 H     1.0000    0     1.008   11.762033    1.188827   -2.066038
  30 H     1.0000    0     1.008   12.197615    0.269097    2.486502
  31 H     1.0000    0     1.008    8.387360   -0.716773    5.041411

--------------------------------
INTERNAL COORDINATES (ANGSTROEM)
--------------------------------
 O      0   0   0     0.000000000000     0.00000000     0.00000000
 C      1   0   0     1.220224147442     0.00000000     0.00000000
 C      2   1   0     1.451650333241   121.93759431     0.00000000
 C      3   2   1     1.354080861692   123.13080058   181.58639265
 N      4   3   2     1.362537184814   127.84374329   179.22672754
 C      5   4   3     1.374198453645   132.32740478    13.63938550
 C      6   5   4     1.403339199909   117.60614407   200.31771100
 C      7   6   5     1.374182451496   120.69825130   180.36532223
 C      8   7   6     1.392844230343   119.44563690     0.78656343
 N      9   8   7     1.433901436641   119.68071928   180.12844328
 O     10   9   8     1.214210410102   117.72873541   179.06245121
 O     10   9   8     1.214484878457   117.68268002   359.03774439
 C      9   8   7     1.391402813710   120.55733028     1.08446003
 C     13   9   8     1.376810172101   119.95212733   358.55407506
 C      4   3   2     1.497404991978   121.17949217     3.41958926
 O     15   4   3     1.219114239930   119.50252741   173.49701499
 C     15   4   3     1.464194321120   116.67821100   353.66779385
 C     17  15   4     1.394157110946   119.35193236   183.91213904
 C     18  17  15     1.383023152373   120.33714747   179.97075821
 C     19  18  17     1.386751848746   119.95345161     0.32167581
 C     20  19  18     1.385261513217   120.13059067     0.00000000
 C     21  20  19     1.388912304647   120.51192931   359.71681330
 H      3   2   1     1.079039387604   115.17575326   359.57178623
 H      5   4   3     1.021166494750   111.27952373   193.30368988
 H      7   6   5     1.079708446758   119.22922828     0.93584287
 H      8   7   6     1.079067416800   121.41064504   180.88953330
 H     13   9   8     1.079263179211   119.04588479   178.04208813
 H     14  13   9     1.076677621203   119.54255219   177.24764457
 H     18  17  15     1.079827578829   118.47578289     0.13719004
 H     19  18  17     1.079503246869   119.92392771   180.24459396
 H     20  19  18     1.079636633317   120.01441649   179.86751558
 H     21  20  19     1.079928442074   121.25399555   179.62036103

---------------------------
INTERNAL COORDINATES (A.U.)
---------------------------
 O      0   0   0     0.000000000000     0.00000000     0.00000000
 C      1   0   0     2.305889460662     0.00000000     0.00000000
 C      2   1   0     2.743221572042   121.93759431     0.00000000
 C      3   2   1     2.558841991782   123.13080058   181.58639265
 N      4   3   2     2.574822126582   127.84374329   179.22672754
 C      5   4   3     2.596858731047   132.32740478    13.63938550
 C      6   5   4     2.651926760823   117.60614407   200.31771100
 C      7   6   5     2.596828491368   120.69825130   180.36532223
 C      8   7   6     2.632094142561   119.44563690     0.78656343
 N      9   8   7     2.709681018287   119.68071928   180.12844328
 O     10   9   8     2.294525144049   117.72873541   179.06245121
 O     10   9   8     2.295043814072   117.68268002   359.03774439
 C      9   8   7     2.629370259879   120.55733028     1.08446003
 C     13   9   8     2.601794163667   119.95212733   358.55407506
 C      4   3   2     2.829685346405   121.17949217     3.41958926
 O     15   4   3     2.303792039431   119.50252741   173.49701499
 C     15   4   3     2.766926273760   116.67821100   353.66779385
 C     17  15   4     2.634575127346   119.35193236   183.91213904
 C     18  17  15     2.613534994858   120.33714747   179.97075821
 C     19  18  17     2.620581209839   119.95345161     0.32167581
 C     20  19  18     2.617764883841   120.13059067     0.00000000
 C     21  20  19     2.624663879816   120.51192931   359.71681330
 H      3   2   1     2.039088930285   115.17575326   359.57178623
 H      5   4   3     1.929725012214   111.27952373   193.30368988
 H      7   6   5     2.040353268854   119.22922828     0.93584287
 H      8   7   6     2.039141897790   121.41064504   180.88953330
 H     13   9   8     2.039511835133   119.04588479   178.04208813
 H     14  13   9     2.034625838596   119.54255219   177.24764457
 H     18  17  15     2.040578395842   118.47578289     0.13719004
 H     19  18  17     2.039965497261   119.92392771   180.24459396
 H     20  19  18     2.040217561118   120.01441649   179.86751558
 H     21  20  19     2.040768999752   121.25399555   179.62036103

---------------------
BASIS SET INFORMATION
---------------------
There are 4 groups of distinct atoms

 Group   1 Type O   : 19s6p3d2f contracted to 5s4p3d2f pattern {88111/3111/111/11}
 Group   2 Type C   : 19s6p3d2f contracted to 5s4p3d2f pattern {88111/3111/111/11}
 Group   3 Type N   : 19s6p3d2f contracted to 5s4p3d2f pattern {88111/3111/111/11}
 Group   4 Type H   : 5s2p1d contracted to 3s2p1d pattern {311/11/1}

Atom   0O    basis set group =>   1
Atom   1C    basis set group =>   2
Atom   2C    basis set group =>   2
Atom   3C    basis set group =>   2
Atom   4N    basis set group =>   3
Atom   5C    basis set group =>   2
Atom   6C    basis set group =>   2
Atom   7C    basis set group =>   2
Atom   8C    basis set group =>   2
Atom   9N    basis set group =>   3
Atom  10O    basis set group =>   1
Atom  11O    basis set group =>   1
Atom  12C    basis set group =>   2
Atom  13C    basis set group =>   2
Atom  14C    basis set group =>   2
Atom  15O    basis set group =>   1
Atom  16C    basis set group =>   2
Atom  17C    basis set group =>   2
Atom  18C    basis set group =>   2
Atom  19C    basis set group =>   2
Atom  20C    basis set group =>   2
Atom  21C    basis set group =>   2
Atom  22H    basis set group =>   4
Atom  23H    basis set group =>   4
Atom  24H    basis set group =>   4
Atom  25H    basis set group =>   4
Atom  26H    basis set group =>   4
Atom  27H    basis set group =>   4
Atom  28H    basis set group =>   4
Atom  29H    basis set group =>   4
Atom  30H    basis set group =>   4
Atom  31H    basis set group =>   4
---------------------------------
AUXILIARY/J BASIS SET INFORMATION
---------------------------------
There are 4 groups of distinct atoms

 Group   1 Type O   : 10s7p5d2f1g contracted to 10s7p5d2f1g pattern {1111111111/1111111/11111/11/1}
 Group   2 Type C   : 10s7p5d2f1g contracted to 10s7p5d2f1g pattern {1111111111/1111111/11111/11/1}
 Group   3 Type N   : 10s7p5d2f1g contracted to 10s7p5d2f1g pattern {1111111111/1111111/11111/11/1}
 Group   4 Type H   : 4s3p2d1f contracted to 4s3p2d1f pattern {1111/111/11/1}

Atom   0O    basis set group =>   1
Atom   1C    basis set group =>   2
Atom   2C    basis set group =>   2
Atom   3C    basis set group =>   2
Atom   4N    basis set group =>   3
Atom   5C    basis set group =>   2
Atom   6C    basis set group =>   2
Atom   7C    basis set group =>   2
Atom   8C    basis set group =>   2
Atom   9N    basis set group =>   3
Atom  10O    basis set group =>   1
Atom  11O    basis set group =>   1
Atom  12C    basis set group =>   2
Atom  13C    basis set group =>   2
Atom  14C    basis set group =>   2
Atom  15O    basis set group =>   1
Atom  16C    basis set group =>   2
Atom  17C    basis set group =>   2
Atom  18C    basis set group =>   2
Atom  19C    basis set group =>   2
Atom  20C    basis set group =>   2
Atom  21C    basis set group =>   2
Atom  22H    basis set group =>   4
Atom  23H    basis set group =>   4
Atom  24H    basis set group =>   4
Atom  25H    basis set group =>   4
Atom  26H    basis set group =>   4
Atom  27H    basis set group =>   4
Atom  28H    basis set group =>   4
Atom  29H    basis set group =>   4
Atom  30H    basis set group =>   4
Atom  31H    basis set group =>   4
---------------------------------
AUXILIARY/C BASIS SET INFORMATION
---------------------------------
There are 4 groups of distinct atoms

 Group   1 Type O   : 9s7p6d4f2g contracted to 9s7p6d4f2g pattern {111111111/1111111/111111/1111/11}
 Group   2 Type C   : 9s7p6d4f2g contracted to 9s7p6d4f2g pattern {111111111/1111111/111111/1111/11}
 Group   3 Type N   : 9s7p6d4f2g contracted to 9s7p6d4f2g pattern {111111111/1111111/111111/1111/11}
 Group   4 Type H   : 4s3p2d1f contracted to 4s3p2d1f pattern {1111/111/11/1}

Atom   0O    basis set group =>   1
Atom   1C    basis set group =>   2
Atom   2C    basis set group =>   2
Atom   3C    basis set group =>   2
Atom   4N    basis set group =>   3
Atom   5C    basis set group =>   2
Atom   6C    basis set group =>   2
Atom   7C    basis set group =>   2
Atom   8C    basis set group =>   2
Atom   9N    basis set group =>   3
Atom  10O    basis set group =>   1
Atom  11O    basis set group =>   1
Atom  12C    basis set group =>   2
Atom  13C    basis set group =>   2
Atom  14C    basis set group =>   2
Atom  15O    basis set group =>   1
Atom  16C    basis set group =>   2
Atom  17C    basis set group =>   2
Atom  18C    basis set group =>   2
Atom  19C    basis set group =>   2
Atom  20C    basis set group =>   2
Atom  21C    basis set group =>   2
Atom  22H    basis set group =>   4
Atom  23H    basis set group =>   4
Atom  24H    basis set group =>   4
Atom  25H    basis set group =>   4
Atom  26H    basis set group =>   4
Atom  27H    basis set group =>   4
Atom  28H    basis set group =>   4
Atom  29H    basis set group =>   4
Atom  30H    basis set group =>   4
Atom  31H    basis set group =>   4


           ************************************************************
           *        Program running with 4 parallel MPI-processes     *
           *              working on a common directory               *
           ************************************************************
------------------------------------------------------------------------------
                           ORCA GTO INTEGRAL CALCULATION
                           -- RI-GTO INTEGRALS CHOSEN --
------------------------------------------------------------------------------
------------------------------------------------------------------------------
                   ___                                                        
                  /   \      - P O W E R E D   B Y -                         
                 /     \                                                     
                 |  |  |   _    _      __       _____    __    __             
                 |  |  |  | |  | |    /  \     |  _  \  |  |  /  |          
                  \  \/   | |  | |   /    \    | | | |  |  | /  /          
                 / \  \   | |__| |  /  /\  \   | |_| |  |  |/  /          
                |  |  |   |  __  | /  /__\  \  |    /   |      \           
                |  |  |   | |  | | |   __   |  |    \   |  |\   \          
                \     /   | |  | | |  |  |  |  | |\  \  |  | \   \       
                 \___/    |_|  |_| |__|  |__|  |_| \__\ |__|  \__/        
                                                                              
                      - O R C A' S   B I G   F R I E N D -                    
                                      &                                       
                       - I N T E G R A L  F E E D E R -                       
                                                                              
 v1 FN, 2020, v2 2021                                                         
------------------------------------------------------------------------------


Reading SHARK input file optpbed3-b2plyp-test-594.SHARKINP.tmp ... ok
----------------------
SHARK INTEGRAL PACKAGE
----------------------

Number of atoms                             ...     32
Number of basis functions                   ...   1284
Number of shells                            ...    500
Maximum angular momentum                    ...      3
Integral batch strategy                     ... SHARK/LIBINT Hybrid
RI-J (if used) integral strategy            ... SPLIT-RIJ (Revised 2003 algorithm where possible)
Printlevel                                  ...      1
Contraction scheme used                     ... PARTIAL GENERAL contraction
Coulomb Range Separation                    ... NOT USED
Exchange Range Separation                   ... NOT USED
Finite Nucleus Model                        ... NOT USED
Auxiliary Coulomb fitting basis             ... AVAILABLE
   # of basis functions in Aux-J            ...   2038
   # of shells in Aux-J                     ...    650
   Maximum angular momentum in Aux-J        ...      4
Auxiliary J/K fitting basis                 ... NOT available
Auxiliary Correlation fitting basis         ... AVAILABLE
   # of basis functions in Aux-C            ...   2632
   # of shells in Aux-C                     ...    716
   Maximum angular momentum in Aux-C        ...      4
Auxiliary 'external' fitting basis          ... NOT available
Integral threshold                          ...     2.500000e-11
Primitive cut-off                           ...     2.500000e-12
Primitive pair pre-selection threshold      ...     2.500000e-12

Calculating pre-screening integrals         ... done (  0.3 sec) Dimension = 500
Calculating pre-screening integrals (ORCA)  ... done (  0.7 sec) Dimension = 368
Organizing shell pair data                  ... done (  1.5 sec)
Shell pair information
Total number of shell pairs                 ...    125250
Shell pairs after pre-screening             ...     76270
Total number of primitive shell pairs       ...    159426
Primitive shell pairs kept                  ...     88544
          la=0 lb=0:  16994 shell pairs
          la=1 lb=0:  19480 shell pairs
          la=1 lb=1:   4688 shell pairs
          la=2 lb=0:  12824 shell pairs
          la=2 lb=1:   6286 shell pairs
          la=2 lb=2:   2160 shell pairs
          la=3 lb=0:   7160 shell pairs
          la=3 lb=1:   3570 shell pairs
          la=3 lb=2:   2405 shell pairs
          la=3 lb=3:    703 shell pairs

Calculating one electron integrals          ... done (  0.4 sec)
Calculating RI/J V-Matrix + Cholesky decomp.... done (  0.3 sec)
Calculating RI/C V-Matrix + Cholesky decomp.... done (  0.6 sec)
Calculating Nuclear repulsion               ... done (  0.0 sec) ENN=   1595.341513990443 Eh

SHARK setup successfully completed in   5.3 seconds

Maximum memory used throughout the entire GTOINT-calculation: 122.8 MB


           ************************************************************
           *        Program running with 4 parallel MPI-processes     *
           *              working on a common directory               *
           ************************************************************
-------------------------------------------------------------------------------
                                 ORCA SCF
-------------------------------------------------------------------------------

------------
SCF SETTINGS
------------
Hamiltonian:
 Density Functional     Method          .... DFT(GTOs)
 Exchange Functional    Exchange        .... PBE
   PBE kappa parameter   XKappa         ....  0.804000
   PBE mue parameter    XMuePBE         ....  0.219520
 Correlation Functional Correlation     .... PBE
   PBE beta parameter  CBetaPBE         ....  0.066725
 LDA part of GGA corr.  LDAOpt          .... PW91-LDA
 Gradients option       PostSCFGGA      .... off
 Hybrid DFT is turned on
   Fraction HF Exchange ScalHFX         ....  0.250000
   Scaling of DF-GGA-X  ScalDFX         ....  0.750000
   Scaling of DF-GGA-C  ScalDFC         ....  1.000000
   Scaling of DF-LDA-C  ScalLDAC        ....  1.000000
   Perturbative correction              ....  0.000000
   Density functional embedding theory  .... OFF
   NL short-range parameter             ....  6.900000
 RI-approximation to the Coulomb term is turned on
   Number of AuxJ basis functions       .... 2038
   RIJ-COSX (HFX calculated with COS-X)).... on


General Settings:
 Integral files         IntName         .... optpbed3-b2plyp-test-594
 Hartree-Fock type      HFTyp           .... RHF
 Total Charge           Charge          ....    0
 Multiplicity           Mult            ....    1
 Number of Electrons    NEL             ....  152
 Basis Dimension        Dim             .... 1152
 Nuclear Repulsion      ENuc            ....   1595.3415139904 Eh

Convergence Acceleration:
 DIIS                   CNVDIIS         .... on
   Start iteration      DIISMaxIt       ....    12
   Startup error        DIISStart       ....  0.200000
   # of expansion vecs  DIISMaxEq       ....     5
   Bias factor          DIISBfac        ....   1.050
   Max. coefficient     DIISMaxC        ....  10.000
 Trust-Rad. Augm. Hess. CNVTRAH         .... auto
   Auto Start mean grad. ratio tolernc. ....  1.125000
   Auto Start start iteration           ....    20
   Auto Start num. interpolation iter.  ....    10
   Max. Number of Micro iterations      ....    16
   Max. Number of Macro iterations      .... Maxiter - #DIIS iter
   Number of Davidson start vectors     ....     2
   Converg. threshold I  (grad. norm)   ....   1.000e-05
   Converg. threshold II (energy diff.) ....   1.000e-08
   Grad. Scal. Fac. for Micro threshold ....   0.100
   Minimum threshold for Micro iter.    ....   0.010
   NR start threshold (gradient norm)   ....   0.001
   Initial trust radius                 ....   0.400
   Minimum AH scaling param. (alpha)    ....   1.000
   Maximum AH scaling param. (alpha)    .... 1000.000
   Orbital update algorithm             .... Taylor
   White noise on init. David. guess    .... on
   Maximum white noise                  ....   0.010
   Quad. conv. algorithm                .... NR
 SOSCF                  CNVSOSCF        .... on
   Start iteration      SOSCFMaxIt      ....   150
   Startup grad/error   SOSCFStart      ....  0.003300
 Level Shifting         CNVShift        .... on
   Level shift para.    LevelShift      ....    0.2500
   Turn off err/grad.   ShiftErr        ....    0.0010
 Zerner damping         CNVZerner       .... off
 Static damping         CNVDamp         .... on
   Fraction old density DampFac         ....    0.7000
   Max. Damping (<1)    DampMax         ....    0.9800
   Min. Damping (>=0)   DampMin         ....    0.0000
   Turn off err/grad.   DampErr         ....    0.1000
 Fernandez-Rico         CNVRico         .... off

SCF Procedure:
 Maximum # iterations   MaxIter         ....   125
 SCF integral mode      SCFMode         .... Direct
   Integral package                     .... SHARK and LIBINT hybrid scheme
 Reset frequency        DirectResetFreq ....    20
 Integral Threshold     Thresh          ....  2.500e-11 Eh
 Primitive CutOff       TCut            ....  2.500e-12 Eh

Convergence Tolerance:
 Convergence Check Mode ConvCheckMode   .... Total+1el-Energy
 Convergence forced     ConvForced      .... 0
 Energy Change          TolE            ....  1.000e-08 Eh
 1-El. energy change                    ....  1.000e-05 Eh
 Orbital Gradient       TolG            ....  1.000e-05
 Orbital Rotation angle TolX            ....  1.000e-05
 DIIS Error             TolErr          ....  5.000e-07


Diagonalization of the overlap matrix:
Smallest eigenvalue                        ... 3.702e-07
Time for diagonalization                   ...    0.341 sec
Threshold for overlap eigenvalues          ... 1.000e-08
Number of eigenvalues below threshold      ... 0
Time for construction of square roots      ...    0.227 sec
Total time needed                          ...    0.577 sec

Time for model grid setup =    0.815 sec

------------------------------
INITIAL GUESS: MODEL POTENTIAL
------------------------------
Loading Hartree-Fock densities                     ... done
Calculating cut-offs                               ... done
Initializing the effective Hamiltonian             ... done
Setting up the integral package (SHARK)            ... done
Starting the Coulomb interaction                   ... done (   3.2 sec)
Reading the grid                                   ... done
Mapping shells                                     ... done
Starting the XC term evaluation                    ... done (   2.6 sec)
  promolecular density results
     # of electrons  =    151.987981106
     EX              =   -130.565780605
     EC              =     -5.162059141
     EX+EC           =   -135.727839746
Transforming the Hamiltonian                       ... done (   0.2 sec)
Diagonalizing the Hamiltonian                      ... done (   0.3 sec)
Back transforming the eigenvectors                 ... done (   0.1 sec)
Now organizing SCF variables                       ... done
                      ------------------
                      INITIAL GUESS DONE (   7.3 sec)
                      ------------------
-------------------
DFT GRID GENERATION
-------------------

General Integration Accuracy     IntAcc      ... 4.388
Radial Grid Type                 RadialGrid  ... OptM3 with GC (2021)
Angular Grid (max. ang.)         AngularGrid ... 4 (Lebedev-302)
Angular grid pruning method      GridPruning ... 4 (adaptive)
Weight generation scheme         WeightScheme... Becke
Basis function cutoff            BFCut       ... 1.0000e-11
Integration weight cutoff        WCut        ... 1.0000e-14
Angular grids for H and He will be reduced by one unit
Partially contracted basis set               ... off
Rotationally invariant grid construction     ... off

Total number of grid points                  ...   169303
Total number of batches                      ...     2660
Average number of points per batch           ...       63
Average number of grid points per atom       ...     5291
Time for grid setup =    2.725 sec

--------------------
COSX GRID GENERATION
--------------------

GRIDX 1
-------
General Integration Accuracy     IntAcc      ... 3.816
Radial Grid Type                 RadialGrid  ... OptM3 with GC (2021)
Angular Grid (max. ang.)         AngularGrid ... 1 (Lebedev-50)
Angular grid pruning method      GridPruning ... 4 (adaptive)
Weight generation scheme         WeightScheme... Becke
Basis function cutoff            BFCut       ... 1.0000e-11
Integration weight cutoff        WCut        ... 1.0000e-14
Angular grids for H and He will be reduced by one unit
Partially contracted basis set               ... on
Rotationally invariant grid construction     ... off

Total number of grid points                  ...    21496
Total number of batches                      ...      354
Average number of points per batch           ...       60
Average number of grid points per atom       ...      672
UseSFitting                                  ... on

GRIDX 2
-------
General Integration Accuracy     IntAcc      ... 4.020
Radial Grid Type                 RadialGrid  ... OptM3 with GC (2021)
Angular Grid (max. ang.)         AngularGrid ... 2 (Lebedev-110)
Angular grid pruning method      GridPruning ... 4 (adaptive)
Weight generation scheme         WeightScheme... Becke
Basis function cutoff            BFCut       ... 1.0000e-11
Integration weight cutoff        WCut        ... 1.0000e-14
Angular grids for H and He will be reduced by one unit
Partially contracted basis set               ... on
Rotationally invariant grid construction     ... off

Total number of grid points                  ...    52606
Total number of batches                      ...      837
Average number of points per batch           ...       62
Average number of grid points per atom       ...     1644
UseSFitting                                  ... on

GRIDX 3
-------
General Integration Accuracy     IntAcc      ... 4.338
Radial Grid Type                 RadialGrid  ... OptM3 with GC (2021)
Angular Grid (max. ang.)         AngularGrid ... 3 (Lebedev-194)
Angular grid pruning method      GridPruning ... 4 (adaptive)
Weight generation scheme         WeightScheme... Becke
Basis function cutoff            BFCut       ... 1.0000e-11
Integration weight cutoff        WCut        ... 1.0000e-14
Angular grids for H and He will be reduced by one unit
Partially contracted basis set               ... on
Rotationally invariant grid construction     ... off

Total number of grid points                  ...   113609
Total number of batches                      ...     1793
Average number of points per batch           ...       63
Average number of grid points per atom       ...     3550
UseSFitting                                  ... on

Time for X-Grid setup             =    8.597 sec


--------------------
CPCM SOLVATION MODEL
--------------------
CPCM parameters:
  Epsilon                                         ...      32.6130
  Refrac                                          ...       1.3288
  Rsolv                                           ...       1.3000
  Surface type                                    ... GAUSSIAN VDW
  Epsilon function type                           ...         CPCM
Solvent:                                     ... METHANOL
SMD-CDS solvent descriptors:
  Soln                                       ...    1.3288
  Soln25                                     ...    1.3265
  Sola                                       ...    0.4300
  Solb                                       ...    0.4700
  Solg                                       ...   31.7700
  Solc                                       ...    0.0000
  Solh                                       ...    0.0000
Radii:
 Radius for O  used is    2.8724 Bohr (=   1.5200 Ang.)
 Radius for C  used is    3.4960 Bohr (=   1.8500 Ang.)
 Radius for N  used is    3.5716 Bohr (=   1.8900 Ang.)
 Radius for H  used is    2.2677 Bohr (=   1.2000 Ang.)
Calculating surface                               ...        done! (  0.0s)
GEPOL surface points                              ...         1848
GEPOL Volume                                      ...    1795.7492
GEPOL Surface-area                                ...    1006.3883
Calculating surface distance matrix               ...        done! (  0.1s)
Performing Cholesky decomposition & store         ...        done! (  0.2s)
Overall time for CPCM initialization              ...                 0.3s
 re-compute Schwartz prescreening matrix in partically contracted basis (1) ...done (   0.520 sec)
--------------
SCF ITERATIONS
--------------
ITER       Energy         Delta-E        Max-DP      RMS-DP      [F,P]     Damp
               ***  Starting incremental Fock matrix formation  ***
  0  -1024.8066204580   0.000000000000 0.18147135  0.00162967  0.2776188 0.7000
  1  -1025.0242424639  -0.217622005903 0.16166260  0.00132288  0.1170542 0.7000
                               ***Turning on DIIS***
  2  -1025.1093500060  -0.085107542095 0.27322106  0.00264212  0.0419635 0.0000
  3  -1025.2553160665  -0.145966060483 0.10436972  0.00071811  0.0609963 0.0000
  4  -1025.2786217317  -0.023305665252 0.02663266  0.00023307  0.0176699 0.0000
  5  -1025.2807307650  -0.002109033239 0.01196024  0.00010485  0.0049966 0.0000
                      *** Initiating the SOSCF procedure ***
                           *** Shutting down DIIS ***
                      *** Re-Reading the Fockian *** 
                      *** Removing any level shift *** 
ITER      Energy       Delta-E        Grad      Rot      Max-DP    RMS-DP
  6  -1025.28082800  -0.0000972362  0.000671  0.000671  0.010887  0.000058
               *** Restarting incremental Fock matrix formation ***
  7  -1025.28086158  -0.0000335754  0.000554  0.004647  0.045811  0.000528
  8  -1025.28087060  -0.0000090214  0.000085  0.002001  0.017368  0.000196
  9  -1025.28087062  -0.0000000228  0.000147  0.000474  0.015518  0.000179
 10  -1025.28087223  -0.0000016126  0.000028  0.000194  0.011745  0.000077
 11  -1025.28087224  -0.0000000042  0.000029  0.000128  0.008971  0.000052
 12  -1025.28087232  -0.0000000805  0.000005  0.000034  0.015450  0.000085
 13  -1025.28087230   0.0000000181  0.000006  0.000013  0.018618  0.000062
                  ***Gradient check signals convergence***
              ***Rediagonalizing the Fockian in SOSCF/NRSCF***

               *****************************************************
               *                     SUCCESS                       *
               *           SCF CONVERGED AFTER  14 CYCLES          *
               *****************************************************

Old exchange energy                            =    -33.155368844 Eh
New exchange energy                            =    -33.155396993 Eh
Exchange energy change after final integration =     -0.000028149 Eh
Total energy after final integration           =  -1025.280900416 Eh
Final COS-X integration done in                =   167.345 sec

SMD CDS free energy correction energy :                 5.15812     Kcal/mol
Total Energy after SMD CDS correction =             -1025.272680424 Eh

----------------
TOTAL SCF ENERGY
----------------

Total Energy       :        -1025.27268042 Eh          -27899.08800 eV

Components:
Nuclear Repulsion  :         1595.34151399 Eh           43411.44959 eV
Electronic Energy  :        -2620.61419441 Eh          -71310.53759 eV
One Electron Energy:        -4561.80677066 Eh         -124133.07303 eV
Two Electron Energy:         1941.19257624 Eh           52822.53545 eV
Max COSX asymmetry :            0.00003527 Eh               0.00096 eV
CPCM Dielectric    :           -0.03935609 Eh              -1.07093 eV
SMD CDS (Gcds)     :            0.00821999 Eh               0.22368 eV

Virial components:
Potential Energy   :        -2044.96205454 Eh          -55646.24650 eV
Kinetic Energy     :         1019.68937411 Eh           27747.15851 eV
Virial Ratio       :            2.00547550


DFT components:
N(Alpha)           :       76.000109159591 electrons
N(Beta)            :       76.000109159591 electrons
N(Total)           :      152.000218319181 electrons
E(X)               :      -99.366617845176 Eh       
E(C)               :       -5.159415538887 Eh       
E(XC)              :     -104.526033384063 Eh       
DFET-embed. en.    :        0.000000000000 Eh       
CPCM Solvation Model Properties:
Surface-charge          :           -0.06542872
Charge-correction       :            0.00020092 Eh               0.00547 eV
Free-energy (cav+disp)  :            0.00821999 Eh               0.22368 eV

---------------
SCF CONVERGENCE
---------------

  Last Energy change         ...    3.2799e-08  Tolerance :   1.0000e-08
  Last MAX-Density change    ...    5.9952e-15  Tolerance :   1.0000e-07
  Last RMS-Density change    ...    1.8670e-17  Tolerance :   5.0000e-09
  Last Orbital Gradient      ...    1.5302e-06  Tolerance :   1.0000e-05
  Last Orbital Rotation      ...    1.4720e-05  Tolerance :   1.0000e-05

             **** THE GBW FILE WAS UPDATED (optpbed3-b2plyp-test-594.gbw) ****
             **** DENSITY optpbed3-b2plyp-test-594.scfp WAS UPDATED ****
             **** ENERGY FILE WAS UPDATED (optpbed3-b2plyp-test-594.en.tmp) ****
             **** THE GBW FILE WAS UPDATED (optpbed3-b2plyp-test-594.gbw) ****
             **** DENSITY optpbed3-b2plyp-test-594.scfp WAS UPDATED ****
----------------
ORBITAL ENERGIES
----------------

  NO   OCC          E(Eh)            E(eV) 
   0   2.0000     -19.252250      -523.8803 
   1   2.0000     -19.252240      -523.8801 
   2   2.0000     -19.232106      -523.3322 
   3   2.0000     -19.209610      -522.7201 
   4   2.0000     -14.636624      -398.2828 
   5   2.0000     -14.446971      -393.1221 
   6   2.0000     -10.345588      -281.5178 
   7   2.0000     -10.327020      -281.0125 
   8   2.0000     -10.310042      -280.5505 
   9   2.0000     -10.303691      -280.3777 
  10   2.0000     -10.286781      -279.9175 
  11   2.0000     -10.259338      -279.1708 
  12   2.0000     -10.257532      -279.1216 
  13   2.0000     -10.256195      -279.0852 
  14   2.0000     -10.255520      -279.0669 
  15   2.0000     -10.248300      -278.8704 
  16   2.0000     -10.247011      -278.8353 
  17   2.0000     -10.246994      -278.8349 
  18   2.0000     -10.245961      -278.8068 
  19   2.0000     -10.244194      -278.7587 
  20   2.0000     -10.243536      -278.7408 
  21   2.0000     -10.241683      -278.6904 
  22   2.0000      -1.286494       -35.0073 
  23   2.0000      -1.110806       -30.2266 
  24   2.0000      -1.106147       -30.0998 
  25   2.0000      -1.086647       -29.5692 
  26   2.0000      -1.015816       -27.6418 
  27   2.0000      -0.920949       -25.0603 
  28   2.0000      -0.914100       -24.8739 
  29   2.0000      -0.862479       -23.4692 
  30   2.0000      -0.832907       -22.6645 
  31   2.0000      -0.800900       -21.7936 
  32   2.0000      -0.798849       -21.7378 
  33   2.0000      -0.789607       -21.4863 
  34   2.0000      -0.748028       -20.3549 
  35   2.0000      -0.708031       -19.2665 
  36   2.0000      -0.676619       -18.4117 
  37   2.0000      -0.662160       -18.0183 
  38   2.0000      -0.652865       -17.7654 
  39   2.0000      -0.621291       -16.9062 
  40   2.0000      -0.608701       -16.5636 
  41   2.0000      -0.593887       -16.1605 
  42   2.0000      -0.586691       -15.9647 
  43   2.0000      -0.573732       -15.6120 
  44   2.0000      -0.570173       -15.5152 
  45   2.0000      -0.553336       -15.0570 
  46   2.0000      -0.537142       -14.6164 
  47   2.0000      -0.530379       -14.4323 
  48   2.0000      -0.507135       -13.7998 
  49   2.0000      -0.487399       -13.2628 
  50   2.0000      -0.484358       -13.1800 
  51   2.0000      -0.476585       -12.9685 
  52   2.0000      -0.475301       -12.9336 
  53   2.0000      -0.472839       -12.8666 
  54   2.0000      -0.458133       -12.4664 
  55   2.0000      -0.456654       -12.4262 
  56   2.0000      -0.451511       -12.2862 
  57   2.0000      -0.443914       -12.0795 
  58   2.0000      -0.438707       -11.9378 
  59   2.0000      -0.432069       -11.7572 
  60   2.0000      -0.423626       -11.5275 
  61   2.0000      -0.397252       -10.8098 
  62   2.0000      -0.387219       -10.5368 
  63   2.0000      -0.381387       -10.3781 
  64   2.0000      -0.374340       -10.1863 
  65   2.0000      -0.372283       -10.1303 
  66   2.0000      -0.347537        -9.4570 
  67   2.0000      -0.344994        -9.3878 
  68   2.0000      -0.327468        -8.9108 
  69   2.0000      -0.314093        -8.5469 
  70   2.0000      -0.308158        -8.3854 
  71   2.0000      -0.293078        -7.9751 
  72   2.0000      -0.290500        -7.9049 
  73   2.0000      -0.287875        -7.8335 
  74   2.0000      -0.285622        -7.7722 
  75   2.0000      -0.240882        -6.5547 
  76   0.0000      -0.121733        -3.3125 
  77   0.0000      -0.093204        -2.5362 
  78   0.0000      -0.045633        -1.2417 
  79   0.0000      -0.026776        -0.7286 
  80   0.0000      -0.021041        -0.5726 
  81   0.0000       0.005225         0.1422 
  82   0.0000       0.011900         0.3238 
  83   0.0000       0.012777         0.3477 
  84   0.0000       0.019373         0.5272 
  85   0.0000       0.025344         0.6896 
  86   0.0000       0.029647         0.8067 
  87   0.0000       0.033817         0.9202 
  88   0.0000       0.035946         0.9781 
  89   0.0000       0.040581         1.1043 
  90   0.0000       0.043486         1.1833 
  91   0.0000       0.044407         1.2084 
  92   0.0000       0.048087         1.3085 
  93   0.0000       0.050770         1.3815 
  94   0.0000       0.059941         1.6311 
  95   0.0000       0.061276         1.6674 
  96   0.0000       0.063519         1.7284 
  97   0.0000       0.067399         1.8340 
  98   0.0000       0.069051         1.8790 
  99   0.0000       0.080642         2.1944 
 100   0.0000       0.082848         2.2544 
 101   0.0000       0.084621         2.3027 
 102   0.0000       0.087111         2.3704 
 103   0.0000       0.088169         2.3992 
 104   0.0000       0.094814         2.5800 
 105   0.0000       0.096381         2.6227 
 106   0.0000       0.104094         2.8325 
 107   0.0000       0.107335         2.9207 
 108   0.0000       0.110268         3.0005 
 109   0.0000       0.112964         3.0739 
 110   0.0000       0.115783         3.1506 
 111   0.0000       0.117400         3.1946 
 112   0.0000       0.119342         3.2475 
 113   0.0000       0.119896         3.2625 
 114   0.0000       0.122548         3.3347 
 115   0.0000       0.126581         3.4445 
 116   0.0000       0.131022         3.5653 
 117   0.0000       0.132181         3.5968 
 118   0.0000       0.136345         3.7101 
 119   0.0000       0.139162         3.7868 
 120   0.0000       0.140834         3.8323 
 121   0.0000       0.142706         3.8832 
 122   0.0000       0.145643         3.9631 
 123   0.0000       0.145853         3.9689 
 124   0.0000       0.147843         4.0230 
 125   0.0000       0.149446         4.0666 
 126   0.0000       0.152739         4.1562 
 127   0.0000       0.156273         4.2524 
 128   0.0000       0.158016         4.2998 
 129   0.0000       0.159737         4.3467 
 130   0.0000       0.162710         4.4276 
 131   0.0000       0.165875         4.5137 
 132   0.0000       0.167800         4.5661 
 133   0.0000       0.168429         4.5832 
 134   0.0000       0.170654         4.6437 
 135   0.0000       0.173269         4.7149 
 136   0.0000       0.175411         4.7732 
 137   0.0000       0.176797         4.8109 
 138   0.0000       0.180198         4.9034 
 139   0.0000       0.184244         5.0135 
 140   0.0000       0.184601         5.0232 
 141   0.0000       0.186777         5.0825 
 142   0.0000       0.193245         5.2585 
 143   0.0000       0.195530         5.3207 
 144   0.0000       0.196798         5.3551 
[...]
   Time for building 10 sigma-vectors
   Data Preparation Phase         ...     0.01 sec
   Transformed RI Coulomb         ...     1.01 sec
   Transformed RI-exchange        ...   490.60 sec
   (ab|v) reading and digestion   ...   407.99 sec
   Final sigma-completion         ...     0.01 sec
   Done building sigma-vectors             Size of expansion space: 30
   Lowest Energy          :     0.115160034417
   Maximum Energy change  :     0.020118191226 (vector 7)
   Maximum residual norm  :     0.007999653366

                       ****Iteration    7****
              <<< Entering MO-section for Build Sigma(Double) >>>
   Forming the XC and CPCM contribution:
   Time for densities:            0.264
   Time for XC-Integration:      17.595
   Time for LR-CPCM terms:       11.293
   Time for Sigma-Completion:     0.201
   Time for building 10 sigma-vectors
   Data Preparation Phase         ...     0.01 sec
   Transformed RI Coulomb         ...     0.86 sec
   Transformed RI-exchange        ...   455.09 sec
   (ab|v) reading and digestion   ...   406.44 sec
   Final sigma-completion         ...     0.01 sec
   Done building sigma-vectors             Size of expansion space: 40
   Lowest Energy          :     0.115160025607
   Maximum Energy change  :     0.010586461428 (vector 8)
   Maximum residual norm  :     0.001319022656

                       ****Iteration    8****
              <<< Entering MO-section for Build Sigma(Double) >>>
   Forming the XC and CPCM contribution:
   Time for densities:            0.261
   Time for XC-Integration:      17.716
   Time for LR-CPCM terms:       11.350
   Time for Sigma-Completion:     0.191
   Time for building 10 sigma-vectors
   Data Preparation Phase         ...     0.01 sec
   Transformed RI Coulomb         ...     0.84 sec
   Transformed RI-exchange        ...   456.48 sec
   (ab|v) reading and digestion   ...   354.80 sec
   Final sigma-completion         ...     0.01 sec
   Done building sigma-vectors             Size of expansion space: 50
   Lowest Energy          :     0.115160024879
   Maximum Energy change  :     0.002145568700 (vector 8)
   Maximum residual norm  :     0.000194268292

                       ****Iteration    9****
              <<< Entering MO-section for Build Sigma(Double) >>>
   Forming the XC and CPCM contribution:
   Time for densities:            0.291
   Time for XC-Integration:      17.744
   Time for LR-CPCM terms:       11.306
   Time for Sigma-Completion:     0.190
   Time for building 10 sigma-vectors
   Data Preparation Phase         ...     0.01 sec
   Transformed RI Coulomb         ...     0.93 sec
   Transformed RI-exchange        ...   533.18 sec
   (ab|v) reading and digestion   ...   507.72 sec
   Final sigma-completion         ...     0.01 sec
   Done building sigma-vectors             Size of expansion space: 60
   Lowest Energy          :     0.115160024837
   Maximum Energy change  :     0.000227434187 (vector 8)
   Maximum residual norm  :     0.000013092160

                       ****Iteration   10****
              <<< Entering MO-section for Build Sigma(Double) >>>
   Forming the XC and CPCM contribution:
   Time for densities:            0.296
   Time for XC-Integration:      25.062
   Time for LR-CPCM terms:       12.721
   Time for Sigma-Completion:     0.367
   Time for building 10 sigma-vectors
   Data Preparation Phase         ...     0.01 sec
   Transformed RI Coulomb         ...     0.88 sec
   Transformed RI-exchange        ...   588.11 sec
   (ab|v) reading and digestion   ...   565.18 sec
   Final sigma-completion         ...     0.01 sec
   Done building sigma-vectors             Size of expansion space: 70
   Lowest Energy          :     0.115160024835
   Maximum Energy change  :     0.000017501715 (vector 8)
   Maximum residual norm  :     0.000001483665
   Rebuilding the expansion space

                       ****Iteration   11****
              <<< Entering MO-section for Build Sigma(Double) >>>
   Forming the XC and CPCM contribution:
   Time for densities:            0.573
   Time for XC-Integration:      47.716
   Time for LR-CPCM terms:       20.331
   Time for Sigma-Completion:     0.666
   Time for building 20 sigma-vectors
   Data Preparation Phase         ...     0.02 sec
   Transformed RI Coulomb         ...     2.10 sec
   Transformed RI-exchange        ...  1599.49 sec
   (ab|v) reading and digestion   ...  1170.52 sec
   Final sigma-completion         ...     0.02 sec
   Done building sigma-vectors             Size of expansion space: 20
   Lowest Energy          :     0.115160024821
   Maximum Energy change  :     0.000001937262 (vector 8)
   Maximum residual norm  :     0.000000290891

      *** CONVERGENCE OF RESIDUAL NORM REACHED ***

Storing the converged CI vectors               ... optpbed3-b2plyp-test-594_job2.cis1

                 *** DAVIDSON DONE ***

Total time for solving the CIS problem:  9279.270sec

------------------
DOUBLES CORRECTION (Double precision version)
------------------

The (D) correction will be scaled by  0.2700
Doing v(i,a)*T(i,a) terms (RI)                    ... ok
Doing u(i,j,a,b) terms for state   0              ... ok
Doing u(i,j,a,b) terms for state   1              ... ok
Doing u(i,j,a,b) terms for state   2              ... ok
Doing u(i,j,a,b) terms for state   3              ... ok
Doing u(i,j,a,b) terms for state   4              ... ok
Doing u(i,j,a,b) terms for state   5              ... ok
Doing u(i,j,a,b) terms for state   6              ... ok
Doing u(i,j,a,b) terms for state   7              ... ok
Doing u(i,j,a,b) terms for state   8              ... ok
Doing u(i,j,a,b) terms for state   9              ... ok

Contributions to the (D) correction(s) (in eV)

STATE  Final   Init.   Total   v(ext)   v(int)  v(3)    u
       omega   omega     (D)                             
-----------------------------------------------------------------------------
   0   2.661   3.134  -0.473   0.760   0.976  -0.039  -2.169
   1   3.153   3.863  -0.710   0.762   0.786  -0.028  -2.230
   2   3.532   4.115  -0.583   0.809   0.978  -0.050  -2.320
   3   3.510   4.164  -0.654   0.749   0.786  -0.029  -2.161
   4   3.748   4.291  -0.543   0.730   0.933  -0.044  -2.162
   5   3.911   4.481  -0.570   0.970   0.791  -0.039  -2.291
   6   3.906   4.535  -0.630   0.753   0.958  -0.036  -2.304
   7   4.198   4.698  -0.500   0.764   0.905  -0.031  -2.138
   8   4.616   5.050  -0.435   0.973   0.782  -0.036  -2.154
   9   4.730   5.398  -0.669   0.742   0.944  -0.053  -2.301

(D)-timings
 V(i,a)*T(i,a) terms           ...   909.893 sec
 U(i,j,a,b) 3-internal         ...    18.087 sec
 U(i,j,a,b) 3-external         ...   371.806 sec
 U(i,j,a,b) pair terms         ...   395.920 sec
 Total measured time           ...  3534.129 sec

 Time for (ab|v) I/O           ...    82.587 sec


------------------------------------
TD-DFT/TDA EXCITED STATES (SINGLETS)
------------------------------------

the weight of the individual excitations are printed if larger than 1.0e-02

STATE  1:  E=   0.097785 au      2.661 eV    21461.4 cm**-1 <S**2> =   0.000000
    73a ->  76a  :     0.036274 (c= -0.19045812)
    73a ->  77a  :     0.015191 (c=  0.12325328)
    75a ->  76a  :     0.900865 (c= -0.94913928)

STATE  2:  E=   0.115874 au      3.153 eV    25431.4 cm**-1 <S**2> =   0.000000
    69a ->  76a  :     0.048748 (c=  0.22078931)
    69a ->  77a  :     0.011344 (c= -0.10650714)
    69a ->  78a  :     0.024980 (c=  0.15804989)
    70a ->  76a  :     0.696426 (c=  0.83452134)
    70a ->  77a  :     0.059588 (c= -0.24410615)
    70a ->  78a  :     0.020596 (c= -0.14351371)
    71a ->  76a  :     0.051748 (c= -0.22748099)

STATE  3:  E=   0.129805 au      3.532 eV    28488.8 cm**-1 <S**2> =   0.000000
    69a ->  76a  :     0.013608 (c=  0.11665131)
    70a ->  76a  :     0.010013 (c= -0.10006401)
    71a ->  77a  :     0.012827 (c= -0.11325443)
    73a ->  76a  :     0.160336 (c=  0.40041977)
    75a ->  76a  :     0.014699 (c= -0.12124105)
    75a ->  77a  :     0.715721 (c= -0.84600284)

STATE  4:  E=   0.128991 au      3.510 eV    28310.2 cm**-1 <S**2> =   0.000000
    69a ->  76a  :     0.686865 (c=  0.82877296)
    69a ->  77a  :     0.084270 (c= -0.29029353)
    70a ->  76a  :     0.053715 (c= -0.23176567)
    70a ->  78a  :     0.045224 (c=  0.21265897)
    70a -> 100a  :     0.010283 (c= -0.10140547)
    75a ->  77a  :     0.019226 (c=  0.13865950)

STATE  5:  E=   0.137739 au      3.748 eV    30230.3 cm**-1 <S**2> =   0.000000
    73a ->  78a  :     0.041096 (c=  0.20272093)
    74a ->  76a  :     0.829467 (c= -0.91075076)
    74a ->  77a  :     0.076450 (c=  0.27649620)
    75a ->  78a  :     0.011919 (c=  0.10917376)

STATE  6:  E=   0.143709 au      3.911 eV    31540.4 cm**-1 <S**2> =   0.000000
    67a ->  76a  :     0.159601 (c= -0.39950050)
    67a ->  77a  :     0.607715 (c= -0.77956090)
    67a ->  82a  :     0.026820 (c= -0.16376921)
    68a ->  76a  :     0.017719 (c=  0.13311108)
    68a ->  77a  :     0.067014 (c=  0.25887004)
    73a ->  76a  :     0.029972 (c=  0.17312557)

STATE  7:  E=   0.143530 au      3.906 eV    31501.1 cm**-1 <S**2> =   0.000000
    67a ->  77a  :     0.017616 (c= -0.13272580)
    73a ->  76a  :     0.649173 (c= -0.80571243)
    73a ->  77a  :     0.048156 (c=  0.21944372)
    74a ->  78a  :     0.013541 (c= -0.11636505)
    75a ->  76a  :     0.031158 (c=  0.17651768)
    75a ->  77a  :     0.181034 (c= -0.42548080)

STATE  8:  E=   0.154268 au      4.198 eV    33858.0 cm**-1 <S**2> =   0.000000
    71a ->  80a  :     0.010902 (c= -0.10441445)
    72a ->  76a  :     0.501756 (c=  0.70834728)
    72a ->  77a  :     0.315366 (c=  0.56157452)
    75a ->  79a  :     0.038320 (c= -0.19575577)
    75a ->  80a  :     0.082779 (c= -0.28771267)

STATE  9:  E=   0.169617 au      4.616 eV    37226.6 cm**-1 <S**2> =   0.000000
    66a ->  76a  :     0.185890 (c=  0.43115000)
    66a ->  77a  :     0.698428 (c=  0.83571982)
    66a ->  82a  :     0.029333 (c=  0.17126912)

STATE 10:  E=   0.173806 au      4.730 eV    38146.0 cm**-1 <S**2> =   0.000000
    69a ->  76a  :     0.010627 (c= -0.10308606)
    70a ->  76a  :     0.032521 (c= -0.18033528)
    71a ->  76a  :     0.759032 (c= -0.87122427)
    72a ->  76a  :     0.041173 (c=  0.20291020)
    72a ->  77a  :     0.049908 (c= -0.22340052)
    74a ->  78a  :     0.017930 (c= -0.13390328)


-----------------------------
TD-DFT/TDA-EXCITATION SPECTRA
-----------------------------

Center of mass = ( -0.8271, -0.0366,  0.4220)
Calculating the Dipole integrals                  ... done
Transforming integrals                            ... done
Calculating the Linear Momentum integrals         ... done
Transforming integrals                            ... done
Calculating angular momentum integrals            ... done
Transforming integrals                            ... done

-----------------------------------------------------------------------------
         ABSORPTION SPECTRUM VIA TRANSITION ELECTRIC DIPOLE MOMENTS
-----------------------------------------------------------------------------
State   Energy    Wavelength  fosc         T2        TX        TY        TZ  
        (cm-1)      (nm)                 (au**2)    (au)      (au)      (au) 
-----------------------------------------------------------------------------
   1   21461.4    466.0   0.302559270   4.64118   2.05769  -0.14748   0.62076
   2   25431.4    393.2   0.003951672   0.05115   0.22544  -0.01047   0.01497
   3   28488.8    351.0   0.644680927   7.44983   2.72867  -0.03686   0.05296
   4   28310.2    353.2   0.010464366   0.12169  -0.34313   0.01094  -0.06187
   5   30230.3    330.8   0.080459575   0.87621  -0.89329  -0.12649   0.24951
   6   31540.4    317.1   0.018480465   0.19289   0.38423  -0.04131   0.20871
   7   31501.1    317.4   0.113632150   1.18755  -0.27896   0.17313  -1.03911
   8   33858.0    295.4   0.029904657   0.29077  -0.13122  -0.08191  -0.51657
   9   37226.6    268.6   0.001205684   0.01066  -0.06270  -0.07077   0.04150
  10   38146.0    262.2   0.227862997   1.96653   0.13545   0.21279  -1.37946

-----------------------------------------------------------------------------
         ABSORPTION SPECTRUM VIA TRANSITION VELOCITY DIPOLE MOMENTS
-----------------------------------------------------------------------------
State   Energy    Wavelength   fosc        P2         PX        PY        PZ  
        (cm-1)      (nm)                 (au**2)     (au)      (au)      (au) 
-----------------------------------------------------------------------------
   1   21461.4    466.0   0.261120696   0.03830  -0.19547  -0.00318   0.00899
   2   25431.4    393.2   0.003343208   0.00058  -0.02384   0.00352   0.00057
   3   28488.8    351.0   0.398975984   0.07768  -0.27870   0.00335  -0.00096
   4   28310.2    353.2   0.006427767   0.00124   0.03524   0.00121   0.00023
   5   30230.3    330.8   0.018829519   0.00389   0.06190   0.00471  -0.00606
   6   31540.4    317.1   0.009815389   0.00212  -0.04581   0.00078  -0.00405
   7   31501.1    317.4   0.006571346   0.00141   0.03502  -0.00159   0.01364
   8   33858.0    295.4   0.000679006   0.00016   0.00905   0.00109   0.00860
   9   37226.6    268.6   0.003620063   0.00092   0.00717   0.02891  -0.00583
  10   38146.0    262.2   0.015954294   0.00416  -0.01618  -0.01089   0.06147

-------------------------------------------------------------------
                             CD SPECTRUM
-------------------------------------------------------------------
State  Energy     Wavelength     R         MX        MY        MZ   
       (cm-1)       (nm)     (1e40*cgs)   (au)      (au)      (au)  
-------------------------------------------------------------------
   1   21461.4    466.0    -35.32118  -0.05126   0.20083   0.09695
   2   25431.4    393.2     -6.67499  -0.03533   0.04778  -0.38040
   3   28488.8    351.0    -35.20578  -0.03324  -0.45958  -0.01738
   4   28310.2    353.2      2.75879  -0.00522   0.08110  -0.05128
   5   30230.3    330.8      4.19685  -0.00352  -0.05643  -0.00552
   6   31540.4    317.1     45.91313   0.27963  -0.10778  -0.06950
   7   31501.1    317.4      0.75309   0.04728   0.34397   0.04308
   8   33858.0    295.4      9.81333  -0.02255   0.23940  -0.07253
   9   37226.6    268.6      5.24069   0.11038   0.11608   0.63262
  10   38146.0    262.2    -26.16890   0.02292  -0.07088   0.03156

-------------------------------------------------------------------
         CD SPECTRUM VIA TRANSITION VELOCITY DIPOLE MOMENTS        
-------------------------------------------------------------------
State  Energy     Wavelength     R         MX        MY        MZ   
       (cm-1)       (nm)     (1e40*cgs)   (au)      (au)      (au)  
-------------------------------------------------------------------
   1   21461.4    466.0     49.43713  -0.05126   0.20083   0.09695
   2   25431.4    393.2      3.22618  -0.03533   0.04778  -0.38040
   3   28488.8    351.0     28.12065  -0.03324  -0.45958  -0.01738
   4   28310.2    353.2     -0.35711  -0.00522   0.08110  -0.05128
   5   30230.3    330.8     -1.53967  -0.00352  -0.05643  -0.00552
   6   31540.4    317.1    -41.37829   0.27963  -0.10778  -0.06950
   7   31501.1    317.4      5.57508   0.04728   0.34397   0.04308
   8   33858.0    295.4     -1.73064  -0.02255   0.23940  -0.07253
   9   37226.6    268.6      1.26899   0.11038   0.11608   0.63262
  10   38146.0    262.2      6.34971   0.02292  -0.07088   0.03156

Total run time:    12822.435 sec

           *** ORCA-CIS/TD-DFT FINISHED WITHOUT ERROR ***

Maximum memory used throughout the entire CIS-calculation: 1580.5 MB

-----------------------
CIS/TD-DFT TOTAL ENERGY
-----------------------

    E(SCF)  =  -1024.384771226 Eh
    DE(CIS) =      0.097785161 Eh (Root  1)
    ----------------------------- ---------
    E(tot)  =  -1024.286986065 Eh



-------------------------------------------------------------------------------
                          DFT DISPERSION CORRECTION                            
                                                                               
                              DFTD3 V3.1  Rev 1                                
                          USING Becke-Johnson damping                          
-------------------------------------------------------------------------------
The B2PLYP functional is recognized
Active option DFTDOPT                   ...         4   

molecular C6(AA) [au] = 14293.041327 


            DFT-D V3
 parameters
 s6 scaling factor         :     0.6400 
 a1 scaling factor         :     0.3065 
 s8 scaling factor         :     0.9147 
 a2 scaling factor         :     5.0570 
 ad hoc parameters k1-k3   :    16.0000     1.3333    -4.0000 

 Edisp/kcal,au: -22.008499571560  -0.035072772816 
 E6   /kcal   : -12.244538373 
 E8   /kcal   :  -9.763961199 
 % E8         :  44.364501846 

-------------------------   ----------------
Dispersion correction           -0.035072773
-------------------------   ----------------


-------------------------   --------------------
FINAL SINGLE POINT ENERGY     -1024.322058837695
-------------------------   --------------------


                            ***************************************
                            *     ORCA property calculations      *
                            ***************************************


  WARNING: The energy has been calculated at the MP2 level but the densities
           used in the property calculations are still SCF densities
           MP2 response densities have not been calculated 
           use %mp2 Density relaxed end
           or  %mp2 Density unrelaxed end

                                    ---------------------
                                    Active property flags
                                    ---------------------
   (+) Dipole Moment


------------------------------------------------------------------------------
                       ORCA ELECTRIC PROPERTIES CALCULATION
------------------------------------------------------------------------------

Dipole Moment Calculation                       ... on
Quadrupole Moment Calculation                   ... off
Polarizability Calculation                      ... off
GBWName                                         ... optpbed3-b2plyp-test-594_job2.gbw
Electron density                                ... optpbed3-b2plyp-test-594_job2.scfp
The origin for moment calculation is the CENTER OF MASS  = (-0.827084, -0.036597  0.422003)

-------------
DIPOLE MOMENT
-------------
                                X             Y             Z
Electronic contribution:     -7.08665      -0.17637      -0.12095
Nuclear contribution   :     10.41566       0.53942      -1.80915
                        -----------------------------------------
Total Dipole Moment    :      3.32901       0.36306      -1.93010
                        -----------------------------------------
Magnitude (a.u.)       :      3.86515
Magnitude (Debye)      :      9.82442



--------------------
Rotational spectrum 
--------------------
 
Rotational constants in cm-1:     0.031345     0.003711     0.003341 
Rotational constants in MHz :   939.690632   111.247169   100.148985 

 Dipole components along the rotational axes: 
x,y,z [a.u.] :    -3.299484    -2.001939     0.212151 
x,y,z [Debye]:    -8.386623    -5.088523     0.539246 

 

Timings for individual modules:

Sum of individual times         ...    15527.936 sec (= 258.799 min)
GTO integral calculation        ...        6.840 sec (=   0.114 min)   0.0 %
SCF iterations                  ...     1153.291 sec (=  19.222 min)   7.4 %
MP2 module                      ...     1542.920 sec (=  25.715 min)   9.9 %
CIS module                      ...    12824.886 sec (= 213.748 min)  82.6 %



                             ****ORCA TERMINATED NORMALLY****
TOTAL RUN TIME: 0 days 8 hours 15 minutes 33 seconds 477 msec
