
                                 *****************
                                 * O   R   C   A *
                                 *****************

                                            #,                                       
                                            ###                                      
                                            ####                                     
                                            #####                                    
                                            ######                                   
                                           ########,                                 
                                     ,,################,,,,,                         
                               ,,#################################,,                 
                          ,,##########################################,,             
                       ,#########################################, ''#####,          
                    ,#############################################,,   '####,        
                  ,##################################################,,,,####,       
                ,###########''''           ''''###############################       
              ,#####''   ,,,,##########,,,,          '''####'''          '####       
            ,##' ,,,,###########################,,,                        '##       
           ' ,,###''''                  '''############,,,                           
         ,,##''                                '''############,,,,        ,,,,,,###''
      ,#''                                            '''#######################'''  
     '                                                          ''''####''''         
             ,#######,   #######,   ,#######,      ##                                
            ,#'     '#,  ##    ##  ,#'     '#,    #''#        ######   ,####,        
            ##       ##  ##   ,#'  ##            #'  '#       #        #'  '#        
            ##       ##  #######   ##           ,######,      #####,   #    #        
            '#,     ,#'  ##    ##  '#,     ,#' ,#      #,         ##   #,  ,#        
             '#######'   ##     ##  '#######'  #'      '#     #####' # '####'        



                  #######################################################
                  #                        -***-                        #
                  #          Department of theory and spectroscopy      #
                  #    Directorship and core code : Frank Neese         #
                  #        Max Planck Institute fuer Kohlenforschung    #
                  #                Kaiser Wilhelm Platz 1               #
                  #                 D-45470 Muelheim/Ruhr               #
                  #                      Germany                        #
                  #                                                     #
                  #                  All rights reserved                #
                  #                        -***-                        #
                  #######################################################


                         Program Version 5.0.2 -  RELEASE  -


 With contributions from (in alphabetic order):
   Daniel Aravena         : Magnetic Suceptibility
   Michael Atanasov       : Ab Initio Ligand Field Theory (pilot matlab implementation)
   Alexander A. Auer      : GIAO ZORA, VPT2 properties, NMR spectrum
   Ute Becker             : Parallelization
   Giovanni Bistoni       : ED, misc. LED, open-shell LED, HFLD
   Martin Brehm           : Molecular dynamics
   Dmytro Bykov           : SCF Hessian
   Vijay G. Chilkuri      : MRCI spin determinant printing, contributions to CSF-ICE
   Dipayan Datta          : RHF DLPNO-CCSD density
   Achintya Kumar Dutta   : EOM-CC, STEOM-CC
   Dmitry Ganyushin       : Spin-Orbit,Spin-Spin,Magnetic field MRCI
   Miquel Garcia          : C-PCM and meta-GGA Hessian, CC/C-PCM, Gaussian charge scheme
   Yang Guo               : DLPNO-NEVPT2, F12-NEVPT2, CIM, IAO-localization
   Andreas Hansen         : Spin unrestricted coupled pair/coupled cluster methods
   Benjamin Helmich-Paris : MC-RPA, TRAH-SCF, COSX integrals
   Lee Huntington         : MR-EOM, pCC
   Robert Izsak           : Overlap fitted RIJCOSX, COSX-SCS-MP3, EOM
   Marcus Kettner         : VPT2
   Christian Kollmar      : KDIIS, OOCD, Brueckner-CCSD(T), CCSD density, CASPT2, CASPT2-K
   Simone Kossmann        : Meta GGA functionals, TD-DFT gradient, OOMP2, MP2 Hessian
   Martin Krupicka        : Initial AUTO-CI
   Lucas Lang             : DCDCAS
   Marvin Lechner         : AUTO-CI (C++ implementation), FIC-MRCC
   Dagmar Lenk            : GEPOL surface, SMD
   Dimitrios Liakos       : Extrapolation schemes; Compound Job, initial MDCI parallelization
   Dimitrios Manganas     : Further ROCIS development; embedding schemes
   Dimitrios Pantazis     : SARC Basis sets
   Anastasios Papadopoulos: AUTO-CI, single reference methods and gradients
   Taras Petrenko         : DFT Hessian,TD-DFT gradient, ASA, ECA, R-Raman, ABS, FL, XAS/XES, NRVS
   Peter Pinski           : DLPNO-MP2, DLPNO-MP2 Gradient
   Christoph Reimann      : Effective Core Potentials
   Marius Retegan         : Local ZFS, SOC
   Christoph Riplinger    : Optimizer, TS searches, QM/MM, DLPNO-CCSD(T), (RO)-DLPNO pert. Triples
   Tobias Risthaus        : Range-separated hybrids, TD-DFT gradient, RPA, STAB
   Michael Roemelt        : Original ROCIS implementation
   Masaaki Saitow         : Open-shell DLPNO-CCSD energy and density
   Barbara Sandhoefer     : DKH picture change effects
   Avijit Sen             : IP-ROCIS
   Kantharuban Sivalingam : CASSCF convergence, NEVPT2, FIC-MRCI
   Bernardo de Souza      : ESD, SOC TD-DFT
   Georgi Stoychev        : AutoAux, RI-MP2 NMR, DLPNO-MP2 response
   Willem Van den Heuvel  : Paramagnetic NMR
   Boris Wezisla          : Elementary symmetry handling
   Frank Wennmohs         : Technical directorship


 We gratefully acknowledge several colleagues who have allowed us to
 interface, adapt or use parts of their codes:
   Stefan Grimme, W. Hujo, H. Kruse, P. Pracht,  : VdW corrections, initial TS optimization,
                  C. Bannwarth, S. Ehlert          DFT functionals, gCP, sTDA/sTD-DF
   Ed Valeev, F. Pavosevic, A. Kumar             : LibInt (2-el integral package), F12 methods
   Garnet Chan, S. Sharma, J. Yang, R. Olivares  : DMRG
   Ulf Ekstrom                                   : XCFun DFT Library
   Mihaly Kallay                                 : mrcc  (arbitrary order and MRCC methods)
   Jiri Pittner, Ondrej Demel                    : Mk-CCSD
   Frank Weinhold                                : gennbo (NPA and NBO analysis)
   Christopher J. Cramer and Donald G. Truhlar   : smd solvation model
   Lars Goerigk                                  : TD-DFT with DH, B97 family of functionals
   V. Asgeirsson, H. Jonsson                     : NEB implementation
   FAccTs GmbH                                   : IRC, NEB, NEB-TS, DLPNO-Multilevel, CI-OPT
                                                   MM, QMMM, 2- and 3-layer-ONIOM, Crystal-QMMM,
                                                   LR-CPCM, SF, NACMEs, symmetry and pop. for TD-DFT,
                                                   nearIR, NL-DFT gradient (VV10), updates on ESD,
                                                   ML-optimized integration grids
   S Lehtola, MJT Oliveira, MAL Marques          : LibXC Library
   Liviu Ungur et al                             : ANISO software


 Your calculation uses the libint2 library for the computation of 2-el integrals
 For citations please refer to: http://libint.valeyev.net

 Your ORCA version has been built with support for libXC version: 5.1.0
 For citations please refer to: https://tddft.org/programs/libxc/

 This ORCA versions uses:
   CBLAS   interface :  Fast vector & matrix operations
   LAPACKE interface :  Fast linear algebra routines
   SCALAPACK package :  Parallel linear algebra routines
   Shared memory     :  Shared parallel matrices
   BLAS/LAPACK       :  OpenBLAS 0.3.15  USE64BITINT DYNAMIC_ARCH NO_AFFINITY Haswell SINGLE_THREADED
        Core in use  :  Haswell
   Copyright (c) 2011-2014, The OpenBLAS Project


Your calculation utilizes the atom-pairwise dispersion correction
with the Becke-Johnson damping scheme (D3BJ)
Cite in your paper:
S.Grimme, S.Ehrlich, L.Goerigk, J Comput Chem, (2011), 32, 1456–1465 
S.Grimme, J.Antony, S.Ehrlich and H.Krieg, J.Chem.Phys., 132, (2010), 154104 
   

Your calculation utilizes the SMD solvation module
Please cite in your paper:
A.V. Marenich, C.J. Cramer, D.G. Truhlar J. Phys. Chem. B, 113, (2009), 6378 

================================================================================

----- Orbital basis set information -----
Your calculation utilizes the basis: aug-cc-pVTZ 
    H, B-Ne : Obtained from the ccRepo (grant-hill.group.shef.ac.uk/ccrepo) Feb. 2017
              R. A. Kendall, T. H. Dunning, Jr., R. J. Harrison, J. Chem. Phys. 96, 6796 (1992)
         He : Obtained from the ccRepo (grant-hill.group.shef.ac.uk/ccrepo) Feb. 2017
              D. E. Woon, T. H. Dunning, Jr., J. Chem. Phys. 100, 2975 (1994)
  Li-Be, Na : Obtained from the ccRepo (grant-hill.group.shef.ac.uk/ccrepo) Feb. 2017
              B. P. Prascher, D. E. Woon, K. A. Peterson, T. H. Dunning, Jr., A. K. Wilson, Theor. Chem. Acc. 128, 69 (2011)
         Mg : Obtained from the Peterson Research Group Website (tyr0.chem.wsu.edu/~kipeters) Feb. 2017
              B. P. Prascher, D. E. Woon, K. A. Peterson, T. H. Dunning, Jr., A. K. Wilson, Theor. Chem. Acc. 128, 69 (2011)
      Al-Ar : Obtained from the ccRepo (grant-hill.group.shef.ac.uk/ccrepo) Feb. 2017
              D. E. Woon, T. H. Dunning, Jr., J. Chem. Phys. 98, 1358 (1993)
      Sc-Zn : Obtained from the ccRepo (grant-hill.group.shef.ac.uk/ccrepo) Feb. 2017
              N. B. Balabanov, K. A. Peterson, J. Chem. Phys. 123, 064107 (2005)
              N. B. Balabanov, K. A. Peterson, J. Chem. Phys. 125, 074110 (2006)
      Ga-Kr : Obtained from the ccRepo (grant-hill.group.shef.ac.uk/ccrepo) Feb. 2017
              A. K. Wilson, D. E. Woon, K. A. Peterson, T. H. Dunning, Jr., J. Chem. Phys. 110, 7667 (1999)
     Ag, Au : Obtained from the Peterson Research Group Website (tyr0.chem.wsu.edu/~kipeters) Feb. 2017
              K. A. Peterson, C. Puzzarini, Theor. Chem. Acc. 114, 283 (2005)

The basis set includes element-specific modifications.

Your calculation utilizes the basis: cc-pVTZ 
       H, B-Ne : Obtained from the ccRepo (grant-hill.group.shef.ac.uk/ccrepo) Feb. 2017
                 T. H. Dunning, Jr., J. Chem. Phys. 90, 1007 (1989)
            He : Obtained from the ccRepo (grant-hill.group.shef.ac.uk/ccrepo) Feb. 2017
                 D. E. Woon, T. H. Dunning, Jr., J. Chem. Phys. 100, 2975 (1994)
  Li-Be, Na-Mg : Obtained from the ccRepo (grant-hill.group.shef.ac.uk/ccrepo) Feb. 2017
                 B. P. Prascher, D. E. Woon, K. A. Peterson, T. H. Dunning, Jr., A. K. Wilson, Theor. Chem. Acc. 128, 69 (2011)
         Al-Ar : Obtained from the ccRepo (grant-hill.group.shef.ac.uk/ccrepo) Feb. 2017
                 D. E. Woon, T. H. Dunning, Jr., J. Chem. Phys. 98, 1358 (1993)
            Ca : Obtained from the Peterson Research Group Website (tyr0.chem.wsu.edu/~kipeters) Feb. 2017
                 J. Koput, K. A. Peterson, J. Phys. Chem. 106, 9595 (2002)
         Sc-Zn : Obtained from the ccRepo (grant-hill.group.shef.ac.uk/ccrepo) Feb. 2017
                 N. B. Balabanov, K. A. Peterson, J. Chem. Phys. 123, 064107 (2005)
                 N. B. Balabanov, K. A. Peterson, J. Chem. Phys. 125, 074110 (2006)
         Ga-Kr : Obtained from the ccRepo (grant-hill.group.shef.ac.uk/ccrepo) Feb. 2017
                 A. K. Wilson, D. E. Woon, K. A. Peterson, T. H. Dunning, Jr., J. Chem. Phys. 110, 7667 (1999)
             Y : Obtained from the ccRepo (grant-hill.group.shef.ac.uk/ccrepo) Feb. 2017
                 K. A. Peterson, D. Figgen, M. Dolg, H. Stoll, J. Chem. Phys. 126, 124101 (2007)
        Ag, Au : Obtained from the Peterson Research Group Website (tyr0.chem.wsu.edu/~kipeters) Feb. 2017
                 K. A. Peterson, C. Puzzarini, Theor. Chem. Acc. 114, 283 (2005)

----- AuxJ basis set information -----
Your calculation utilizes the auxiliary basis: aug-cc-pVTZ/JK 
  H, B-F, Al-Cl, Ga-Br : Obtained from the TURBOMOLE 7.0 basis set library

The basis set includes element-specific modifications.

Your calculation utilizes the auxiliary basis: cc-pVTZ/JK 
  H, B-F, Al-Cl, Ga-Br : Obtained from the TURBOMOLE 7.0 basis set library

----- AuxC basis set information -----
Your calculation utilizes the auxiliary basis: aug-cc-pVTZ/C 
  H-He, B-F, Al-Ar, Ga-Kr : Obtained from the EMSL Basis Set Exchange (bse.pnl.gov) Feb. 2017
                            F. Weigend, A. Kohn, C. Hattig, J. Chem. Phys. 116, 3175 (2002)
                   Be, Mg : Obtained from the TURBOMOLE 7.0 basis set library
                            C. Haettig, Phys. Chem. Chem. Phys. 7, 59 (2005)
                       Ne : Obtained from the EMSL Basis Set Exchange (bse.pnl.gov) Feb. 2017
                            C. Haettig, Phys. Chem. Chem. Phys. 7, 59 (2005)
                            F. Weigend, A. Kohn, C. Hattig, J. Chem. Phys. 116, 3175 (2002)
                    Sc-Zn : Obtained from the EMSL Basis Set Exchange (bse.pnl.gov) Feb. 2017
                            J. G. Hill, J. A. Platts, J. Chem. Phys. 128, 044104 (2008)

The basis set includes element-specific modifications.

Your calculation utilizes the auxiliary basis: cc-pVTZ/C 
  Obtained from the EMSL Basis Set Exchange (bse.pnl.gov) Feb. 2017
  H-He, B-F, Al-Ar, Ga-Kr : F. Weigend, A. Kohn, C. Hattig, J. Chem. Phys. 116, 3175 (2002)
             Li-Be, Na-Mg : C. Haettig, Phys. Chem. Chem. Phys. 7, 59 (2005)
                       Ne : C. Haettig, Phys. Chem. Chem. Phys. 7, 59 (2005)
                            F. Weigend, A. Kohn, C. Hattig, J. Chem. Phys. 116, 3175 (2002)
                    Sc-Zn : J. G. Hill, J. A. Platts, J. Chem. Phys. 128, 044104 (2008)

================================================================================
                                        WARNINGS
                       Please study these warnings very carefully!
================================================================================


WARNING: Geometry Optimization
  ===> : Switching off AutoStart
         For restart on a previous wavefunction, please use MOREAD

INFO   : the flag for use of the SHARK integral package has been found!



***************************************
The coordinates will be read from file: 
***************************************


Your calculation utilizes the atom-pairwise dispersion correction
with the Becke-Johnson damping scheme (D3BJ)
Cite in your paper:
S.Grimme, S.Ehrlich, L.Goerigk, J Comput Chem, (2011), 32, 1456–1465 
S.Grimme, J.Antony, S.Ehrlich and H.Krieg, J.Chem.Phys., 132, (2010), 154104 
   

Your calculation utilizes the SMD solvation module
Please cite in your paper:
A.V. Marenich, C.J. Cramer, D.G. Truhlar J. Phys. Chem. B, 113, (2009), 6378 

================================================================================

----- Orbital basis set information -----
Your calculation utilizes the basis: aug-cc-pVTZ 
    H, B-Ne : Obtained from the ccRepo (grant-hill.group.shef.ac.uk/ccrepo) Feb. 2017
              R. A. Kendall, T. H. Dunning, Jr., R. J. Harrison, J. Chem. Phys. 96, 6796 (1992)
         He : Obtained from the ccRepo (grant-hill.group.shef.ac.uk/ccrepo) Feb. 2017
              D. E. Woon, T. H. Dunning, Jr., J. Chem. Phys. 100, 2975 (1994)
  Li-Be, Na : Obtained from the ccRepo (grant-hill.group.shef.ac.uk/ccrepo) Feb. 2017
              B. P. Prascher, D. E. Woon, K. A. Peterson, T. H. Dunning, Jr., A. K. Wilson, Theor. Chem. Acc. 128, 69 (2011)
         Mg : Obtained from the Peterson Research Group Website (tyr0.chem.wsu.edu/~kipeters) Feb. 2017
              B. P. Prascher, D. E. Woon, K. A. Peterson, T. H. Dunning, Jr., A. K. Wilson, Theor. Chem. Acc. 128, 69 (2011)
      Al-Ar : Obtained from the ccRepo (grant-hill.group.shef.ac.uk/ccrepo) Feb. 2017
              D. E. Woon, T. H. Dunning, Jr., J. Chem. Phys. 98, 1358 (1993)
      Sc-Zn : Obtained from the ccRepo (grant-hill.group.shef.ac.uk/ccrepo) Feb. 2017
              N. B. Balabanov, K. A. Peterson, J. Chem. Phys. 123, 064107 (2005)
              N. B. Balabanov, K. A. Peterson, J. Chem. Phys. 125, 074110 (2006)
      Ga-Kr : Obtained from the ccRepo (grant-hill.group.shef.ac.uk/ccrepo) Feb. 2017
              A. K. Wilson, D. E. Woon, K. A. Peterson, T. H. Dunning, Jr., J. Chem. Phys. 110, 7667 (1999)
     Ag, Au : Obtained from the Peterson Research Group Website (tyr0.chem.wsu.edu/~kipeters) Feb. 2017
              K. A. Peterson, C. Puzzarini, Theor. Chem. Acc. 114, 283 (2005)

The basis set includes element-specific modifications.

Your calculation utilizes the basis: cc-pVTZ 
       H, B-Ne : Obtained from the ccRepo (grant-hill.group.shef.ac.uk/ccrepo) Feb. 2017
                 T. H. Dunning, Jr., J. Chem. Phys. 90, 1007 (1989)
            He : Obtained from the ccRepo (grant-hill.group.shef.ac.uk/ccrepo) Feb. 2017
                 D. E. Woon, T. H. Dunning, Jr., J. Chem. Phys. 100, 2975 (1994)
  Li-Be, Na-Mg : Obtained from the ccRepo (grant-hill.group.shef.ac.uk/ccrepo) Feb. 2017
                 B. P. Prascher, D. E. Woon, K. A. Peterson, T. H. Dunning, Jr., A. K. Wilson, Theor. Chem. Acc. 128, 69 (2011)
         Al-Ar : Obtained from the ccRepo (grant-hill.group.shef.ac.uk/ccrepo) Feb. 2017
                 D. E. Woon, T. H. Dunning, Jr., J. Chem. Phys. 98, 1358 (1993)
            Ca : Obtained from the Peterson Research Group Website (tyr0.chem.wsu.edu/~kipeters) Feb. 2017
                 J. Koput, K. A. Peterson, J. Phys. Chem. 106, 9595 (2002)
         Sc-Zn : Obtained from the ccRepo (grant-hill.group.shef.ac.uk/ccrepo) Feb. 2017
                 N. B. Balabanov, K. A. Peterson, J. Chem. Phys. 123, 064107 (2005)
                 N. B. Balabanov, K. A. Peterson, J. Chem. Phys. 125, 074110 (2006)
         Ga-Kr : Obtained from the ccRepo (grant-hill.group.shef.ac.uk/ccrepo) Feb. 2017
                 A. K. Wilson, D. E. Woon, K. A. Peterson, T. H. Dunning, Jr., J. Chem. Phys. 110, 7667 (1999)
             Y : Obtained from the ccRepo (grant-hill.group.shef.ac.uk/ccrepo) Feb. 2017
                 K. A. Peterson, D. Figgen, M. Dolg, H. Stoll, J. Chem. Phys. 126, 124101 (2007)
        Ag, Au : Obtained from the Peterson Research Group Website (tyr0.chem.wsu.edu/~kipeters) Feb. 2017
                 K. A. Peterson, C. Puzzarini, Theor. Chem. Acc. 114, 283 (2005)

----- AuxJ basis set information -----
Your calculation utilizes the auxiliary basis: aug-cc-pVTZ/JK 
  H, B-F, Al-Cl, Ga-Br : Obtained from the TURBOMOLE 7.0 basis set library

The basis set includes element-specific modifications.

Your calculation utilizes the auxiliary basis: cc-pVTZ/JK 
  H, B-F, Al-Cl, Ga-Br : Obtained from the TURBOMOLE 7.0 basis set library

----- AuxC basis set information -----
Your calculation utilizes the auxiliary basis: aug-cc-pVTZ/C 
  H-He, B-F, Al-Ar, Ga-Kr : Obtained from the EMSL Basis Set Exchange (bse.pnl.gov) Feb. 2017
                            F. Weigend, A. Kohn, C. Hattig, J. Chem. Phys. 116, 3175 (2002)
                   Be, Mg : Obtained from the TURBOMOLE 7.0 basis set library
                            C. Haettig, Phys. Chem. Chem. Phys. 7, 59 (2005)
                       Ne : Obtained from the EMSL Basis Set Exchange (bse.pnl.gov) Feb. 2017
                            C. Haettig, Phys. Chem. Chem. Phys. 7, 59 (2005)
                            F. Weigend, A. Kohn, C. Hattig, J. Chem. Phys. 116, 3175 (2002)
                    Sc-Zn : Obtained from the EMSL Basis Set Exchange (bse.pnl.gov) Feb. 2017
                            J. G. Hill, J. A. Platts, J. Chem. Phys. 128, 044104 (2008)

The basis set includes element-specific modifications.

Your calculation utilizes the auxiliary basis: cc-pVTZ/C 
  Obtained from the EMSL Basis Set Exchange (bse.pnl.gov) Feb. 2017
  H-He, B-F, Al-Ar, Ga-Kr : F. Weigend, A. Kohn, C. Hattig, J. Chem. Phys. 116, 3175 (2002)
             Li-Be, Na-Mg : C. Haettig, Phys. Chem. Chem. Phys. 7, 59 (2005)
                       Ne : C. Haettig, Phys. Chem. Chem. Phys. 7, 59 (2005)
                            F. Weigend, A. Kohn, C. Hattig, J. Chem. Phys. 116, 3175 (2002)
                    Sc-Zn : J. G. Hill, J. A. Platts, J. Chem. Phys. 128, 044104 (2008)

================================================================================
                                        WARNINGS
                       Please study these warnings very carefully!
================================================================================

INFO   : Checking CIS options ...
  ===> : (D) CORRECTION FOUND - SETTING MODE=3
  ===> : JK MODE FOUND - ACTIVATING RI-MP2 CODE
  ===> : MP2 AND CIS FOUND - CHECKING
WARNING: CIS(D) and MP2 runs must have the same orbital window
  ===> : adjusting orbital windows

WARNING: No MP2 level density has been requested!
         To caclulate MP2 level properties use
         %mp2 Density relaxed end
         or
         %mp2 Density unrelaxed end
         Otherwise for double-hybrid DFT only the energy is correct!

WARNING: The frozen-core approximation is turned on by default for 
         the MP2 part of double-hybrid DFT.

INFO   : the flag for use of the SHARK integral package has been found!

================================================================================
                                       INPUT FILE
================================================================================
NAME = optpbed3-b2plyp-test-306.inp
|  1> ! pbe0 d3bj aug-cc-PVTZ RIJCOSX Opt
|  2> %maxcore 4000
|  3> %basis
|  4>  AuxJ "aug-cc-PVTZ/JK"
|  5>  AuxC "aug-cc-PVTZ/C"
|  6>  newGTO H "cc-PVTZ" end
|  7>  newAuxJGTO H "cc-PVTZ/JK" end
|  8>  newAuxCGTO H "cc-PVTZ/C" end
|  9> end
| 10> %cpcm
| 11>  SMD true
| 12>  SMDsolvent "acetonitrile"
| 13> end
| 14> %pal nprocs 4 end
| 15> * xyz 0 1
| 16> C          7.32110       -0.79330       -0.76530
| 17> O          6.53290       -0.59320        0.38580
| 18> C          5.19240       -0.47860        0.24940
| 19> C          4.49900       -0.54180       -0.95890
| 20> C          3.12660       -0.41040       -0.97350
| 21> C          2.40620       -0.21280        0.20560
| 22> C          0.97160       -0.07990        0.12650
| 23> N          0.28130       -0.14870       -0.99610
| 24> C         -1.01390        0.02200       -0.65730
| 25> C         -1.12620        0.21230        0.72510
| 26> N          0.14970        0.13180        1.20180
| 27> C         -2.36470        0.41480        1.38690
| 28> C         -2.67950        0.28160        2.68860
| 29> C         -4.08880        0.38000        3.01770
| 30> O         -4.61130        0.29960        4.09380
| 31> S         -5.01880        0.60670        1.49650
| 32> C         -3.50740        0.78320        0.46790
| 33> C         -3.38690        2.25620        0.06630
| 34> C         -3.48780       -0.13480       -0.76930
| 35> C         -3.68170       -1.60230       -0.37790
| 36> S         -4.77080        0.28510       -2.01380
| 37> C         -3.58940        0.35200       -3.36980
| 38> O         -3.92310        0.51810       -4.50810
| 39> C         -2.25090        0.21400       -2.82180
| 40> C         -2.17370        0.03020       -1.49590
| 41> C          3.10660       -0.15120        1.41470
| 42> C          4.47480       -0.28210        1.43430
| 43> H          7.05780       -1.72560       -1.27390
| 44> H          7.22920        0.04350       -1.46410
| 45> H          8.34830       -0.85460       -0.41000
| 46> H          5.02130       -0.69290       -1.88990
| 47> H          2.58020       -0.45830       -1.90160
| 48> H          0.42990        0.23780        2.16210
| 49> H         -1.98310        0.06280        3.48060
| 50> H         -4.24020        2.53760       -0.54580
| 51> H         -3.37390        2.88390        0.95470
| 52> H         -2.47310        2.42500       -0.50100
| 53> H         -4.65340       -1.73070        0.09270
| 54> H         -2.90560       -1.92130        0.31580
| 55> H         -3.63780       -2.22960       -1.26520
| 56> H         -1.39930        0.30280       -3.47370
| 57> H          2.58740       -0.00190        2.35000
| 58> H          5.02510       -0.23660        2.36060
| 59> *
| 60> 
| 61> 
| 62> $new_job
| 63> ! b2plyp aug-cc-PVTZ RIJCOSX SP
| 64> %maxcore 4000
| 65> %basis
| 66>  AuxJ "aug-cc-PVTZ/JK"
| 67>  AuxC "aug-cc-PVTZ/C"
| 68>  newGTO H "cc-PVTZ" end
| 69>  newAuxJGTO H "cc-PVTZ/JK" end
| 70>  newAuxCGTO H "cc-PVTZ/C" end
| 71> end
| 72> %cpcm
| 73>  SMD true
| 74>  SMDsolvent "acetonitrile"
| 75> end
| 76> %pal nprocs 4 end
| 77> %tddft
| 78>  nroots 10
| 79>  maxdim 7
| 80> end
| 81> * xyzfile 0 1
| 82> 
| 83>                          ****END OF INPUT****
================================================================================


                 $$$$$$$$$$$$$$$$$$$$$$$$$$$$$$$$$$$$$$$$$$$$$$ 
                 $ THERE ARE  2 JOBS TO BE PROCESSED THIS RUN $
                 $$$$$$$$$$$$$$$$$$$$$$$$$$$$$$$$$$$$$$$$$$$$$$ 




                 $$$$$$$$$$$$$$$$  JOB NUMBER  1 $$$$$$$$$$$$$$


                       *****************************
                       * Geometry Optimization Run *
                       *****************************

Geometry optimization settings:
Update method            Update   .... BFGS
Choice of coordinates    CoordSys .... Z-matrix Internals
Initial Hessian          InHess   .... Almoef's Model

Convergence Tolerances:
Energy Change            TolE     ....  5.0000e-06 Eh
Max. Gradient            TolMAXG  ....  3.0000e-04 Eh/bohr
RMS Gradient             TolRMSG  ....  1.0000e-04 Eh/bohr
Max. Displacement        TolMAXD  ....  4.0000e-03 bohr
RMS Displacement         TolRMSD  ....  2.0000e-03 bohr
Strict Convergence                ....  False
------------------------------------------------------------------------------
                        ORCA OPTIMIZATION COORDINATE SETUP
------------------------------------------------------------------------------

The optimization will be done in new redundant internal coordinates
Making redundant internal coordinates   ...  (new redundants) done
Evaluating the initial hessian          ...  (Almloef) done
Evaluating the coordinates              ...  done
Calculating the B-matrix                .... done
Calculating the G-matrix                .... done
Diagonalizing the G-matrix              .... done
Small eigenvalue found = 3.019e-03
Small eigenvalue found = 1.039e-02
Small eigenvalue found = 1.567e-02
Small eigenvalue found = 2.610e-02
Small eigenvalue found = 2.997e-02
The first mode is                       ....  128
The number of degrees of freedom        ....  123

    -----------------------------------------------------------------
                    Redundant Internal Coordinates


    -----------------------------------------------------------------
         Definition                    Initial Value    Approx d2E/dq
    -----------------------------------------------------------------
      1. B(O   1,C   0)                  1.4094         0.521156   
      2. B(C   2,O   1)                  1.3523         0.642755   
      3. B(C   3,C   2)                  1.3946         0.614426   
      4. B(C   4,C   3)                  1.3788         0.651151   
      5. B(C   5,C   4)                  1.3958         0.611592   
      6. B(C   6,C   5)                  1.4429         0.514423   
      7. B(N   7,C   6)                  1.3197         0.724625   
      8. B(C   8,N   7)                  1.3496         0.649088   
      9. B(C   9,C   8)                  1.3999         0.602375   
     10. B(N  10,C   9)                  1.3644         0.614732   
     11. B(N  10,C   6)                  1.3699         0.602497   
     12. B(C  11,C   9)                  1.4188         0.562161   
     13. B(C  12,C  11)                  1.3458         0.734862   
     14. B(C  13,C  12)                  1.4506         0.500177   
     15. B(O  14,C  13)                  1.1989         1.129007   
     16. B(S  15,C  13)                  1.7973         0.377277   
     17. B(C  16,S  15)                  1.8367         0.326445   
     18. B(C  16,C  11)                  1.5120         0.399162   
     19. B(C  17,C  16)                  1.5315         0.371504   
     20. B(C  18,C  16)                  1.5407         0.359169   
     21. B(C  19,C  18)                  1.5311         0.372032   
     22. B(S  20,C  18)                  1.8361         0.327202   
     23. B(C  21,S  20)                  1.7997         0.373988   
     24. B(O  22,C  21)                  1.1978         1.133845   
     25. B(C  23,C  21)                  1.4529         0.495883   
     26. B(C  24,C  23)                  1.3408         0.748564   
     27. B(C  24,C  18)                  1.5106         0.401112   
     28. B(C  24,C   8)                  1.4312         0.536957   
     29. B(C  25,C   5)                  1.3987         0.605210   
     30. B(C  26,C  25)                  1.3746         0.661193   
     31. B(C  26,C   2)                  1.3991         0.604200   
     32. B(H  27,C   0)                  1.0942         0.354640   
     33. B(H  28,C   0)                  1.0941         0.354749   
     34. B(H  29,C   0)                  1.0886         0.361904   
     35. B(H  30,C   3)                  1.0781         0.376134   
     36. B(H  31,C   4)                  1.0781         0.376244   
     37. B(H  32,N  10)                  1.0059         0.439203   
     38. B(H  33,C  12)                  1.0771         0.377598   
     39. B(H  34,C  17)                  1.0872         0.363842   
     40. B(H  35,C  17)                  1.0879         0.362947   
     41. B(H  36,C  17)                  1.0887         0.361772   
     42. B(H  37,C  19)                  1.0873         0.363732   
     43. B(H  38,C  19)                  1.0887         0.361797   
     44. B(H  39,C  19)                  1.0875         0.363375   
     45. B(H  40,C  23)                  1.0761         0.378907   
     46. B(H  41,C  25)                  1.0801         0.373419   
     47. B(H  42,C  26)                  1.0784         0.375786   
     48. A(O   1,C   0,H  27)          111.4719         0.339780   
     49. A(O   1,C   0,H  28)          111.4752         0.339797   
     50. A(O   1,C   0,H  29)          105.6123         0.340933   
     51. A(H  27,C   0,H  28)          109.5479         0.289462   
     52. A(H  28,C   0,H  29)          109.3162         0.290384   
     53. A(H  27,C   0,H  29)          109.3167         0.290370   
     54. A(C   0,O   1,C   2)          118.9490         0.418001   
     55. A(O   1,C   2,C  26)          115.7790         0.432020   
     56. A(O   1,C   2,C   3)          125.2005         0.433325   
     57. A(C   3,C   2,C  26)          119.0205         0.431355   
     58. A(C   2,C   3,H  30)          120.9084         0.354980   
     59. A(C   2,C   3,C   4)          119.9857         0.437204   
     60. A(C   4,C   3,H  30)          119.1059         0.358498   
     61. A(C   5,C   4,H  31)          118.1602         0.354719   
     62. A(C   3,C   4,H  31)          120.6227         0.358516   
     63. A(C   3,C   4,C   5)          121.2171         0.436839   
     64. A(C   4,C   5,C   6)          118.6770         0.418769   
     65. A(C   4,C   5,C  25)          118.5569         0.431127   
     66. A(C   6,C   5,C  25)          122.7660         0.417988   
     67. A(C   5,C   6,N   7)          124.1881         0.428854   
     68. A(C   5,C   6,N  10)          124.5914         0.414949   
     69. A(N   7,C   6,N  10)          111.2204         0.438332   
     70. A(C   6,N   7,C   8)          106.3711         0.444271   
     71. A(N   7,C   8,C  24)          129.1468         0.423723   
     72. A(N   7,C   8,C   9)          110.0026         0.432547   
     73. A(C   9,C   8,C  24)          120.8504         0.420843   
     74. A(N  10,C   9,C  11)          131.4343         0.423079   
     75. A(C   8,C   9,C  11)          123.3701         0.424306   
     76. A(C   8,C   9,N  10)          105.1868         0.428344   
     77. A(C   6,N  10,C   9)          107.2128         0.425567   
     78. A(C   9,N  10,H  32)          125.9998         0.359057   
     79. A(C   6,N  10,H  32)          126.7625         0.357831   
     80. A(C   9,C  11,C  12)          129.8837         0.439738   
     81. A(C  12,C  11,C  16)          115.7994         0.413581   
     82. A(C   9,C  11,C  16)          114.2677         0.394485   
     83. A(C  11,C  12,H  33)          125.4559         0.366220   
     84. A(C  11,C  12,C  13)          116.1026         0.430585   
     85. A(C  13,C  12,H  33)          118.3674         0.343102   
     86. A(O  14,C  13,S  15)          122.8617         0.463860   
     87. A(C  12,C  13,S  15)          108.6178         0.403362   
     88. A(C  12,C  13,O  14)          128.4982         0.462354   
     89. A(C  13,S  15,C  16)           93.4580         0.394459   
     90. A(C  17,C  16,C  18)          111.1922         0.360578   
     91. A(S  15,C  16,C  18)          113.7606         0.371262   
     92. A(C  11,C  16,C  18)          109.4686         0.365028   
     93. A(S  15,C  16,C  17)          107.6993         0.373427   
     94. A(C  11,C  16,C  17)          109.5280         0.367146   
     95. A(C  11,C  16,S  15)          104.9577         0.378088   
     96. A(H  35,C  17,H  36)          109.0283         0.291412   
     97. A(H  34,C  17,H  36)          108.9815         0.291524   
     98. A(C  16,C  17,H  36)          110.5969         0.324269   
     99. A(H  34,C  17,H  35)          108.6518         0.291673   
    100. A(C  16,C  17,H  35)          109.9839         0.324442   
    101. A(C  16,C  17,H  34)          109.5620         0.324574   
    102. A(C  19,C  18,S  20)          107.6959         0.373668   
    103. A(C  16,C  18,S  20)          113.5238         0.371410   
    104. A(C  16,C  18,C  19)          111.3576         0.360666   
    105. A(S  20,C  18,C  24)          104.8841         0.378559   
    106. A(C  19,C  18,C  24)          109.7431         0.367543   
    107. A(C  16,C  18,C  24)          109.4039         0.365333   
    108. A(H  38,C  19,H  39)          108.7883         0.291469   
    109. A(C  18,C  19,H  39)          109.8260         0.324581   
    110. A(H  37,C  19,H  38)          109.0684         0.291514   
    111. A(C  18,C  19,H  38)          110.6974         0.324349   
    112. A(H  37,C  19,H  39)          108.7291         0.291713   
    113. A(C  18,C  19,H  37)          109.6947         0.324633   
    114. A(C  18,S  20,C  21)           93.4682         0.394014   
    115. A(O  22,C  21,C  23)          128.9233         0.461987   
    116. A(S  20,C  21,C  23)          108.4838         0.402128   
    117. A(S  20,C  21,O  22)          122.5690         0.463480   
    118. A(C  21,C  23,C  24)          116.0431         0.431348   
    119. A(C  24,C  23,H  40)          124.3877         0.367600   
    120. A(C  21,C  23,H  40)          119.5190         0.342805   
    121. A(C  18,C  24,C  23)          116.1376         0.415301   
    122. A(C   8,C  24,C  23)          128.8185         0.437570   
    123. A(C   8,C  24,C  18)          114.9905         0.391664   
    124. A(C   5,C  25,C  26)          120.4354         0.437219   
    125. A(C  26,C  25,H  41)          118.6379         0.358990   
    126. A(C   5,C  25,H  41)          120.9266         0.353637   
    127. A(C   2,C  26,C  25)          120.7843         0.437087   
    128. A(C  25,C  26,H  42)          121.0747         0.359376   
    129. A(C   2,C  26,H  42)          118.1410         0.353916   
    130. D(C   2,O   1,C   0,H  27)    -61.3527         0.021537   
    131. D(C   2,O   1,C   0,H  28)     61.4071         0.021537   
    132. D(C   2,O   1,C   0,H  29)   -179.9722         0.021537   
    133. D(C  26,C   2,O   1,C   0)    179.9805         0.030477   
    134. D(C   3,C   2,O   1,C   0)     -0.0076         0.030477   
    135. D(H  30,C   3,C   2,C  26)   -179.9569         0.026095   
    136. D(C   4,C   3,C   2,O   1)   -179.9710         0.026095   
    137. D(H  30,C   3,C   2,O   1)      0.0309         0.026095   
    138. D(C   4,C   3,C   2,C  26)      0.0413         0.026095   
    139. D(C   5,C   4,C   3,C   2)      0.0268         0.029529   
    140. D(H  31,C   4,C   3,H  30)      0.0405         0.029529   
    141. D(C   5,C   4,C   3,H  30)   -179.9750         0.029529   
    142. D(H  31,C   4,C   3,C   2)   -179.9577         0.029529   
    143. D(C   6,C   5,C   4,H  31)     -0.1255         0.025841   
    144. D(C   6,C   5,C   4,C   3)    179.8897         0.025841   
    145. D(C  25,C   5,C   4,H  31)    179.9119         0.025841   
    146. D(C  25,C   5,C   4,C   3)     -0.0729         0.025841   
    147. D(N  10,C   6,C   5,C   4)   -179.2337         0.018040   
    148. D(N   7,C   6,C   5,C  25)   -179.1923         0.018040   
    149. D(N   7,C   6,C   5,C   4)      0.8468         0.018040   
    150. D(N  10,C   6,C   5,C  25)      0.7271         0.018040   
    151. D(C   8,N   7,C   6,N  10)      0.0931         0.039592   
    152. D(C   8,N   7,C   6,C   5)   -179.9780         0.039592   
    153. D(C  24,C   8,N   7,C   6)   -179.7634         0.031130   
    154. D(C   9,C   8,N   7,C   6)      0.4134         0.031130   
    155. D(N  10,C   9,C   8,C  24)    179.4095         0.025025   
    156. D(N  10,C   9,C   8,N   7)     -0.7502         0.025025   
    157. D(C  11,C   9,C   8,N   7)   -179.7830         0.025025   
    158. D(C  11,C   9,C   8,C  24)      0.3768         0.025025   
    159. D(C   9,N  10,C   6,N   7)     -0.5691         0.029268   
    160. D(C   9,N  10,C   6,C   5)    179.5024         0.029268   
    161. D(H  32,N  10,C   9,C  11)     -2.0229         0.030560   
    162. D(H  32,N  10,C   9,C   8)    179.0545         0.030560   
    163. D(C   6,N  10,C   9,C  11)    179.6983         0.030560   
    164. D(C   6,N  10,C   9,C   8)      0.7758         0.030560   
    165. D(H  32,N  10,C   6,N   7)   -178.8309         0.029268   
    166. D(H  32,N  10,C   6,C   5)      1.2406         0.029268   
    167. D(C  16,C  11,C   9,N  10)    165.4305         0.021654   
    168. D(C  16,C  11,C   9,C   8)    -15.8146         0.021654   
    169. D(C  12,C  11,C   9,C   8)    161.4902         0.021654   
    170. D(C  12,C  11,C   9,N  10)    -17.2647         0.021654   
    171. D(H  33,C  12,C  11,C  16)   -177.4200         0.038363   
    172. D(H  33,C  12,C  11,C   9)      5.3090         0.038363   
    173. D(C  13,C  12,C  11,C   9)   -171.4937         0.038363   
    174. D(C  13,C  12,C  11,C  16)      5.7773         0.038363   
    175. D(S  15,C  13,C  12,H  33)   -175.1179         0.017041   
    176. D(S  15,C  13,C  12,C  11)      1.9226         0.017041   
    177. D(O  14,C  13,C  12,H  33)      3.1805         0.017041   
    178. D(O  14,C  13,C  12,C  11)   -179.7790         0.017041   
    179. D(C  16,S  15,C  13,C  12)     -6.8074         0.003560   
    180. D(C  16,S  15,C  13,O  14)    174.7780         0.003560   
    181. D(C  18,C  16,S  15,C  13)    128.8934         0.003195   
    182. D(C  11,C  16,S  15,C  13)      9.2539         0.003195   
    183. D(C  18,C  16,C  11,C  12)   -132.6975         0.011827   
    184. D(C  18,C  16,C  11,C   9)     45.0057         0.011827   
    185. D(S  15,C  16,C  11,C   9)    167.4702         0.011827   
    186. D(C  17,C  16,C  11,C  12)    105.1485         0.011827   
    187. D(C  17,C  16,S  15,C  13)   -107.3897         0.003195   
    188. D(C  17,C  16,C  11,C   9)    -77.1484         0.011827   
    189. D(S  15,C  16,C  11,C  12)    -10.2329         0.011827   
    190. D(H  34,C  17,C  16,C  18)     62.2596         0.011028   
    191. D(H  34,C  17,C  16,S  15)    -63.0042         0.011028   
    192. D(H  34,C  17,C  16,C  11)   -176.6230         0.011028   
    193. D(H  36,C  17,C  16,C  18)    -57.8925         0.011028   
    194. D(H  36,C  17,C  16,S  15)    176.8436         0.011028   
    195. D(H  36,C  17,C  16,C  11)     63.2248         0.011028   
    196. D(H  35,C  17,C  16,C  18)   -178.3754         0.011028   
    197. D(H  35,C  17,C  16,S  15)     56.3608         0.011028   
    198. D(H  35,C  17,C  16,C  11)    -57.2580         0.011028   
    199. D(C  24,C  18,C  16,C  17)     61.4925         0.010353   
    200. D(C  24,C  18,C  16,S  15)   -176.7075         0.010353   
    201. D(C  24,C  18,C  16,C  11)    -59.6596         0.010353   
    202. D(S  20,C  18,C  16,C  17)    -55.2733         0.010353   
    203. D(S  20,C  18,C  16,S  15)     66.5267         0.010353   
    204. D(S  20,C  18,C  16,C  11)   -176.4255         0.010353   
    205. D(C  19,C  18,C  16,C  17)   -177.0213         0.010353   
    206. D(C  19,C  18,C  16,S  15)    -55.2213         0.010353   
    207. D(C  19,C  18,C  16,C  11)     61.8265         0.010353   
    208. D(H  39,C  19,C  18,S  20)     56.3982         0.011057   
    209. D(H  39,C  19,C  18,C  16)   -178.5293         0.011057   
    210. D(H  38,C  19,C  18,C  24)     62.9049         0.011057   
    211. D(H  38,C  19,C  18,S  20)    176.5440         0.011057   
    212. D(H  38,C  19,C  18,C  16)    -58.3835         0.011057   
    213. D(H  37,C  19,C  18,C  24)   -176.6857         0.011057   
    214. D(H  37,C  19,C  18,S  20)    -63.0467         0.011057   
    215. D(H  39,C  19,C  18,C  24)    -57.2408         0.011057   
    216. D(H  37,C  19,C  18,C  16)     62.0259         0.011057   
    217. D(C  21,S  20,C  18,C  24)      8.9080         0.003203   
    218. D(C  21,S  20,C  18,C  19)   -107.9443         0.003203   
    219. D(C  21,S  20,C  18,C  16)    128.2889         0.003203   
    220. D(C  23,C  21,S  20,C  18)     -6.6533         0.003523   
    221. D(O  22,C  21,S  20,C  18)    174.9785         0.003523   
    222. D(H  40,C  23,C  21,O  22)      2.7308         0.016746   
    223. D(H  40,C  23,C  21,S  20)   -175.5015         0.016746   
    224. D(C  24,C  23,C  21,O  22)   -179.7328         0.016746   
    225. D(C  24,C  23,C  21,S  20)      2.0349         0.016746   
    226. D(C  18,C  24,C  23,H  40)   -177.2089         0.039947   
    227. D(C  18,C  24,C  23,C  21)      5.3889         0.039947   
    228. D(C   8,C  24,C  23,H  40)      5.6077         0.039947   
    229. D(C  23,C  24,C  18,S  20)     -9.7798         0.011937   
    230. D(C  23,C  24,C  18,C  19)    105.6592         0.011937   
    231. D(C  23,C  24,C  18,C  16)   -131.8849         0.011937   
    232. D(C   8,C  24,C  18,S  20)    167.7992         0.011937   
    233. D(C   8,C  24,C  18,C  19)    -76.7617         0.011937   
    234. D(C   8,C  24,C  18,C  16)     45.6942         0.011937   
    235. D(C   8,C  24,C  23,C  21)   -171.7945         0.039947   
    236. D(C  23,C  24,C   8,C   9)    160.8254         0.019694   
    237. D(C  23,C  24,C   8,N   7)    -18.9810         0.019694   
    238. D(C  18,C  24,C   8,C   9)    -16.3848         0.019694   
    239. D(C  18,C  24,C   8,N   7)    163.8087         0.019694   
    240. D(H  41,C  25,C   5,C   6)      0.1812         0.025274   
    241. D(H  41,C  25,C   5,C   4)   -179.8579         0.025274   
    242. D(C  26,C  25,C   5,C   6)   -179.9099         0.025274   
    243. D(C  26,C  25,C   5,C   4)      0.0510         0.025274   
    244. D(H  42,C  26,C  25,H  41)     -0.0671         0.030514   
    245. D(H  42,C  26,C  25,C   5)   -179.9780         0.030514   
    246. D(C   2,C  26,C  25,H  41)    179.9273         0.030514   
    247. D(C   2,C  26,C  25,C   5)      0.0164         0.030514   
    248. D(H  42,C  26,C   2,C   3)    179.9316         0.025185   
    249. D(H  42,C  26,C   2,O   1)     -0.0573         0.025185   
    250. D(C  25,C  26,C   2,C   3)     -0.0630         0.025185   
    251. D(C  25,C  26,C   2,O   1)    179.9481         0.025185   
    -----------------------------------------------------------------

Number of atoms                         .... 43
Number of degrees of freedom            .... 251

         *************************************************************
         *                GEOMETRY OPTIMIZATION CYCLE   1            *
         *************************************************************
---------------------------------
CARTESIAN COORDINATES (ANGSTROEM)
---------------------------------
  C      7.321100   -0.793300   -0.765300
  O      6.532900   -0.593200    0.385800
  C      5.192400   -0.478600    0.249400
  C      4.499000   -0.541800   -0.958900
  C      3.126600   -0.410400   -0.973500
  C      2.406200   -0.212800    0.205600
  C      0.971600   -0.079900    0.126500
  N      0.281300   -0.148700   -0.996100
  C     -1.013900    0.022000   -0.657300
  C     -1.126200    0.212300    0.725100
  N      0.149700    0.131800    1.201800
  C     -2.364700    0.414800    1.386900
  C     -2.679500    0.281600    2.688600
  C     -4.088800    0.380000    3.017700
  O     -4.611300    0.299600    4.093800
  S     -5.018800    0.606700    1.496500
  C     -3.507400    0.783200    0.467900
  C     -3.386900    2.256200    0.066300
  C     -3.487800   -0.134800   -0.769300
  C     -3.681700   -1.602300   -0.377900
  S     -4.770800    0.285100   -2.013800
  C     -3.589400    0.352000   -3.369800
  O     -3.923100    0.518100   -4.508100
  C     -2.250900    0.214000   -2.821800
  C     -2.173700    0.030200   -1.495900
  C      3.106600   -0.151200    1.414700
  C      4.474800   -0.282100    1.434300
  H      7.057800   -1.725600   -1.273900
  H      7.229200    0.043500   -1.464100
  H      8.348300   -0.854600   -0.410000
  H      5.021300   -0.692900   -1.889900
  H      2.580200   -0.458300   -1.901600
  H      0.429900    0.237800    2.162100
  H     -1.983100    0.062800    3.480600
  H     -4.240200    2.537600   -0.545800
  H     -3.373900    2.883900    0.954700
  H     -2.473100    2.425000   -0.501000
  H     -4.653400   -1.730700    0.092700
  H     -2.905600   -1.921300    0.315800
  H     -3.637800   -2.229600   -1.265200
  H     -1.399300    0.302800   -3.473700
  H      2.587400   -0.001900    2.350000
  H      5.025100   -0.236600    2.360600

----------------------------
CARTESIAN COORDINATES (A.U.)
----------------------------
  NO LB      ZA    FRAG     MASS         X           Y           Z
   0 C     6.0000    0    12.011   13.834874   -1.499120   -1.446207
   1 O     8.0000    0    15.999   12.345392   -1.120986    0.729056
   2 C     6.0000    0    12.011    9.812214   -0.904423    0.471298
   3 C     6.0000    0    12.011    8.501878   -1.023854   -1.812058
   4 C     6.0000    0    12.011    5.908418   -0.775544   -1.839648
   5 C     6.0000    0    12.011    4.547059   -0.402134    0.388528
   6 C     6.0000    0    12.011    1.836058   -0.150989    0.239050
   7 N     7.0000    0    14.007    0.531580   -0.281002   -1.882356
   8 C     6.0000    0    12.011   -1.915993    0.041574   -1.242117
   9 C     6.0000    0    12.011   -2.128210    0.401189    1.370240
  10 N     7.0000    0    14.007    0.282892    0.249066    2.271073
  11 C     6.0000    0    12.011   -4.468635    0.783858    2.620861
  12 C     6.0000    0    12.011   -5.063521    0.532147    5.080718
  13 C     6.0000    0    12.011   -7.726712    0.718096    5.702627
  14 O     8.0000    0    15.999   -8.714094    0.566162    7.736161
  15 S    16.0000    0    32.060   -9.484158    1.146497    2.827975
  16 C     6.0000    0    12.011   -6.628025    1.480034    0.884203
  17 C     6.0000    0    12.011   -6.400313    4.263600    0.125289
  18 C     6.0000    0    12.011   -6.590987   -0.254735   -1.453766
  19 C     6.0000    0    12.011   -6.957405   -3.027908   -0.714128
  20 S    16.0000    0    32.060   -9.015505    0.538761   -3.805530
  21 C     6.0000    0    12.011   -6.782983    0.665184   -6.367999
  22 O     8.0000    0    15.999   -7.413585    0.979067   -8.519074
  23 C     6.0000    0    12.011   -4.253585    0.404401   -5.332429
  24 C     6.0000    0    12.011   -4.107698    0.057070   -2.826841
  25 C     6.0000    0    12.011    5.870623   -0.285727    2.673396
  26 C     6.0000    0    12.011    8.456147   -0.533092    2.710434
  27 H     1.0000    0     1.008   13.337309   -3.260911   -2.407322
  28 H     1.0000    0     1.008   13.661208    0.082203   -2.766748
  29 H     1.0000    0     1.008   15.776001   -1.614960   -0.774788
  30 H     1.0000    0     1.008    9.488882   -1.309391   -3.571393
  31 H     1.0000    0     1.008    4.875871   -0.866061   -3.593503
  32 H     1.0000    0     1.008    0.812393    0.449377    4.085777
  33 H     1.0000    0     1.008   -3.747516    0.118675    6.577381
  34 H     1.0000    0     1.008   -8.012817    4.795369   -1.031413
  35 H     1.0000    0     1.008   -6.375747    5.449781    1.804122
  36 H     1.0000    0     1.008   -4.673482    4.582586   -0.946753
  37 H     1.0000    0     1.008   -8.793652   -3.270549    0.175178
  38 H     1.0000    0     1.008   -5.490788   -3.630731    0.596776
  39 H     1.0000    0     1.008   -6.874446   -4.213333   -2.390882
  40 H     1.0000    0     1.008   -2.644294    0.572209   -6.564342
  41 H     1.0000    0     1.008    4.889477   -0.003590    4.440856
  42 H     1.0000    0     1.008    9.496063   -0.447109    4.460888

--------------------------------
INTERNAL COORDINATES (ANGSTROEM)
--------------------------------
 C      0   0   0     0.000000000000     0.00000000     0.00000000
 O      1   0   0     1.409372363856     0.00000000     0.00000000
 C      2   1   0     1.352286349114   118.94903774     0.00000000
 C      3   2   1     1.394556090661   125.20050055     0.00000000
 C      4   3   2     1.378753378962   119.98570070   180.02903967
 C      5   4   3     1.395814719080   121.21712323     0.02679545
 C      6   5   4     1.442912464427   118.67702327   179.88965297
 N      7   6   5     1.319650821240   124.18809437     0.84681629
 C      8   7   6     1.349617342064   106.37111927   180.02199584
 C      9   8   7     1.399948263330   110.00262457     0.41340104
 N     10   9   8     1.364420737896   105.18678920   359.24980826
 C     10   9   8     1.418755701310   123.37012517   180.21703685
 C     12  10   9     1.345832147781   129.88370781   161.49023760
 C     13  12  10     1.450557086088   116.10255527   188.50626845
 O     14  13  12     1.198941875155   128.49815866   180.22098908
 S     14  13  12     1.797315311791   108.61780566     1.92256534
 C     12  10   9     1.511966550556   114.26767054   344.18535703
 C     17  12  10     1.531512915388   109.52799234   282.85163836
 C     17  12  10     1.540705033418   109.46862549    45.00565069
 C     19  17  12     1.531126193362   111.35761808    61.82652292
 S     19  17  12     1.836078772820   113.52378376   183.57453164
 C     21  19  17     1.799699299883    93.46819203   128.28886066
 O     22  21  19     1.197777855030   122.56901912   174.97853751
 C     22  21  19     1.452904074604   108.48379211   353.34670120
 C     24  22  21     1.340803151100   116.04311210     2.03494268
 C      6   5   4     1.398669914597   118.55693280   359.92711228
 C     26   6   5     1.374587287152   120.43541430     0.05098120
 H      1   2   3     1.094159101776   111.47190136   298.64728946
 H      1   2   3     1.094075541268   111.47521144    61.40709604
 H      1   2   3     1.088639343401   105.61225768   180.02782726
 H      4   3   2     1.078141688277   120.90842981     0.03091135
 H      5   4   3     1.078061677271   120.62266226   180.04233408
 H     11  10   9     1.005944397072   125.99976661   179.05453410
 H     13  12  10     1.077084212121   125.45590904     5.30904444
 H     18  17  12     1.087185936259   109.56197426   183.37701656
 H     18  17  12     1.087856079636   109.98386715   302.74200294
 H     18  17  12     1.088739257123   110.59690912    63.22482595
 H     20  19  17     1.087268048827   109.69469798    62.02585745
 H     20  19  17     1.088720303843   110.69741238   301.61649638
 H     20  19  17     1.087535649990   109.82598229   181.47071553
 H     24  22  21     1.076142002712   119.51900942   184.49845747
 H     26   6   5     1.080113521811   120.92662134   180.14214838
 H     27  26   6     1.078393263147   121.07468180   180.02201595

---------------------------
INTERNAL COORDINATES (A.U.)
---------------------------
 C      0   0   0     0.000000000000     0.00000000     0.00000000
 O      1   0   0     2.663327788404     0.00000000     0.00000000
 C      2   1   0     2.555450854466   118.94903774     0.00000000
 C      3   2   1     2.635329089741   125.20050055     0.00000000
 C      4   3   2     2.605466292457   119.98570070   180.02903967
 C      5   4   3     2.637707552757   121.21712323     0.02679545
 C      6   5   4     2.726709392989   118.67702327   179.88965297
 N      7   6   5     2.493778644548   124.18809437     0.84681629
 C      8   7   6     2.550407162092   106.37111927   180.02199584
 C      9   8   7     2.645518819352   110.00262457     0.41340104
 N     10   9   8     2.578381526066   105.18678920   359.24980826
 C     10   9   8     2.681059726416   123.37012517   180.21703685
 C     12  10   9     2.543254181533   129.88370781   161.49023760
 C     13  12  10     2.741155634325   116.10255527   188.50626845
 O     14  13  12     2.265671794533   128.49815866   180.22098908
 S     14  13  12     3.396433715589   108.61780566     1.92256534
 C     12  10   9     2.857202704200   114.26767054   344.18535703
 C     17  12  10     2.894139980646   109.52799234   282.85163836
 C     17  12  10     2.911510566314   109.46862549    45.00565069
 C     19  17  12     2.893409181928   111.35761808    61.82652292
 S     19  17  12     3.469686040936   113.52378376   183.57453164
 C     21  19  17     3.400938800189    93.46819203   128.28886066
 O     22  21  19     2.263472115282   122.56901912   174.97853751
 C     22  21  19     2.745590799859   108.48379211   353.34670120
 C     24  22  21     2.533750755078   116.04311210     2.03494268
 C      6   5   4     2.643103090344   118.55693280   359.92711228
 C     26   6   5     2.597593519887   120.43541430     0.05098120
 H      1   2   3     2.067661049295   111.47190136   298.64728946
 H      1   2   3     2.067503142817   111.47521144    61.40709604
 H      1   2   3     2.057230217639   105.61225768   180.02782726
 H      4   3   2     2.037392524406   120.90842981     0.03091135
 H      5   4   3     2.037241325518   120.62266226   180.04233408
 H     11  10   9     1.900959416418   125.99976661   179.05453410
 H     13  12  10     2.035394184079   125.45590904     5.30904444
 H     18  17  12     2.054483676181   109.56197426   183.37701656
 H     18  17  12     2.055750063632   109.98386715   302.74200294
 H     18  17  12     2.057419027211   110.59690912    63.22482595
 H     20  19  17     2.054638846446   109.69469798    62.02585745
 H     20  19  17     2.057383210703   110.69741238   301.61649638
 H     20  19  17     2.055144539358   109.82598229   181.47071553
 H     24  22  21     2.033613666334   119.51900942   184.49845747
 H     26   6   5     2.041118749769   120.92662134   180.14214838
 H     27  26   6     2.037867932013   121.07468180   180.02201595

---------------------
BASIS SET INFORMATION
---------------------
There are 5 groups of distinct atoms

 Group   1 Type C   : 19s6p3d2f contracted to 5s4p3d2f pattern {88111/3111/111/11}
 Group   2 Type O   : 19s6p3d2f contracted to 5s4p3d2f pattern {88111/3111/111/11}
 Group   3 Type N   : 19s6p3d2f contracted to 5s4p3d2f pattern {88111/3111/111/11}
 Group   4 Type S   : 42s17p3d2f contracted to 6s5p3d2f pattern {131313111/77111/111/11}
 Group   5 Type H   : 5s2p1d contracted to 3s2p1d pattern {311/11/1}

Atom   0C    basis set group =>   1
Atom   1O    basis set group =>   2
Atom   2C    basis set group =>   1
Atom   3C    basis set group =>   1
Atom   4C    basis set group =>   1
Atom   5C    basis set group =>   1
Atom   6C    basis set group =>   1
Atom   7N    basis set group =>   3
Atom   8C    basis set group =>   1
Atom   9C    basis set group =>   1
Atom  10N    basis set group =>   3
Atom  11C    basis set group =>   1
Atom  12C    basis set group =>   1
Atom  13C    basis set group =>   1
Atom  14O    basis set group =>   2
Atom  15S    basis set group =>   4
Atom  16C    basis set group =>   1
Atom  17C    basis set group =>   1
Atom  18C    basis set group =>   1
Atom  19C    basis set group =>   1
Atom  20S    basis set group =>   4
Atom  21C    basis set group =>   1
Atom  22O    basis set group =>   2
Atom  23C    basis set group =>   1
Atom  24C    basis set group =>   1
Atom  25C    basis set group =>   1
Atom  26C    basis set group =>   1
Atom  27H    basis set group =>   5
Atom  28H    basis set group =>   5
Atom  29H    basis set group =>   5
Atom  30H    basis set group =>   5
Atom  31H    basis set group =>   5
Atom  32H    basis set group =>   5
Atom  33H    basis set group =>   5
Atom  34H    basis set group =>   5
Atom  35H    basis set group =>   5
Atom  36H    basis set group =>   5
Atom  37H    basis set group =>   5
Atom  38H    basis set group =>   5
Atom  39H    basis set group =>   5
Atom  40H    basis set group =>   5
Atom  41H    basis set group =>   5
Atom  42H    basis set group =>   5
---------------------------------
AUXILIARY/J BASIS SET INFORMATION
---------------------------------
There are 5 groups of distinct atoms

 Group   1 Type C   : 10s7p5d2f1g contracted to 10s7p5d2f1g pattern {1111111111/1111111/11111/11/1}
 Group   2 Type O   : 10s7p5d2f1g contracted to 10s7p5d2f1g pattern {1111111111/1111111/11111/11/1}
 Group   3 Type N   : 10s7p5d2f1g contracted to 10s7p5d2f1g pattern {1111111111/1111111/11111/11/1}
 Group   4 Type S   : 13s11p9d3f1g contracted to 13s11p9d3f1g pattern {1111111111111/11111111111/111111111/111/1}
 Group   5 Type H   : 4s3p2d1f contracted to 4s3p2d1f pattern {1111/111/11/1}

Atom   0C    basis set group =>   1
Atom   1O    basis set group =>   2
Atom   2C    basis set group =>   1
Atom   3C    basis set group =>   1
Atom   4C    basis set group =>   1
Atom   5C    basis set group =>   1
Atom   6C    basis set group =>   1
Atom   7N    basis set group =>   3
Atom   8C    basis set group =>   1
Atom   9C    basis set group =>   1
Atom  10N    basis set group =>   3
Atom  11C    basis set group =>   1
Atom  12C    basis set group =>   1
Atom  13C    basis set group =>   1
Atom  14O    basis set group =>   2
Atom  15S    basis set group =>   4
Atom  16C    basis set group =>   1
Atom  17C    basis set group =>   1
Atom  18C    basis set group =>   1
Atom  19C    basis set group =>   1
Atom  20S    basis set group =>   4
Atom  21C    basis set group =>   1
Atom  22O    basis set group =>   2
Atom  23C    basis set group =>   1
Atom  24C    basis set group =>   1
Atom  25C    basis set group =>   1
Atom  26C    basis set group =>   1
Atom  27H    basis set group =>   5
Atom  28H    basis set group =>   5
Atom  29H    basis set group =>   5
Atom  30H    basis set group =>   5
Atom  31H    basis set group =>   5
Atom  32H    basis set group =>   5
Atom  33H    basis set group =>   5
Atom  34H    basis set group =>   5
Atom  35H    basis set group =>   5
Atom  36H    basis set group =>   5
Atom  37H    basis set group =>   5
Atom  38H    basis set group =>   5
Atom  39H    basis set group =>   5
Atom  40H    basis set group =>   5
Atom  41H    basis set group =>   5
Atom  42H    basis set group =>   5
---------------------------------
AUXILIARY/C BASIS SET INFORMATION
---------------------------------
There are 5 groups of distinct atoms

 Group   1 Type C   : 9s7p6d4f2g contracted to 9s7p6d4f2g pattern {111111111/1111111/111111/1111/11}
 Group   2 Type O   : 9s7p6d4f2g contracted to 9s7p6d4f2g pattern {111111111/1111111/111111/1111/11}
 Group   3 Type N   : 9s7p6d4f2g contracted to 9s7p6d4f2g pattern {111111111/1111111/111111/1111/11}
 Group   4 Type S   : 11s9p8d6f3g contracted to 11s9p8d6f3g pattern {11111111111/111111111/11111111/111111/111}
 Group   5 Type H   : 4s3p2d1f contracted to 4s3p2d1f pattern {1111/111/11/1}

Atom   0C    basis set group =>   1
Atom   1O    basis set group =>   2
Atom   2C    basis set group =>   1
Atom   3C    basis set group =>   1
Atom   4C    basis set group =>   1
Atom   5C    basis set group =>   1
Atom   6C    basis set group =>   1
Atom   7N    basis set group =>   3
Atom   8C    basis set group =>   1
Atom   9C    basis set group =>   1
Atom  10N    basis set group =>   3
Atom  11C    basis set group =>   1
Atom  12C    basis set group =>   1
Atom  13C    basis set group =>   1
Atom  14O    basis set group =>   2
Atom  15S    basis set group =>   4
Atom  16C    basis set group =>   1
Atom  17C    basis set group =>   1
Atom  18C    basis set group =>   1
Atom  19C    basis set group =>   1
Atom  20S    basis set group =>   4
Atom  21C    basis set group =>   1
Atom  22O    basis set group =>   2
Atom  23C    basis set group =>   1
Atom  24C    basis set group =>   1
Atom  25C    basis set group =>   1
Atom  26C    basis set group =>   1
Atom  27H    basis set group =>   5
Atom  28H    basis set group =>   5
Atom  29H    basis set group =>   5
Atom  30H    basis set group =>   5
Atom  31H    basis set group =>   5
Atom  32H    basis set group =>   5
Atom  33H    basis set group =>   5
Atom  34H    basis set group =>   5
Atom  35H    basis set group =>   5
Atom  36H    basis set group =>   5
Atom  37H    basis set group =>   5
Atom  38H    basis set group =>   5
Atom  39H    basis set group =>   5
Atom  40H    basis set group =>   5
Atom  41H    basis set group =>   5
Atom  42H    basis set group =>   5


           ************************************************************
           *        Program running with 4 parallel MPI-processes     *
           *              working on a common directory               *
           ************************************************************
------------------------------------------------------------------------------
                           ORCA GTO INTEGRAL CALCULATION
                           -- RI-GTO INTEGRALS CHOSEN --
------------------------------------------------------------------------------
------------------------------------------------------------------------------
                   ___                                                        
                  /   \      - P O W E R E D   B Y -                         
                 /     \                                                     
                 |  |  |   _    _      __       _____    __    __             
                 |  |  |  | |  | |    /  \     |  _  \  |  |  /  |          
                  \  \/   | |  | |   /    \    | | | |  |  | /  /          
                 / \  \   | |__| |  /  /\  \   | |_| |  |  |/  /          
                |  |  |   |  __  | /  /__\  \  |    /   |      \           
                |  |  |   | |  | | |   __   |  |    \   |  |\   \          
                \     /   | |  | | |  |  |  |  | |\  \  |  | \   \       
                 \___/    |_|  |_| |__|  |__|  |_| \__\ |__|  \__/        
                                                                              
                      - O R C A' S   B I G   F R I E N D -                    
                                      &                                       
                       - I N T E G R A L  F E E D E R -                       
                                                                              
 v1 FN, 2020, v2 2021                                                         
------------------------------------------------------------------------------


Reading SHARK input file optpbed3-b2plyp-test-306.SHARKINP.tmp ... ok
----------------------
SHARK INTEGRAL PACKAGE
----------------------

Number of atoms                             ...     43
Number of basis functions                   ...   1674
Number of shells                            ...    658
Maximum angular momentum                    ...      3
Integral batch strategy                     ... SHARK/LIBINT Hybrid
RI-J (if used) integral strategy            ... SPLIT-RIJ (Revised 2003 algorithm where possible)
Printlevel                                  ...      1
Contraction scheme used                     ... PARTIAL GENERAL contraction
Coulomb Range Separation                    ... NOT USED
Exchange Range Separation                   ... NOT USED
Finite Nucleus Model                        ... NOT USED
Auxiliary Coulomb fitting basis             ... AVAILABLE
   # of basis functions in Aux-J            ...   2697
   # of shells in Aux-J                     ...    859
   Maximum angular momentum in Aux-J        ...      4
Auxiliary J/K fitting basis                 ... NOT available
Auxiliary Correlation fitting basis         ... AVAILABLE
   # of basis functions in Aux-C            ...   3424
   # of shells in Aux-C                     ...    934
   Maximum angular momentum in Aux-C        ...      4
Auxiliary 'external' fitting basis          ... NOT available
Integral threshold                          ...     2.500000e-11
Primitive cut-off                           ...     2.500000e-12
Primitive pair pre-selection threshold      ...     2.500000e-12

Calculating pre-screening integrals         ... done (  0.4 sec) Dimension = 658
Calculating pre-screening integrals (ORCA)  ... done (  1.0 sec) Dimension = 478
Organizing shell pair data                  ... done (  3.3 sec)
Shell pair information
Total number of shell pairs                 ...    216811
Shell pairs after pre-screening             ...    124114
Total number of primitive shell pairs       ...    274293
Primitive shell pairs kept                  ...    142374
          la=0 lb=0:  27362 shell pairs
          la=1 lb=0:  32459 shell pairs
          la=1 lb=1:   8461 shell pairs
          la=2 lb=0:  20291 shell pairs
          la=2 lb=1:  10554 shell pairs
          la=2 lb=2:   3389 shell pairs
          la=3 lb=0:  11027 shell pairs
          la=3 lb=1:   5834 shell pairs
          la=3 lb=2:   3691 shell pairs
          la=3 lb=3:   1046 shell pairs

Calculating one electron integrals          ... done (  0.5 sec)
Calculating RI/J V-Matrix + Cholesky decomp.... done (  1.1 sec)
Calculating RI/C V-Matrix + Cholesky decomp.... done (  1.0 sec)
Calculating Nuclear repulsion               ... done (  0.0 sec) ENN=   2691.602445814563 Eh

SHARK setup successfully completed in   9.8 seconds

Maximum memory used throughout the entire GTOINT-calculation: 199.9 MB


           ************************************************************
           *        Program running with 4 parallel MPI-processes     *
           *              working on a common directory               *
           ************************************************************
-------------------------------------------------------------------------------
                                 ORCA SCF
-------------------------------------------------------------------------------

------------
SCF SETTINGS
------------
Hamiltonian:
 Density Functional     Method          .... DFT(GTOs)
 Exchange Functional    Exchange        .... PBE
   PBE kappa parameter   XKappa         ....  0.804000
   PBE mue parameter    XMuePBE         ....  0.219520
 Correlation Functional Correlation     .... PBE
   PBE beta parameter  CBetaPBE         ....  0.066725
 LDA part of GGA corr.  LDAOpt          .... PW91-LDA
 Gradients option       PostSCFGGA      .... off
 Hybrid DFT is turned on
   Fraction HF Exchange ScalHFX         ....  0.250000
   Scaling of DF-GGA-X  ScalDFX         ....  0.750000
   Scaling of DF-GGA-C  ScalDFC         ....  1.000000
   Scaling of DF-LDA-C  ScalLDAC        ....  1.000000
   Perturbative correction              ....  0.000000
   Density functional embedding theory  .... OFF
   NL short-range parameter             ....  6.900000
 RI-approximation to the Coulomb term is turned on
   Number of AuxJ basis functions       .... 2697
   RIJ-COSX (HFX calculated with COS-X)).... on


General Settings:
 Integral files         IntName         .... optpbed3-b2plyp-test-306
 Hartree-Fock type      HFTyp           .... RHF
 Total Charge           Charge          ....    0
 Multiplicity           Mult            ....    1
 Number of Electrons    NEL             ....  206
 Basis Dimension        Dim             .... 1474
 Nuclear Repulsion      ENuc            ....   2691.6024458146 Eh

Convergence Acceleration:
 DIIS                   CNVDIIS         .... on
   Start iteration      DIISMaxIt       ....    12
   Startup error        DIISStart       ....  0.200000
   # of expansion vecs  DIISMaxEq       ....     5
   Bias factor          DIISBfac        ....   1.050
   Max. coefficient     DIISMaxC        ....  10.000
 Trust-Rad. Augm. Hess. CNVTRAH         .... auto
   Auto Start mean grad. ratio tolernc. ....  1.125000
   Auto Start start iteration           ....    20
   Auto Start num. interpolation iter.  ....    10
   Max. Number of Micro iterations      ....    16
   Max. Number of Macro iterations      .... Maxiter - #DIIS iter
   Number of Davidson start vectors     ....     2
   Converg. threshold I  (grad. norm)   ....   1.000e-05
   Converg. threshold II (energy diff.) ....   1.000e-08
   Grad. Scal. Fac. for Micro threshold ....   0.100
   Minimum threshold for Micro iter.    ....   0.010
   NR start threshold (gradient norm)   ....   0.001
   Initial trust radius                 ....   0.400
   Minimum AH scaling param. (alpha)    ....   1.000
   Maximum AH scaling param. (alpha)    .... 1000.000
   Orbital update algorithm             .... Taylor
   White noise on init. David. guess    .... on
   Maximum white noise                  ....   0.010
   Quad. conv. algorithm                .... NR
 SOSCF                  CNVSOSCF        .... on
   Start iteration      SOSCFMaxIt      ....   150
   Startup grad/error   SOSCFStart      ....  0.003300
 Level Shifting         CNVShift        .... on
   Level shift para.    LevelShift      ....    0.2500
   Turn off err/grad.   ShiftErr        ....    0.0010
 Zerner damping         CNVZerner       .... off
 Static damping         CNVDamp         .... on
   Fraction old density DampFac         ....    0.7000
   Max. Damping (<1)    DampMax         ....    0.9800
   Min. Damping (>=0)   DampMin         ....    0.0000
   Turn off err/grad.   DampErr         ....    0.1000
 Fernandez-Rico         CNVRico         .... off

SCF Procedure:
 Maximum # iterations   MaxIter         ....   125
 SCF integral mode      SCFMode         .... Direct
   Integral package                     .... SHARK and LIBINT hybrid scheme
 Reset frequency        DirectResetFreq ....    20
 Integral Threshold     Thresh          ....  2.500e-11 Eh
 Primitive CutOff       TCut            ....  2.500e-12 Eh

Convergence Tolerance:
 Convergence Check Mode ConvCheckMode   .... Total+1el-Energy
 Convergence forced     ConvForced      .... 0
 Energy Change          TolE            ....  1.000e-08 Eh
 1-El. energy change                    ....  1.000e-05 Eh
 Orbital Gradient       TolG            ....  1.000e-05
 Orbital Rotation angle TolX            ....  1.000e-05
 DIIS Error             TolErr          ....  5.000e-07


Diagonalization of the overlap matrix:
Smallest eigenvalue                        ... 2.115e-07
Time for diagonalization                   ...    0.570 sec
Threshold for overlap eigenvalues          ... 1.000e-08
Number of eigenvalues below threshold      ... 0
Time for construction of square roots      ...    0.397 sec
Total time needed                          ...    0.980 sec

Time for model grid setup =    1.433 sec

------------------------------
INITIAL GUESS: MODEL POTENTIAL
------------------------------
Loading Hartree-Fock densities                     ... done
Calculating cut-offs                               ... done
Initializing the effective Hamiltonian             ... done
Setting up the integral package (SHARK)            ... done
Starting the Coulomb interaction                   ... done (   6.2 sec)
Reading the grid                                   ... done
Mapping shells                                     ... done
Starting the XC term evaluation                    ... done (   4.3 sec)
  promolecular density results
     # of electrons  =    205.992028186
     EX              =   -194.544508623
     EC              =     -7.178503287
     EX+EC           =   -201.723011910
Transforming the Hamiltonian                       ... done (   0.3 sec)
Diagonalizing the Hamiltonian                      ... done (   0.5 sec)
Back transforming the eigenvectors                 ... done (   0.1 sec)
Now organizing SCF variables                       ... done
                      ------------------
                      INITIAL GUESS DONE (  12.9 sec)
                      ------------------
-------------------
DFT GRID GENERATION
-------------------

General Integration Accuracy     IntAcc      ... 4.388
Radial Grid Type                 RadialGrid  ... OptM3 with GC (2021)
Angular Grid (max. ang.)         AngularGrid ... 4 (Lebedev-302)
Angular grid pruning method      GridPruning ... 4 (adaptive)
Weight generation scheme         WeightScheme... Becke
Basis function cutoff            BFCut       ... 1.0000e-11
Integration weight cutoff        WCut        ... 1.0000e-14
Angular grids for H and He will be reduced by one unit
Partially contracted basis set               ... off
Rotationally invariant grid construction     ... off

Total number of grid points                  ...   220265
Total number of batches                      ...     3468
Average number of points per batch           ...       63
Average number of grid points per atom       ...     5122
Time for grid setup =    4.198 sec

--------------------
COSX GRID GENERATION
--------------------

GRIDX 1
-------
General Integration Accuracy     IntAcc      ... 3.816
Radial Grid Type                 RadialGrid  ... OptM3 with GC (2021)
Angular Grid (max. ang.)         AngularGrid ... 1 (Lebedev-50)
Angular grid pruning method      GridPruning ... 4 (adaptive)
Weight generation scheme         WeightScheme... Becke
Basis function cutoff            BFCut       ... 1.0000e-11
Integration weight cutoff        WCut        ... 1.0000e-14
Angular grids for H and He will be reduced by one unit
Partially contracted basis set               ... on
Rotationally invariant grid construction     ... off

Total number of grid points                  ...    27825
Total number of batches                      ...      458
Average number of points per batch           ...       60
Average number of grid points per atom       ...      647
UseSFitting                                  ... on

GRIDX 2
-------
General Integration Accuracy     IntAcc      ... 4.020
Radial Grid Type                 RadialGrid  ... OptM3 with GC (2021)
Angular Grid (max. ang.)         AngularGrid ... 2 (Lebedev-110)
Angular grid pruning method      GridPruning ... 4 (adaptive)
Weight generation scheme         WeightScheme... Becke
Basis function cutoff            BFCut       ... 1.0000e-11
Integration weight cutoff        WCut        ... 1.0000e-14
Angular grids for H and He will be reduced by one unit
Partially contracted basis set               ... on
Rotationally invariant grid construction     ... off

Total number of grid points                  ...    65654
Total number of batches                      ...     1051
Average number of points per batch           ...       62
Average number of grid points per atom       ...     1527
UseSFitting                                  ... on

GRIDX 3
-------
General Integration Accuracy     IntAcc      ... 4.338
Radial Grid Type                 RadialGrid  ... OptM3 with GC (2021)
Angular Grid (max. ang.)         AngularGrid ... 3 (Lebedev-194)
Angular grid pruning method      GridPruning ... 4 (adaptive)
Weight generation scheme         WeightScheme... Becke
Basis function cutoff            BFCut       ... 1.0000e-11
Integration weight cutoff        WCut        ... 1.0000e-14
Angular grids for H and He will be reduced by one unit
Partially contracted basis set               ... on
Rotationally invariant grid construction     ... off

Total number of grid points                  ...   142969
Total number of batches                      ...     2259
Average number of points per batch           ...       63
Average number of grid points per atom       ...     3325
UseSFitting                                  ... on

Time for X-Grid setup             =   11.734 sec


--------------------
CPCM SOLVATION MODEL
--------------------
CPCM parameters:
  Epsilon                                         ...      35.6880
  Refrac                                          ...       1.3442
  Rsolv                                           ...       1.3000
  Surface type                                    ... GAUSSIAN VDW
  Epsilon function type                           ...         CPCM
Solvent:                                     ... ACETONITRILE
SMD-CDS solvent descriptors:
  Soln                                       ...    1.3442
  Soln25                                     ...    1.3416
  Sola                                       ...    0.0700
  Solb                                       ...    0.3200
  Solg                                       ...   41.2500
  Solc                                       ...    0.0000
  Solh                                       ...    0.0000
Radii:
 Radius for C  used is    3.4960 Bohr (=   1.8500 Ang.)
 Radius for O  used is    4.0969 Bohr (=   2.1680 Ang.)
 Radius for N  used is    3.5716 Bohr (=   1.8900 Ang.)
 Radius for S  used is    4.7054 Bohr (=   2.4900 Ang.)
 Radius for H  used is    2.2677 Bohr (=   1.2000 Ang.)
Calculating surface                               ...        done! (  0.0s)
GEPOL surface points                              ...         2237
GEPOL Volume                                      ...    2918.1328
GEPOL Surface-area                                ...    1445.7956
Calculating surface distance matrix               ...        done! (  0.1s)
Performing Cholesky decomposition & store         ...        done! (  0.3s)
Overall time for CPCM initialization              ...                 0.4s
 re-compute Schwartz prescreening matrix in partically contracted basis (1) ...done (   0.363 sec)
--------------
SCF ITERATIONS
--------------
ITER       Energy         Delta-E        Max-DP      RMS-DP      [F,P]     Damp
               ***  Starting incremental Fock matrix formation  ***
  0  -1901.6752469601   0.000000000000 0.68274376  0.00193637  0.3000178 0.7000
  1  -1901.9425350229  -0.267288062769 0.48215761  0.00145420  0.1151683 0.7000
                               ***Turning on DIIS***
  2  -1902.0492157253  -0.106680702478 0.66377130  0.00299513  0.0398221 0.0000
  3  -1902.2208841350  -0.171668409687 0.37917489  0.00093456  0.0578777 0.0000
  4  -1902.2561880635  -0.035303928425 0.05272170  0.00027340  0.0203003 0.0000
  5  -1902.2584596588  -0.002271595353 0.07286594  0.00024487  0.0103512 0.0000
                      *** Initiating the SOSCF procedure ***
                           *** Shutting down DIIS ***
[...]
   (ab|v) reading and digestion   ...  1333.54 sec
   Final sigma-completion         ...     0.01 sec
   Done building sigma-vectors             Size of expansion space: 30
   Lowest Energy          :     0.129912484851
   Maximum Energy change  :     0.000030364252 (vector 9)
   Maximum residual norm  :     0.000004536709

                       ****Iteration    7****
              <<< Entering MO-section for Build Sigma(Double) >>>
   Forming the XC and CPCM contribution:
   Time for densities:            1.636
   Time for XC-Integration:      38.595
   Time for LR-CPCM terms:       21.862
   Time for Sigma-Completion:     0.340
   Time for building 10 sigma-vectors
   Data Preparation Phase         ...     0.01 sec
   Transformed RI Coulomb         ...     1.71 sec
   Transformed RI-exchange        ...  1731.58 sec
   (ab|v) reading and digestion   ...  1655.77 sec
   Final sigma-completion         ...     0.13 sec
   Done building sigma-vectors             Size of expansion space: 40
   Lowest Energy          :     0.129912479525
   Maximum Energy change  :     0.000013099665 (vector 9)
   Maximum residual norm  :     0.000003086598

                       ****Iteration    8****
              <<< Entering MO-section for Build Sigma(Double) >>>
   Forming the XC and CPCM contribution:
   Time for densities:            0.479
   Time for XC-Integration:      37.928
   Time for LR-CPCM terms:       21.638
   Time for Sigma-Completion:     0.355
   Time for building 10 sigma-vectors
   Data Preparation Phase         ...     0.03 sec
   Transformed RI Coulomb         ...    23.47 sec
   Transformed RI-exchange        ...  2008.31 sec
   (ab|v) reading and digestion   ...  1949.59 sec
   Final sigma-completion         ...     0.08 sec
   Done building sigma-vectors             Size of expansion space: 50
   Lowest Energy          :     0.129912479089
   Maximum Energy change  :     0.000012447451 (vector 9)
   Maximum residual norm  :     0.000002501766

                       ****Iteration    9****
              <<< Entering MO-section for Build Sigma(Double) >>>
   Forming the XC and CPCM contribution:
   Time for densities:            0.497
   Time for XC-Integration:      39.752
   Time for LR-CPCM terms:       23.449
   Time for Sigma-Completion:     0.355
   Time for building 10 sigma-vectors
   Data Preparation Phase         ...     0.01 sec
   Transformed RI Coulomb         ...    23.90 sec
   Transformed RI-exchange        ...  2171.45 sec
   (ab|v) reading and digestion   ...  2112.19 sec
   Final sigma-completion         ...     0.02 sec
   Done building sigma-vectors             Size of expansion space: 60
   Lowest Energy          :     0.129912479061
   Maximum Energy change  :     0.000011001165 (vector 9)
   Maximum residual norm  :     0.000002554030

                       ****Iteration   10****
              <<< Entering MO-section for Build Sigma(Double) >>>
   Forming the XC and CPCM contribution:
   Time for densities:            0.485
   Time for XC-Integration:      40.183
   Time for LR-CPCM terms:       24.847
   Time for Sigma-Completion:     0.386
   Time for building 10 sigma-vectors
   Data Preparation Phase         ...     0.02 sec
   Transformed RI Coulomb         ...     2.03 sec
   Transformed RI-exchange        ...  1481.25 sec
   (ab|v) reading and digestion   ...  1416.96 sec
   Final sigma-completion         ...     0.01 sec
   Done building sigma-vectors             Size of expansion space: 70
   Lowest Energy          :     0.129912479058
   Maximum Energy change  :     0.000004545944 (vector 9)
   Maximum residual norm  :     0.000000509396

      *** CONVERGENCE OF RESIDUAL NORM REACHED ***

Storing the converged CI vectors               ... optpbed3-b2plyp-test-306_job2.cis1

                 *** DAVIDSON DONE ***

Total time for solving the CIS problem: 18203.488sec

------------------
DOUBLES CORRECTION (Double precision version)
------------------

The (D) correction will be scaled by  0.2700
Doing v(i,a)*T(i,a) terms (RI)                    ... ok
Doing u(i,j,a,b) terms for state   0              ... ok
Doing u(i,j,a,b) terms for state   1              ... ok
Doing u(i,j,a,b) terms for state   2              ... ok
Doing u(i,j,a,b) terms for state   3              ... ok
Doing u(i,j,a,b) terms for state   4              ... ok
Doing u(i,j,a,b) terms for state   5              ... ok
Doing u(i,j,a,b) terms for state   6              ... ok
Doing u(i,j,a,b) terms for state   7              ... ok
Doing u(i,j,a,b) terms for state   8              ... ok
Doing u(i,j,a,b) terms for state   9              ... ok

Contributions to the (D) correction(s) (in eV)

STATE  Final   Init.   Total   v(ext)   v(int)  v(3)    u
       omega   omega     (D)                             
-----------------------------------------------------------------------------
   0   3.153   3.535  -0.382   0.706   1.042  -0.058  -2.072
   1   3.815   4.304  -0.488   0.627   1.049  -0.039  -2.125
   2   3.925   4.585  -0.659   0.721   0.813  -0.031  -2.163
   3   3.995   4.619  -0.624   0.713   0.814  -0.031  -2.119
   4   4.028   4.882  -0.854   0.695   0.835  -0.019  -2.365
   5   4.088   5.027  -0.939   0.699   0.711  -0.029  -2.319
   6   4.585   5.109  -0.524   0.520   0.967  -0.033  -1.978
   7   5.059   5.307  -0.248   0.078   1.044  -0.003  -1.367
   8   4.514   5.323  -0.810   0.654   0.882  -0.031  -2.315
   9   4.805   5.411  -0.606   0.571   0.991  -0.050  -2.118

(D)-timings
 V(i,a)*T(i,a) terms           ...  2601.490 sec
 U(i,j,a,b) 3-internal         ...    51.632 sec
 U(i,j,a,b) 3-external         ...  2405.124 sec
 U(i,j,a,b) pair terms         ...  1186.740 sec
 Total measured time           ... 12488.240 sec

 Time for (ab|v) I/O           ...  1609.275 sec


------------------------------------
TD-DFT/TDA EXCITED STATES (SINGLETS)
------------------------------------

the weight of the individual excitations are printed if larger than 1.0e-02

STATE  1:  E=   0.115876 au      3.153 eV    25431.9 cm**-1 <S**2> =   0.000000
   101a -> 103a  :     0.055786 (c= -0.23619159)
   102a -> 103a  :     0.894762 (c=  0.94591850)

STATE  2:  E=   0.140211 au      3.815 eV    30772.9 cm**-1 <S**2> =   0.000000
   101a -> 103a  :     0.011164 (c=  0.10566194)
   101a -> 107a  :     0.013425 (c=  0.11586804)
   102a -> 104a  :     0.904385 (c=  0.95099151)
   102a -> 107a  :     0.017357 (c=  0.13174589)

STATE  3:  E=   0.144257 au      3.925 eV    31660.7 cm**-1 <S**2> =   0.000000
    95a -> 103a  :     0.121617 (c= -0.34873574)
    95a -> 104a  :     0.116455 (c= -0.34125503)
    95a -> 107a  :     0.054767 (c=  0.23402417)
    95a -> 111a  :     0.016648 (c=  0.12902729)
    96a -> 103a  :     0.496467 (c= -0.70460380)
    96a -> 107a  :     0.013320 (c=  0.11541274)
    96a -> 130a  :     0.014093 (c=  0.11871394)
    97a -> 103a  :     0.019744 (c=  0.14051446)
   101a -> 103a  :     0.011067 (c=  0.10519908)

STATE  4:  E=   0.146798 au      3.995 eV    32218.5 cm**-1 <S**2> =   0.000000
    95a -> 103a  :     0.418307 (c= -0.64676662)
    95a -> 104a  :     0.055995 (c=  0.23663285)
    95a -> 132a  :     0.013137 (c= -0.11461513)
    96a -> 103a  :     0.086916 (c=  0.29481524)
    96a -> 104a  :     0.207047 (c= -0.45502446)
    96a -> 107a  :     0.053562 (c=  0.23143563)
    96a -> 111a  :     0.014771 (c=  0.12153566)
    97a -> 103a  :     0.025369 (c=  0.15927657)

STATE  5:  E=   0.148037 au      4.028 eV    32490.5 cm**-1 <S**2> =   0.000000
    97a -> 103a  :     0.012352 (c= -0.11113960)
    98a -> 103a  :     0.149337 (c= -0.38644095)
    99a -> 104a  :     0.031733 (c= -0.17813675)
   101a -> 103a  :     0.645525 (c= -0.80344578)
   102a -> 103a  :     0.043259 (c= -0.20798700)
   102a -> 104a  :     0.010662 (c=  0.10325586)
   102a -> 110a  :     0.027393 (c=  0.16550927)

STATE  6:  E=   0.150241 au      4.088 eV    32974.2 cm**-1 <S**2> =   0.000000
    98a -> 103a  :     0.017923 (c= -0.13387757)
    98a -> 104a  :     0.044041 (c= -0.20985955)
    98a -> 107a  :     0.012274 (c=  0.11078830)
    99a -> 103a  :     0.822638 (c= -0.90699418)
   100a -> 103a  :     0.023237 (c=  0.15243588)
   101a -> 104a  :     0.016624 (c= -0.12893465)

STATE  7:  E=   0.168491 au      4.585 eV    36979.4 cm**-1 <S**2> =   0.000000
    98a -> 103a  :     0.038367 (c= -0.19587445)
   100a -> 103a  :     0.033207 (c=  0.18222850)
   100a -> 104a  :     0.128531 (c=  0.35851270)
   100a -> 107a  :     0.051066 (c=  0.22597892)
   100a -> 111a  :     0.011543 (c=  0.10743893)
   101a -> 110a  :     0.073502 (c= -0.27111323)
   102a -> 105a  :     0.013453 (c= -0.11598811)
   102a -> 107a  :     0.033487 (c= -0.18299578)
   102a -> 110a  :     0.467669 (c= -0.68386305)
   102a -> 111a  :     0.021552 (c=  0.14680561)
   102a -> 112a  :     0.014723 (c= -0.12133742)

STATE  8:  E=   0.185920 au      5.059 eV    40804.7 cm**-1 <S**2> =   0.000000
    98a -> 103a  :     0.035048 (c=  0.18721012)
   101a -> 106a  :     0.011983 (c=  0.10946532)
   102a -> 105a  :     0.752998 (c= -0.86775461)
   102a -> 106a  :     0.025889 (c=  0.16090150)
   102a -> 108a  :     0.012305 (c=  0.11092882)
   102a -> 109a  :     0.050477 (c= -0.22467100)
   102a -> 115a  :     0.013789 (c= -0.11742678)

STATE  9:  E=   0.165872 au      4.514 eV    36404.6 cm**-1 <S**2> =   0.000000
    95a -> 103a  :     0.010027 (c= -0.10013437)
    96a -> 103a  :     0.010905 (c= -0.10442702)
    97a -> 103a  :     0.121207 (c= -0.34814739)
    98a -> 103a  :     0.421859 (c=  0.64950644)
    99a -> 104a  :     0.048319 (c=  0.21981690)
   101a -> 103a  :     0.091765 (c= -0.30292689)
   101a -> 104a  :     0.028774 (c= -0.16963010)
   102a -> 105a  :     0.028086 (c=  0.16758781)
   102a -> 107a  :     0.107483 (c= -0.32784629)
   102a -> 110a  :     0.010489 (c= -0.10241727)

STATE 10:  E=   0.176575 au      4.805 eV    38753.7 cm**-1 <S**2> =   0.000000
    98a -> 103a  :     0.072289 (c= -0.26886707)
    99a -> 103a  :     0.018248 (c=  0.13508556)
   100a -> 110a  :     0.023255 (c= -0.15249712)
   101a -> 103a  :     0.041275 (c=  0.20316357)
   101a -> 104a  :     0.091917 (c= -0.30317747)
   102a -> 106a  :     0.025090 (c=  0.15839675)
   102a -> 107a  :     0.485648 (c= -0.69688418)
   102a -> 110a  :     0.012805 (c=  0.11315898)
   102a -> 111a  :     0.073532 (c= -0.27116818)
   102a -> 112a  :     0.035335 (c=  0.18797594)


-----------------------------
TD-DFT/TDA-EXCITATION SPECTRA
-----------------------------

Center of mass = ( -1.6966,  0.1721, -0.0967)
Calculating the Dipole integrals                  ... done
Transforming integrals                            ... done
Calculating the Linear Momentum integrals         ... done
Transforming integrals                            ... done
Calculating angular momentum integrals            ... done
Transforming integrals                            ... done

-----------------------------------------------------------------------------
         ABSORPTION SPECTRUM VIA TRANSITION ELECTRIC DIPOLE MOMENTS
-----------------------------------------------------------------------------
State   Energy    Wavelength  fosc         T2        TX        TY        TZ  
        (cm-1)      (nm)                 (au**2)    (au)      (au)      (au) 
-----------------------------------------------------------------------------
   1   25431.9    393.2   0.486486931   6.29750  -1.25307   0.12904   2.17041
   2   30772.9    325.0   1.143373223  12.23195  -3.45386   0.32531  -0.44380
   3   31660.7    315.8   0.002227446   0.02316  -0.11973   0.09367   0.00720
   4   32218.5    310.4   0.005525187   0.05646  -0.23620  -0.01916  -0.01734
   5   32490.5    307.8   0.049012612   0.49662   0.55977   0.03082   0.42700
   6   32974.2    303.3   0.026988069   0.26945  -0.45662   0.05424  -0.24083
   7   36979.4    270.4   0.038605926   0.34369   0.01103  -0.05269  -0.58378
   8   40804.7    245.1   0.020882782   0.16848   0.06107   0.04176   0.40374
   9   36404.6    274.7   0.200647270   1.81448   0.63077  -0.23750   1.16628
  10   38753.7    258.0   0.036384246   0.30908  -0.03414   0.06719  -0.55082

-----------------------------------------------------------------------------
         ABSORPTION SPECTRUM VIA TRANSITION VELOCITY DIPOLE MOMENTS
-----------------------------------------------------------------------------
State   Energy    Wavelength   fosc        P2         PX        PY        PZ  
        (cm-1)      (nm)                 (au**2)     (au)      (au)      (au) 
-----------------------------------------------------------------------------
   1   25431.9    393.2   0.062170673   0.01081   0.10190  -0.01857  -0.00877
   2   30772.9    325.0   0.813457169   0.17108   0.41168  -0.03951   0.00655
   3   31660.7    315.8   0.001948448   0.00042   0.01450  -0.01359  -0.00518
   4   32218.5    310.4   0.004650770   0.00102   0.03193   0.00074   0.00200
   5   32490.5    307.8   0.029178064   0.00648  -0.06670  -0.00400  -0.04489
   6   32974.2    303.3   0.003996075   0.00090  -0.02873   0.00232   0.00836
   7   36979.4    270.4   0.000261748   0.00007   0.00006  -0.00513  -0.00632
   8   40804.7    245.1   0.003218080   0.00090  -0.01078  -0.01495  -0.02362
   9   36404.6    274.7   0.075447214   0.01877  -0.11481   0.02143  -0.07163
  10   38753.7    258.0   0.015974254   0.00423  -0.02695   0.00307   0.05912

-------------------------------------------------------------------
                             CD SPECTRUM
-------------------------------------------------------------------
State  Energy     Wavelength     R         MX        MY        MZ   
       (cm-1)       (nm)     (1e40*cgs)   (au)      (au)      (au)  
-------------------------------------------------------------------
   1   25431.9    393.2    -21.00228  -0.06331  -0.70999  -0.01487
   2   30772.9    325.0     32.31213  -0.02912  -0.04860   0.03655
   3   31660.7    315.8     -7.01956   0.14828   0.06745  -0.47966
   4   32218.5    310.4    -28.78044   0.24634  -0.06601   0.23804
   5   32490.5    307.8    -28.72757  -0.02431  -0.41105  -0.08116
   6   32974.2    303.3      8.24023  -0.03632   0.02363   0.00161
   7   36979.4    270.4     -8.50418  -0.00171  -0.10713   0.04054
   8   40804.7    245.1     28.43473  -0.00913  -0.04652   0.15558
   9   36404.6    274.7    -21.12165   0.01138  -0.10302  -0.06555
  10   38753.7    258.0      7.50461   0.02280   0.23086  -0.00215

-------------------------------------------------------------------
         CD SPECTRUM VIA TRANSITION VELOCITY DIPOLE MOMENTS        
-------------------------------------------------------------------
State  Energy     Wavelength     R         MX        MY        MZ   
       (cm-1)       (nm)     (1e40*cgs)   (au)      (au)      (au)  
-------------------------------------------------------------------
   1   25431.9    393.2     27.92903  -0.06331  -0.70999  -0.01487
   2   30772.9    325.0    -33.04475  -0.02912  -0.04860   0.03655
   3   31660.7    315.8     12.14874   0.14828   0.06745  -0.47966
   4   32218.5    310.4     26.63247   0.24634  -0.06601   0.23804
   5   32490.5    307.8     22.00003  -0.02431  -0.41105  -0.08116
   6   32974.2    303.3      3.48831  -0.03632   0.02363   0.00161
   7   36979.4    270.4      0.81978  -0.00171  -0.10713   0.04054
   8   40804.7    245.1     -7.30525  -0.00913  -0.04652   0.15558
   9   36404.6    274.7      3.35762   0.01138  -0.10302  -0.06555
  10   38753.7    258.0     -0.08555   0.02280   0.23086  -0.00215

Total run time:    30730.215 sec

           *** ORCA-CIS/TD-DFT FINISHED WITHOUT ERROR ***

Maximum memory used throughout the entire CIS-calculation: 3107.0 MB

-----------------------
CIS/TD-DFT TOTAL ENERGY
-----------------------

    E(SCF)  =  -1901.142418286 Eh
    DE(CIS) =      0.115876211 Eh (Root  1)
    ----------------------------- ---------
    E(tot)  =  -1901.026542075 Eh



-------------------------------------------------------------------------------
                          DFT DISPERSION CORRECTION                            
                                                                               
                              DFTD3 V3.1  Rev 1                                
                          USING Becke-Johnson damping                          
-------------------------------------------------------------------------------
The B2PLYP functional is recognized
Active option DFTDOPT                   ...         4   

molecular C6(AA) [au] = 26790.632236 


            DFT-D V3
 parameters
 s6 scaling factor         :     0.6400 
 a1 scaling factor         :     0.3065 
 s8 scaling factor         :     0.9147 
 a2 scaling factor         :     5.0570 
 ad hoc parameters k1-k3   :    16.0000     1.3333    -4.0000 

 Edisp/kcal,au: -34.989643415529  -0.055759540102 
 E6   /kcal   : -19.044002376 
 E8   /kcal   : -15.945641039 
 % E8         :  45.572459399 

-------------------------   ----------------
Dispersion correction           -0.055759540
-------------------------   ----------------


-------------------------   --------------------
FINAL SINGLE POINT ENERGY     -1901.082301614904
-------------------------   --------------------


                            ***************************************
                            *     ORCA property calculations      *
                            ***************************************


  WARNING: The energy has been calculated at the MP2 level but the densities
           used in the property calculations are still SCF densities
           MP2 response densities have not been calculated 
           use %mp2 Density relaxed end
           or  %mp2 Density unrelaxed end

                                    ---------------------
                                    Active property flags
                                    ---------------------
   (+) Dipole Moment


------------------------------------------------------------------------------
                       ORCA ELECTRIC PROPERTIES CALCULATION
------------------------------------------------------------------------------

Dipole Moment Calculation                       ... on
Quadrupole Moment Calculation                   ... off
Polarizability Calculation                      ... off
GBWName                                         ... optpbed3-b2plyp-test-306_job2.gbw
Electron density                                ... optpbed3-b2plyp-test-306_job2.scfp
The origin for moment calculation is the CENTER OF MASS  = (-1.696637,  0.172073 -0.096686)

-------------
DIPOLE MOMENT
-------------
                                X             Y             Z
Electronic contribution:    -21.59319       2.47283       1.55018
Nuclear contribution   :     26.67478      -2.85656      -0.06643
                        -----------------------------------------
Total Dipole Moment    :      5.08159      -0.38373       1.48376
                        -----------------------------------------
Magnitude (a.u.)       :      5.30767
Magnitude (Debye)      :     13.49103



--------------------
Rotational spectrum 
--------------------
 
Rotational constants in cm-1:     0.010620     0.002797     0.002300 
Rotational constants in MHz :   318.383775    83.852583    68.939055 

 Dipole components along the rotational axes: 
x,y,z [a.u.] :    -5.119366     1.399959    -0.060009 
x,y,z [Debye]:   -13.012395     3.558412    -0.152532 

 

Timings for individual modules:

Sum of individual times         ...    36858.233 sec (= 614.304 min)
GTO integral calculation        ...        8.387 sec (=   0.140 min)   0.0 %
SCF iterations                  ...     2725.339 sec (=  45.422 min)   7.4 %
MP2 module                      ...     3386.139 sec (=  56.436 min)   9.2 %
CIS module                      ...    30738.369 sec (= 512.306 min)  83.4 %



                             ****ORCA TERMINATED NORMALLY****
TOTAL RUN TIME: 0 days 19 hours 6 minutes 9 seconds 818 msec
