
                                 *****************
                                 * O   R   C   A *
                                 *****************

                                            #,                                       
                                            ###                                      
                                            ####                                     
                                            #####                                    
                                            ######                                   
                                           ########,                                 
                                     ,,################,,,,,                         
                               ,,#################################,,                 
                          ,,##########################################,,             
                       ,#########################################, ''#####,          
                    ,#############################################,,   '####,        
                  ,##################################################,,,,####,       
                ,###########''''           ''''###############################       
              ,#####''   ,,,,##########,,,,          '''####'''          '####       
            ,##' ,,,,###########################,,,                        '##       
           ' ,,###''''                  '''############,,,                           
         ,,##''                                '''############,,,,        ,,,,,,###''
      ,#''                                            '''#######################'''  
     '                                                          ''''####''''         
             ,#######,   #######,   ,#######,      ##                                
            ,#'     '#,  ##    ##  ,#'     '#,    #''#        ######   ,####,        
            ##       ##  ##   ,#'  ##            #'  '#       #        #'  '#        
            ##       ##  #######   ##           ,######,      #####,   #    #        
            '#,     ,#'  ##    ##  '#,     ,#' ,#      #,         ##   #,  ,#        
             '#######'   ##     ##  '#######'  #'      '#     #####' # '####'        



                  #######################################################
                  #                        -***-                        #
                  #          Department of theory and spectroscopy      #
                  #    Directorship and core code : Frank Neese         #
                  #        Max Planck Institute fuer Kohlenforschung    #
                  #                Kaiser Wilhelm Platz 1               #
                  #                 D-45470 Muelheim/Ruhr               #
                  #                      Germany                        #
                  #                                                     #
                  #                  All rights reserved                #
                  #                        -***-                        #
                  #######################################################


                         Program Version 5.0.2 -  RELEASE  -


 With contributions from (in alphabetic order):
   Daniel Aravena         : Magnetic Suceptibility
   Michael Atanasov       : Ab Initio Ligand Field Theory (pilot matlab implementation)
   Alexander A. Auer      : GIAO ZORA, VPT2 properties, NMR spectrum
   Ute Becker             : Parallelization
   Giovanni Bistoni       : ED, misc. LED, open-shell LED, HFLD
   Martin Brehm           : Molecular dynamics
   Dmytro Bykov           : SCF Hessian
   Vijay G. Chilkuri      : MRCI spin determinant printing, contributions to CSF-ICE
   Dipayan Datta          : RHF DLPNO-CCSD density
   Achintya Kumar Dutta   : EOM-CC, STEOM-CC
   Dmitry Ganyushin       : Spin-Orbit,Spin-Spin,Magnetic field MRCI
   Miquel Garcia          : C-PCM and meta-GGA Hessian, CC/C-PCM, Gaussian charge scheme
   Yang Guo               : DLPNO-NEVPT2, F12-NEVPT2, CIM, IAO-localization
   Andreas Hansen         : Spin unrestricted coupled pair/coupled cluster methods
   Benjamin Helmich-Paris : MC-RPA, TRAH-SCF, COSX integrals
   Lee Huntington         : MR-EOM, pCC
   Robert Izsak           : Overlap fitted RIJCOSX, COSX-SCS-MP3, EOM
   Marcus Kettner         : VPT2
   Christian Kollmar      : KDIIS, OOCD, Brueckner-CCSD(T), CCSD density, CASPT2, CASPT2-K
   Simone Kossmann        : Meta GGA functionals, TD-DFT gradient, OOMP2, MP2 Hessian
   Martin Krupicka        : Initial AUTO-CI
   Lucas Lang             : DCDCAS
   Marvin Lechner         : AUTO-CI (C++ implementation), FIC-MRCC
   Dagmar Lenk            : GEPOL surface, SMD
   Dimitrios Liakos       : Extrapolation schemes; Compound Job, initial MDCI parallelization
   Dimitrios Manganas     : Further ROCIS development; embedding schemes
   Dimitrios Pantazis     : SARC Basis sets
   Anastasios Papadopoulos: AUTO-CI, single reference methods and gradients
   Taras Petrenko         : DFT Hessian,TD-DFT gradient, ASA, ECA, R-Raman, ABS, FL, XAS/XES, NRVS
   Peter Pinski           : DLPNO-MP2, DLPNO-MP2 Gradient
   Christoph Reimann      : Effective Core Potentials
   Marius Retegan         : Local ZFS, SOC
   Christoph Riplinger    : Optimizer, TS searches, QM/MM, DLPNO-CCSD(T), (RO)-DLPNO pert. Triples
   Tobias Risthaus        : Range-separated hybrids, TD-DFT gradient, RPA, STAB
   Michael Roemelt        : Original ROCIS implementation
   Masaaki Saitow         : Open-shell DLPNO-CCSD energy and density
   Barbara Sandhoefer     : DKH picture change effects
   Avijit Sen             : IP-ROCIS
   Kantharuban Sivalingam : CASSCF convergence, NEVPT2, FIC-MRCI
   Bernardo de Souza      : ESD, SOC TD-DFT
   Georgi Stoychev        : AutoAux, RI-MP2 NMR, DLPNO-MP2 response
   Willem Van den Heuvel  : Paramagnetic NMR
   Boris Wezisla          : Elementary symmetry handling
   Frank Wennmohs         : Technical directorship


 We gratefully acknowledge several colleagues who have allowed us to
 interface, adapt or use parts of their codes:
   Stefan Grimme, W. Hujo, H. Kruse, P. Pracht,  : VdW corrections, initial TS optimization,
                  C. Bannwarth, S. Ehlert          DFT functionals, gCP, sTDA/sTD-DF
   Ed Valeev, F. Pavosevic, A. Kumar             : LibInt (2-el integral package), F12 methods
   Garnet Chan, S. Sharma, J. Yang, R. Olivares  : DMRG
   Ulf Ekstrom                                   : XCFun DFT Library
   Mihaly Kallay                                 : mrcc  (arbitrary order and MRCC methods)
   Jiri Pittner, Ondrej Demel                    : Mk-CCSD
   Frank Weinhold                                : gennbo (NPA and NBO analysis)
   Christopher J. Cramer and Donald G. Truhlar   : smd solvation model
   Lars Goerigk                                  : TD-DFT with DH, B97 family of functionals
   V. Asgeirsson, H. Jonsson                     : NEB implementation
   FAccTs GmbH                                   : IRC, NEB, NEB-TS, DLPNO-Multilevel, CI-OPT
                                                   MM, QMMM, 2- and 3-layer-ONIOM, Crystal-QMMM,
                                                   LR-CPCM, SF, NACMEs, symmetry and pop. for TD-DFT,
                                                   nearIR, NL-DFT gradient (VV10), updates on ESD,
                                                   ML-optimized integration grids
   S Lehtola, MJT Oliveira, MAL Marques          : LibXC Library
   Liviu Ungur et al                             : ANISO software


 Your calculation uses the libint2 library for the computation of 2-el integrals
 For citations please refer to: http://libint.valeyev.net

 Your ORCA version has been built with support for libXC version: 5.1.0
 For citations please refer to: https://tddft.org/programs/libxc/

 This ORCA versions uses:
   CBLAS   interface :  Fast vector & matrix operations
   LAPACKE interface :  Fast linear algebra routines
   SCALAPACK package :  Parallel linear algebra routines
   Shared memory     :  Shared parallel matrices
   BLAS/LAPACK       :  OpenBLAS 0.3.15  USE64BITINT DYNAMIC_ARCH NO_AFFINITY Haswell SINGLE_THREADED
        Core in use  :  Haswell
   Copyright (c) 2011-2014, The OpenBLAS Project


Your calculation utilizes the atom-pairwise dispersion correction
with the Becke-Johnson damping scheme (D3BJ)
Cite in your paper:
S.Grimme, S.Ehrlich, L.Goerigk, J Comput Chem, (2011), 32, 1456–1465 
S.Grimme, J.Antony, S.Ehrlich and H.Krieg, J.Chem.Phys., 132, (2010), 154104 
   

Your calculation utilizes the SMD solvation module
Please cite in your paper:
A.V. Marenich, C.J. Cramer, D.G. Truhlar J. Phys. Chem. B, 113, (2009), 6378 

================================================================================

----- Orbital basis set information -----
Your calculation utilizes the basis: aug-cc-pVTZ 
    H, B-Ne : Obtained from the ccRepo (grant-hill.group.shef.ac.uk/ccrepo) Feb. 2017
              R. A. Kendall, T. H. Dunning, Jr., R. J. Harrison, J. Chem. Phys. 96, 6796 (1992)
         He : Obtained from the ccRepo (grant-hill.group.shef.ac.uk/ccrepo) Feb. 2017
              D. E. Woon, T. H. Dunning, Jr., J. Chem. Phys. 100, 2975 (1994)
  Li-Be, Na : Obtained from the ccRepo (grant-hill.group.shef.ac.uk/ccrepo) Feb. 2017
              B. P. Prascher, D. E. Woon, K. A. Peterson, T. H. Dunning, Jr., A. K. Wilson, Theor. Chem. Acc. 128, 69 (2011)
         Mg : Obtained from the Peterson Research Group Website (tyr0.chem.wsu.edu/~kipeters) Feb. 2017
              B. P. Prascher, D. E. Woon, K. A. Peterson, T. H. Dunning, Jr., A. K. Wilson, Theor. Chem. Acc. 128, 69 (2011)
      Al-Ar : Obtained from the ccRepo (grant-hill.group.shef.ac.uk/ccrepo) Feb. 2017
              D. E. Woon, T. H. Dunning, Jr., J. Chem. Phys. 98, 1358 (1993)
      Sc-Zn : Obtained from the ccRepo (grant-hill.group.shef.ac.uk/ccrepo) Feb. 2017
              N. B. Balabanov, K. A. Peterson, J. Chem. Phys. 123, 064107 (2005)
              N. B. Balabanov, K. A. Peterson, J. Chem. Phys. 125, 074110 (2006)
      Ga-Kr : Obtained from the ccRepo (grant-hill.group.shef.ac.uk/ccrepo) Feb. 2017
              A. K. Wilson, D. E. Woon, K. A. Peterson, T. H. Dunning, Jr., J. Chem. Phys. 110, 7667 (1999)
     Ag, Au : Obtained from the Peterson Research Group Website (tyr0.chem.wsu.edu/~kipeters) Feb. 2017
              K. A. Peterson, C. Puzzarini, Theor. Chem. Acc. 114, 283 (2005)

The basis set includes element-specific modifications.

Your calculation utilizes the basis: cc-pVTZ 
       H, B-Ne : Obtained from the ccRepo (grant-hill.group.shef.ac.uk/ccrepo) Feb. 2017
                 T. H. Dunning, Jr., J. Chem. Phys. 90, 1007 (1989)
            He : Obtained from the ccRepo (grant-hill.group.shef.ac.uk/ccrepo) Feb. 2017
                 D. E. Woon, T. H. Dunning, Jr., J. Chem. Phys. 100, 2975 (1994)
  Li-Be, Na-Mg : Obtained from the ccRepo (grant-hill.group.shef.ac.uk/ccrepo) Feb. 2017
                 B. P. Prascher, D. E. Woon, K. A. Peterson, T. H. Dunning, Jr., A. K. Wilson, Theor. Chem. Acc. 128, 69 (2011)
         Al-Ar : Obtained from the ccRepo (grant-hill.group.shef.ac.uk/ccrepo) Feb. 2017
                 D. E. Woon, T. H. Dunning, Jr., J. Chem. Phys. 98, 1358 (1993)
            Ca : Obtained from the Peterson Research Group Website (tyr0.chem.wsu.edu/~kipeters) Feb. 2017
                 J. Koput, K. A. Peterson, J. Phys. Chem. 106, 9595 (2002)
         Sc-Zn : Obtained from the ccRepo (grant-hill.group.shef.ac.uk/ccrepo) Feb. 2017
                 N. B. Balabanov, K. A. Peterson, J. Chem. Phys. 123, 064107 (2005)
                 N. B. Balabanov, K. A. Peterson, J. Chem. Phys. 125, 074110 (2006)
         Ga-Kr : Obtained from the ccRepo (grant-hill.group.shef.ac.uk/ccrepo) Feb. 2017
                 A. K. Wilson, D. E. Woon, K. A. Peterson, T. H. Dunning, Jr., J. Chem. Phys. 110, 7667 (1999)
             Y : Obtained from the ccRepo (grant-hill.group.shef.ac.uk/ccrepo) Feb. 2017
                 K. A. Peterson, D. Figgen, M. Dolg, H. Stoll, J. Chem. Phys. 126, 124101 (2007)
        Ag, Au : Obtained from the Peterson Research Group Website (tyr0.chem.wsu.edu/~kipeters) Feb. 2017
                 K. A. Peterson, C. Puzzarini, Theor. Chem. Acc. 114, 283 (2005)

----- AuxJ basis set information -----
Your calculation utilizes the auxiliary basis: aug-cc-pVTZ/JK 
  H, B-F, Al-Cl, Ga-Br : Obtained from the TURBOMOLE 7.0 basis set library

The basis set includes element-specific modifications.

Your calculation utilizes the auxiliary basis: cc-pVTZ/JK 
  H, B-F, Al-Cl, Ga-Br : Obtained from the TURBOMOLE 7.0 basis set library

----- AuxC basis set information -----
Your calculation utilizes the auxiliary basis: aug-cc-pVTZ/C 
  H-He, B-F, Al-Ar, Ga-Kr : Obtained from the EMSL Basis Set Exchange (bse.pnl.gov) Feb. 2017
                            F. Weigend, A. Kohn, C. Hattig, J. Chem. Phys. 116, 3175 (2002)
                   Be, Mg : Obtained from the TURBOMOLE 7.0 basis set library
                            C. Haettig, Phys. Chem. Chem. Phys. 7, 59 (2005)
                       Ne : Obtained from the EMSL Basis Set Exchange (bse.pnl.gov) Feb. 2017
                            C. Haettig, Phys. Chem. Chem. Phys. 7, 59 (2005)
                            F. Weigend, A. Kohn, C. Hattig, J. Chem. Phys. 116, 3175 (2002)
                    Sc-Zn : Obtained from the EMSL Basis Set Exchange (bse.pnl.gov) Feb. 2017
                            J. G. Hill, J. A. Platts, J. Chem. Phys. 128, 044104 (2008)

The basis set includes element-specific modifications.

Your calculation utilizes the auxiliary basis: cc-pVTZ/C 
  Obtained from the EMSL Basis Set Exchange (bse.pnl.gov) Feb. 2017
  H-He, B-F, Al-Ar, Ga-Kr : F. Weigend, A. Kohn, C. Hattig, J. Chem. Phys. 116, 3175 (2002)
             Li-Be, Na-Mg : C. Haettig, Phys. Chem. Chem. Phys. 7, 59 (2005)
                       Ne : C. Haettig, Phys. Chem. Chem. Phys. 7, 59 (2005)
                            F. Weigend, A. Kohn, C. Hattig, J. Chem. Phys. 116, 3175 (2002)
                    Sc-Zn : J. G. Hill, J. A. Platts, J. Chem. Phys. 128, 044104 (2008)

================================================================================
                                        WARNINGS
                       Please study these warnings very carefully!
================================================================================


WARNING: Geometry Optimization
  ===> : Switching off AutoStart
         For restart on a previous wavefunction, please use MOREAD

INFO   : the flag for use of the SHARK integral package has been found!



***************************************
The coordinates will be read from file: 
***************************************


Your calculation utilizes the atom-pairwise dispersion correction
with the Becke-Johnson damping scheme (D3BJ)
Cite in your paper:
S.Grimme, S.Ehrlich, L.Goerigk, J Comput Chem, (2011), 32, 1456–1465 
S.Grimme, J.Antony, S.Ehrlich and H.Krieg, J.Chem.Phys., 132, (2010), 154104 
   

Your calculation utilizes the SMD solvation module
Please cite in your paper:
A.V. Marenich, C.J. Cramer, D.G. Truhlar J. Phys. Chem. B, 113, (2009), 6378 

================================================================================

----- Orbital basis set information -----
Your calculation utilizes the basis: aug-cc-pVTZ 
    H, B-Ne : Obtained from the ccRepo (grant-hill.group.shef.ac.uk/ccrepo) Feb. 2017
              R. A. Kendall, T. H. Dunning, Jr., R. J. Harrison, J. Chem. Phys. 96, 6796 (1992)
         He : Obtained from the ccRepo (grant-hill.group.shef.ac.uk/ccrepo) Feb. 2017
              D. E. Woon, T. H. Dunning, Jr., J. Chem. Phys. 100, 2975 (1994)
  Li-Be, Na : Obtained from the ccRepo (grant-hill.group.shef.ac.uk/ccrepo) Feb. 2017
              B. P. Prascher, D. E. Woon, K. A. Peterson, T. H. Dunning, Jr., A. K. Wilson, Theor. Chem. Acc. 128, 69 (2011)
         Mg : Obtained from the Peterson Research Group Website (tyr0.chem.wsu.edu/~kipeters) Feb. 2017
              B. P. Prascher, D. E. Woon, K. A. Peterson, T. H. Dunning, Jr., A. K. Wilson, Theor. Chem. Acc. 128, 69 (2011)
      Al-Ar : Obtained from the ccRepo (grant-hill.group.shef.ac.uk/ccrepo) Feb. 2017
              D. E. Woon, T. H. Dunning, Jr., J. Chem. Phys. 98, 1358 (1993)
      Sc-Zn : Obtained from the ccRepo (grant-hill.group.shef.ac.uk/ccrepo) Feb. 2017
              N. B. Balabanov, K. A. Peterson, J. Chem. Phys. 123, 064107 (2005)
              N. B. Balabanov, K. A. Peterson, J. Chem. Phys. 125, 074110 (2006)
      Ga-Kr : Obtained from the ccRepo (grant-hill.group.shef.ac.uk/ccrepo) Feb. 2017
              A. K. Wilson, D. E. Woon, K. A. Peterson, T. H. Dunning, Jr., J. Chem. Phys. 110, 7667 (1999)
     Ag, Au : Obtained from the Peterson Research Group Website (tyr0.chem.wsu.edu/~kipeters) Feb. 2017
              K. A. Peterson, C. Puzzarini, Theor. Chem. Acc. 114, 283 (2005)

The basis set includes element-specific modifications.

Your calculation utilizes the basis: cc-pVTZ 
       H, B-Ne : Obtained from the ccRepo (grant-hill.group.shef.ac.uk/ccrepo) Feb. 2017
                 T. H. Dunning, Jr., J. Chem. Phys. 90, 1007 (1989)
            He : Obtained from the ccRepo (grant-hill.group.shef.ac.uk/ccrepo) Feb. 2017
                 D. E. Woon, T. H. Dunning, Jr., J. Chem. Phys. 100, 2975 (1994)
  Li-Be, Na-Mg : Obtained from the ccRepo (grant-hill.group.shef.ac.uk/ccrepo) Feb. 2017
                 B. P. Prascher, D. E. Woon, K. A. Peterson, T. H. Dunning, Jr., A. K. Wilson, Theor. Chem. Acc. 128, 69 (2011)
         Al-Ar : Obtained from the ccRepo (grant-hill.group.shef.ac.uk/ccrepo) Feb. 2017
                 D. E. Woon, T. H. Dunning, Jr., J. Chem. Phys. 98, 1358 (1993)
            Ca : Obtained from the Peterson Research Group Website (tyr0.chem.wsu.edu/~kipeters) Feb. 2017
                 J. Koput, K. A. Peterson, J. Phys. Chem. 106, 9595 (2002)
         Sc-Zn : Obtained from the ccRepo (grant-hill.group.shef.ac.uk/ccrepo) Feb. 2017
                 N. B. Balabanov, K. A. Peterson, J. Chem. Phys. 123, 064107 (2005)
                 N. B. Balabanov, K. A. Peterson, J. Chem. Phys. 125, 074110 (2006)
         Ga-Kr : Obtained from the ccRepo (grant-hill.group.shef.ac.uk/ccrepo) Feb. 2017
                 A. K. Wilson, D. E. Woon, K. A. Peterson, T. H. Dunning, Jr., J. Chem. Phys. 110, 7667 (1999)
             Y : Obtained from the ccRepo (grant-hill.group.shef.ac.uk/ccrepo) Feb. 2017
                 K. A. Peterson, D. Figgen, M. Dolg, H. Stoll, J. Chem. Phys. 126, 124101 (2007)
        Ag, Au : Obtained from the Peterson Research Group Website (tyr0.chem.wsu.edu/~kipeters) Feb. 2017
                 K. A. Peterson, C. Puzzarini, Theor. Chem. Acc. 114, 283 (2005)

----- AuxJ basis set information -----
Your calculation utilizes the auxiliary basis: aug-cc-pVTZ/JK 
  H, B-F, Al-Cl, Ga-Br : Obtained from the TURBOMOLE 7.0 basis set library

The basis set includes element-specific modifications.

Your calculation utilizes the auxiliary basis: cc-pVTZ/JK 
  H, B-F, Al-Cl, Ga-Br : Obtained from the TURBOMOLE 7.0 basis set library

----- AuxC basis set information -----
Your calculation utilizes the auxiliary basis: aug-cc-pVTZ/C 
  H-He, B-F, Al-Ar, Ga-Kr : Obtained from the EMSL Basis Set Exchange (bse.pnl.gov) Feb. 2017
                            F. Weigend, A. Kohn, C. Hattig, J. Chem. Phys. 116, 3175 (2002)
                   Be, Mg : Obtained from the TURBOMOLE 7.0 basis set library
                            C. Haettig, Phys. Chem. Chem. Phys. 7, 59 (2005)
                       Ne : Obtained from the EMSL Basis Set Exchange (bse.pnl.gov) Feb. 2017
                            C. Haettig, Phys. Chem. Chem. Phys. 7, 59 (2005)
                            F. Weigend, A. Kohn, C. Hattig, J. Chem. Phys. 116, 3175 (2002)
                    Sc-Zn : Obtained from the EMSL Basis Set Exchange (bse.pnl.gov) Feb. 2017
                            J. G. Hill, J. A. Platts, J. Chem. Phys. 128, 044104 (2008)

The basis set includes element-specific modifications.

Your calculation utilizes the auxiliary basis: cc-pVTZ/C 
  Obtained from the EMSL Basis Set Exchange (bse.pnl.gov) Feb. 2017
  H-He, B-F, Al-Ar, Ga-Kr : F. Weigend, A. Kohn, C. Hattig, J. Chem. Phys. 116, 3175 (2002)
             Li-Be, Na-Mg : C. Haettig, Phys. Chem. Chem. Phys. 7, 59 (2005)
                       Ne : C. Haettig, Phys. Chem. Chem. Phys. 7, 59 (2005)
                            F. Weigend, A. Kohn, C. Hattig, J. Chem. Phys. 116, 3175 (2002)
                    Sc-Zn : J. G. Hill, J. A. Platts, J. Chem. Phys. 128, 044104 (2008)

================================================================================
                                        WARNINGS
                       Please study these warnings very carefully!
================================================================================

INFO   : Checking CIS options ...
  ===> : (D) CORRECTION FOUND - SETTING MODE=3
  ===> : JK MODE FOUND - ACTIVATING RI-MP2 CODE
  ===> : MP2 AND CIS FOUND - CHECKING
WARNING: CIS(D) and MP2 runs must have the same orbital window
  ===> : adjusting orbital windows

WARNING: No MP2 level density has been requested!
         To caclulate MP2 level properties use
         %mp2 Density relaxed end
         or
         %mp2 Density unrelaxed end
         Otherwise for double-hybrid DFT only the energy is correct!

WARNING: The frozen-core approximation is turned on by default for 
         the MP2 part of double-hybrid DFT.

INFO   : the flag for use of the SHARK integral package has been found!

================================================================================
                                       INPUT FILE
================================================================================
NAME = optpbed3-b2plyp-test-124.inp
|  1> ! pbe0 d3bj aug-cc-PVTZ RIJCOSX Opt
|  2> %maxcore 4000
|  3> %basis
|  4>  AuxJ "aug-cc-PVTZ/JK"
|  5>  AuxC "aug-cc-PVTZ/C"
|  6>  newGTO H "cc-PVTZ" end
|  7>  newAuxJGTO H "cc-PVTZ/JK" end
|  8>  newAuxCGTO H "cc-PVTZ/C" end
|  9> end
| 10> %cpcm
| 11>  SMD true
| 12>  SMDsolvent "benzene"
| 13> end
| 14> %pal nprocs 4 end
| 15> * xyz 0 1
| 16> C          3.18270       -4.34670        2.92730
| 17> C          3.76400       -2.94420        2.81530
| 18> O          2.77570       -1.99850        2.41590
| 19> C          2.49930       -1.92560        1.10670
| 20> O          3.05970       -2.59230        0.25300
| 21> C          1.47620       -0.95250        0.81580
| 22> S          0.72700       -0.00610        2.08640
| 23> C         -0.23610        0.81880        0.90710
| 24> N         -1.10460        1.76060        1.22040
| 25> C         -1.79810        2.34150        0.25810
| 26> C         -2.75140        3.40200        0.70760
| 27> C         -1.64590        2.00030       -1.10150
| 28> C         -2.46990        2.63830       -2.18160
| 29> C         -3.73160        1.81380       -2.45370
| 30> C         -0.72710        1.00140       -1.42780
| 31> C         -0.53710        0.62590       -2.77660
| 32> N         -0.37430        0.31350       -3.86930
| 33> C          0.01430        0.37350       -0.40980
| 34> C          1.00720       -0.65830       -0.45600
| 35> N          1.42420       -1.30320       -1.56140
| 36> H          2.85150       -4.68910        1.95000
| 37> H          3.94240       -5.02750        3.30040
| 38> H          2.33550       -4.34800        3.60900
| 39> H          4.12020       -2.58620        3.78330
| 40> H          4.58230       -2.93190        2.08720
| 41> H         -2.73570        3.44490        1.79240
| 42> H         -2.45610        4.37290        0.31190
| 43> H         -3.76290        3.18810        0.36960
| 44> H         -1.88440        2.69780       -3.10220
| 45> H         -2.75140        3.65060       -1.89170
| 46> H         -3.46490        0.82020       -2.80730
| 47> H         -4.33720        2.29830       -3.21520
| 48> H         -4.32830        1.70840       -1.55020
| 49> H          2.17620       -1.96670       -1.43460
| 50> H          1.15780       -0.99420       -2.47880
| 51> *
| 52> 
| 53> 
| 54> $new_job
| 55> ! b2plyp aug-cc-PVTZ RIJCOSX SP
| 56> %maxcore 4000
| 57> %basis
| 58>  AuxJ "aug-cc-PVTZ/JK"
| 59>  AuxC "aug-cc-PVTZ/C"
| 60>  newGTO H "cc-PVTZ" end
| 61>  newAuxJGTO H "cc-PVTZ/JK" end
| 62>  newAuxCGTO H "cc-PVTZ/C" end
| 63> end
| 64> %cpcm
| 65>  SMD true
| 66>  SMDsolvent "benzene"
| 67> end
| 68> %pal nprocs 4 end
| 69> %tddft
| 70>  nroots 10
| 71>  maxdim 7
| 72> end
| 73> * xyzfile 0 1
| 74> 
| 75>                          ****END OF INPUT****
================================================================================


                 $$$$$$$$$$$$$$$$$$$$$$$$$$$$$$$$$$$$$$$$$$$$$$ 
                 $ THERE ARE  2 JOBS TO BE PROCESSED THIS RUN $
                 $$$$$$$$$$$$$$$$$$$$$$$$$$$$$$$$$$$$$$$$$$$$$$ 




                 $$$$$$$$$$$$$$$$  JOB NUMBER  1 $$$$$$$$$$$$$$


                       *****************************
                       * Geometry Optimization Run *
                       *****************************

Geometry optimization settings:
Update method            Update   .... BFGS
Choice of coordinates    CoordSys .... Z-matrix Internals
Initial Hessian          InHess   .... Almoef's Model

Convergence Tolerances:
Energy Change            TolE     ....  5.0000e-06 Eh
Max. Gradient            TolMAXG  ....  3.0000e-04 Eh/bohr
RMS Gradient             TolRMSG  ....  1.0000e-04 Eh/bohr
Max. Displacement        TolMAXD  ....  4.0000e-03 bohr
RMS Displacement         TolRMSD  ....  2.0000e-03 bohr
Strict Convergence                ....  False
------------------------------------------------------------------------------
                        ORCA OPTIMIZATION COORDINATE SETUP
------------------------------------------------------------------------------

The optimization will be done in new redundant internal coordinates
Making redundant internal coordinates   ...  (new redundants) done
Evaluating the initial hessian          ...  (Almloef) done
Evaluating the coordinates              ...  done
Calculating the B-matrix                .... done
Calculating the G-matrix                .... done
Diagonalizing the G-matrix              .... done
Small eigenvalue found = 5.015e-03
Small eigenvalue found = 8.959e-03
Small eigenvalue found = 1.843e-02
Small eigenvalue found = 2.177e-02
Small eigenvalue found = 2.678e-02
The first mode is                       ....   74
The number of degrees of freedom        ....   99

    -----------------------------------------------------------------
                    Redundant Internal Coordinates


    -----------------------------------------------------------------
         Definition                    Initial Value    Approx d2E/dq
    -----------------------------------------------------------------
      1. B(C   1,C   0)                  1.5223         0.384264   
      2. B(O   2,C   1)                  1.4250         0.492092   
      3. B(C   3,O   2)                  1.3400         0.672323   
      4. B(O   4,C   3)                  1.2196         1.046628   
      5. B(C   5,C   3)                  1.4416         0.516863   
      6. B(S   6,C   5)                  1.7525         0.444730   
      7. B(C   7,S   6)                  1.7317         0.480123   
      8. B(N   8,C   7)                  1.3189         0.726688   
      9. B(C   9,N   8)                  1.3208         0.721677   
     10. B(C  10,C   9)                  1.4952         0.424589   
     11. B(C  11,C   9)                  1.4100         0.580541   
     12. B(C  12,C  11)                  1.5009         0.415757   
     13. B(C  13,C  12)                  1.5316         0.371418   
     14. B(C  14,C  11)                  1.3959         0.611457   
     15. B(C  15,C  14)                  1.4129         0.574329   
     16. B(N  16,C  15)                  1.1481         1.360947   
     17. B(C  17,C  14)                  1.4072         0.586505   
     18. B(C  17,C   7)                  1.4125         0.575184   
     19. B(C  18,C  17)                  1.4327         0.534111   
     20. B(C  18,C   5)                  1.3871         0.631536   
     21. B(N  19,C  18)                  1.3460         0.657790   
     22. B(H  20,C   0)                  1.0872         0.363797   
     23. B(H  21,C   0)                  1.0862         0.365159   
     24. B(H  22,C   0)                  1.0874         0.363540   
     25. B(H  23,C   1)                  1.0918         0.357703   
     26. B(H  24,C   1)                  1.0954         0.353030   
     27. B(H  25,C  10)                  1.0858         0.365751   
     28. B(H  26,C  10)                  1.0892         0.361117   
     29. B(H  27,C  10)                  1.0877         0.363132   
     30. B(H  28,C  12)                  1.0926         0.356629   
     31. B(H  29,C  12)                  1.0900         0.360139   
     32. B(H  30,C  13)                  1.0878         0.362965   
     33. B(H  31,C  13)                  1.0869         0.364211   
     34. B(H  32,C  13)                  1.0879         0.362922   
     35. B(H  33,N  19)                  1.0108         0.431361   
     36. B(H  34,N  19)                  1.0040         0.442306   
     37. A(H  20,C   0,H  22)          109.0145         0.291742   
     38. A(H  21,C   0,H  22)          109.1974         0.291914   
     39. A(H  20,C   0,H  21)          108.9313         0.291946   
     40. A(C   1,C   0,H  21)          109.6114         0.326575   
     41. A(C   1,C   0,H  22)          110.1649         0.326336   
     42. A(C   1,C   0,H  20)          109.8972         0.326374   
     43. A(C   0,C   1,H  24)          110.1515         0.324766   
     44. A(O   2,C   1,H  24)          108.9263         0.336289   
     45. A(C   0,C   1,O   2)          111.5434         0.380459   
     46. A(O   2,C   1,H  23)          104.9013         0.337026   
     47. A(C   0,C   1,H  23)          111.1883         0.325468   
     48. A(H  23,C   1,H  24)          109.9934         0.289632   
     49. A(C   1,O   2,C   3)          116.9355         0.417078   
     50. A(O   2,C   3,O   4)          124.0124         0.478187   
     51. A(O   4,C   3,C   5)          123.6321         0.458742   
     52. A(O   2,C   3,C   5)          112.3488         0.423498   
     53. A(S   6,C   5,C  18)          113.9330         0.432970   
     54. A(C   3,C   5,S   6)          121.4398         0.417719   
     55. A(C   3,C   5,C  18)          124.6209         0.421529   
     56. A(C   5,S   6,C   7)           90.0721         0.434974   
     57. A(N   8,C   7,C  17)          124.2860         0.437775   
     58. A(S   6,C   7,C  17)          112.7148         0.431658   
     59. A(S   6,C   7,N   8)          122.9991         0.447307   
     60. A(C   7,N   8,C   9)          119.1282         0.453133   
     61. A(C  10,C   9,C  11)          122.0294         0.401049   
     62. A(N   8,C   9,C  11)          122.6458         0.437961   
     63. A(N   8,C   9,C  10)          115.3219         0.414107   
     64. A(H  25,C  10,H  27)          109.3710         0.291937   
     65. A(H  26,C  10,H  27)          108.3313         0.291352   
     66. A(C   9,C  10,H  27)          111.1010         0.331696   
     67. A(H  25,C  10,H  26)          108.8942         0.291681   
     68. A(C   9,C  10,H  26)          110.4972         0.331391   
     69. A(C   9,C  10,H  25)          108.6132         0.332091   
     70. A(C   9,C  11,C  14)          118.0098         0.427902   
     71. A(C  12,C  11,C  14)          119.8244         0.403237   
     72. A(C   9,C  11,C  12)          122.1269         0.399568   
     73. A(C  11,C  12,C  13)          110.5660         0.369708   
     74. A(C  13,C  12,H  29)          109.5403         0.324016   
     75. A(C  13,C  12,H  28)          108.7273         0.323496   
     76. A(C  11,C  12,H  28)          109.5902         0.329558   
     77. A(C  11,C  12,H  29)          110.1927         0.330092   
     78. A(H  28,C  12,H  29)          108.1745         0.290402   
     79. A(H  30,C  13,H  32)          108.4174         0.291559   
     80. A(H  30,C  13,H  31)          108.4218         0.291722   
     81. A(H  31,C  13,H  32)          108.6294         0.291716   
     82. A(C  12,C  13,H  31)          110.0903         0.324615   
     83. A(C  12,C  13,H  30)          110.3333         0.324432   
     84. A(C  12,C  13,H  32)          110.8828         0.324426   
     85. A(C  15,C  14,C  17)          120.0762         0.423905   
     86. A(C  11,C  14,C  17)          119.8010         0.428687   
     87. A(C  11,C  14,C  15)          120.1221         0.427078   
     88. L(C  14,C  15,N  16,C  17, 2) 180.0645         0.490860   
     89. L(C  14,C  15,N  16,C  17, 1) 179.4219         0.490860   
     90. A(C  14,C  17,C  18)          131.5403         0.418447   
     91. A(C   7,C  17,C  18)          112.3311         0.416997   
     92. A(C   7,C  17,C  14)          116.1281         0.424018   
     93. A(C  17,C  18,N  19)          125.8913         0.424330   
     94. A(C   5,C  18,N  19)          123.1357         0.437291   
     95. A(C   5,C  18,C  17)          110.9475         0.424009   
     96. A(H  33,N  19,H  34)          120.9314         0.304172   
     97. A(C  18,N  19,H  34)          121.3817         0.363665   
     98. A(C  18,N  19,H  33)          116.2282         0.362111   
     99. D(O   2,C   1,C   0,H  21)   -176.0074         0.011755   
    100. D(H  24,C   1,C   0,H  21)     62.9066         0.011755   
    101. D(H  24,C   1,C   0,H  22)   -176.9135         0.011755   
    102. D(H  24,C   1,C   0,H  20)    -56.7790         0.011755   
    103. D(O   2,C   1,C   0,H  20)     64.3070         0.011755   
    104. D(O   2,C   1,C   0,H  22)    -55.8275         0.011755   
    105. D(H  23,C   1,C   0,H  20)   -178.9782         0.011755   
    106. D(H  23,C   1,C   0,H  22)     60.8872         0.011755   
    107. D(H  23,C   1,C   0,H  21)    -59.2926         0.011755   
    108. D(C   3,O   2,C   1,H  23)    158.0627         0.019126   
    109. D(C   3,O   2,C   1,H  24)     40.3345         0.019126   
    110. D(C   3,O   2,C   1,C   0)    -81.4627         0.019126   
    111. D(C   5,C   3,O   2,C   1)    179.2379         0.033599   
    112. D(O   4,C   3,O   2,C   1)     -1.6693         0.033599   
    113. D(S   6,C   5,C   3,O   2)      0.1285         0.018214   
    114. D(C  18,C   5,C   3,O   4)      0.0584         0.018214   
    115. D(C  18,C   5,C   3,O   2)    179.1552         0.018214   
    116. D(S   6,C   5,C   3,O   4)   -178.9683         0.018214   
    117. D(C   7,S   6,C   5,C  18)     -0.3252         0.004400   
    118. D(C   7,S   6,C   5,C   3)    178.7985         0.004400   
    119. D(C  17,C   7,S   6,C   5)      0.1446         0.004903   
    120. D(N   8,C   7,S   6,C   5)   -179.7773         0.004903   
    121. D(C   9,N   8,C   7,C  17)     -0.0220         0.039841   
    122. D(C   9,N   8,C   7,S   6)    179.8908         0.039841   
    123. D(C  11,C   9,N   8,C   7)     -0.2669         0.039238   
    124. D(C  10,C   9,N   8,C   7)   -179.6527         0.039238   
    125. D(H  26,C  10,C   9,C  11)    -63.8825         0.013322   
    126. D(H  26,C  10,C   9,N   8)    115.5075         0.013322   
    127. D(H  25,C  10,C   9,C  11)    176.7314         0.013322   
    128. D(H  27,C  10,C   9,N   8)   -124.2172         0.013322   
    129. D(H  25,C  10,C   9,N   8)     -3.8786         0.013322   
    130. D(H  27,C  10,C   9,C  11)     56.3929         0.013322   
    131. D(C  14,C  11,C   9,C  10)    179.7142         0.023157   
    132. D(C  14,C  11,C   9,N   8)      0.3691         0.023157   
    133. D(C  12,C  11,C   9,C  10)     -2.5599         0.023157   
    134. D(C  12,C  11,C   9,N   8)    178.0950         0.023157   
    135. D(H  29,C  12,C  11,C  14)   -152.9421         0.012790   
    136. D(H  29,C  12,C  11,C   9)     29.3721         0.012790   
    137. D(H  28,C  12,C  11,C  14)    -34.0181         0.012790   
    138. D(H  28,C  12,C  11,C   9)    148.2961         0.012790   
    139. D(C  13,C  12,C  11,C  14)     85.8179         0.012790   
    140. D(C  13,C  12,C  11,C   9)    -91.8678         0.012790   
    141. D(H  32,C  13,C  12,H  29)    -63.5788         0.011023   
    142. D(H  32,C  13,C  12,H  28)    178.4002         0.011023   
    143. D(H  32,C  13,C  12,C  11)     58.0469         0.011023   
    144. D(H  31,C  13,C  12,H  29)     56.6596         0.011023   
    145. D(H  31,C  13,C  12,H  28)    -61.3614         0.011023   
    146. D(H  31,C  13,C  12,C  11)    178.2853         0.011023   
    147. D(H  30,C  13,C  12,H  29)    176.2887         0.011023   
    148. D(H  30,C  13,C  12,H  28)     58.2677         0.011023   
    149. D(H  30,C  13,C  12,C  11)    -62.0856         0.011023   
    150. D(C  17,C  14,C  11,C  12)   -177.9637         0.025829   
    151. D(C  17,C  14,C  11,C   9)     -0.1836         0.025829   
    152. D(C  15,C  14,C  11,C  12)      2.3343         0.025829   
    153. D(C  15,C  14,C  11,C   9)   -179.8856         0.025829   
    154. D(C  18,C  17,C  14,C  11)   -179.8133         0.023658   
    155. D(C   7,C  17,C  14,C  15)    179.6289         0.023658   
    156. D(C   7,C  17,C  14,C  11)     -0.0733         0.023658   
    157. D(C  18,C  17,C   7,N   8)    179.9790         0.022712   
    158. D(C  18,C  17,C   7,S   6)      0.0583         0.022712   
    159. D(C  14,C  17,C   7,N   8)      0.1894         0.022712   
    160. D(C  18,C  17,C  14,C  15)     -0.1111         0.023658   
    161. D(C  14,C  17,C   7,S   6)   -179.7313         0.022712   
    162. D(N  19,C  18,C  17,C   7)    177.9055         0.019480   
    163. D(C   5,C  18,C  17,C  14)    179.4496         0.019480   
    164. D(C   5,C  18,C  17,C   7)     -0.2981         0.019480   
    165. D(N  19,C  18,C   5,S   6)   -177.8490         0.027662   
    166. D(N  19,C  18,C   5,C   3)      3.0595         0.027662   
    167. D(C  17,C  18,C   5,S   6)      0.4130         0.027662   
    168. D(N  19,C  18,C  17,C  14)     -2.3469         0.019480   
    169. D(C  17,C  18,C   5,C   3)   -178.6785         0.027662   
    170. D(H  34,N  19,C  18,C  17)      9.8898         0.035386   
    171. D(H  34,N  19,C  18,C   5)   -172.1138         0.035386   
    172. D(H  33,N  19,C  18,C  17)    176.2273         0.035386   
    173. D(H  33,N  19,C  18,C   5)     -5.7763         0.035386   
    -----------------------------------------------------------------

Number of atoms                         .... 35
Number of degrees of freedom            .... 173

         *************************************************************
         *                GEOMETRY OPTIMIZATION CYCLE   1            *
         *************************************************************
---------------------------------
CARTESIAN COORDINATES (ANGSTROEM)
---------------------------------
  C      3.182700   -4.346700    2.927300
  C      3.764000   -2.944200    2.815300
  O      2.775700   -1.998500    2.415900
  C      2.499300   -1.925600    1.106700
  O      3.059700   -2.592300    0.253000
  C      1.476200   -0.952500    0.815800
  S      0.727000   -0.006100    2.086400
  C     -0.236100    0.818800    0.907100
  N     -1.104600    1.760600    1.220400
  C     -1.798100    2.341500    0.258100
  C     -2.751400    3.402000    0.707600
  C     -1.645900    2.000300   -1.101500
  C     -2.469900    2.638300   -2.181600
  C     -3.731600    1.813800   -2.453700
  C     -0.727100    1.001400   -1.427800
  C     -0.537100    0.625900   -2.776600
  N     -0.374300    0.313500   -3.869300
  C      0.014300    0.373500   -0.409800
  C      1.007200   -0.658300   -0.456000
  N      1.424200   -1.303200   -1.561400
  H      2.851500   -4.689100    1.950000
  H      3.942400   -5.027500    3.300400
  H      2.335500   -4.348000    3.609000
  H      4.120200   -2.586200    3.783300
  H      4.582300   -2.931900    2.087200
  H     -2.735700    3.444900    1.792400
  H     -2.456100    4.372900    0.311900
  H     -3.762900    3.188100    0.369600
  H     -1.884400    2.697800   -3.102200
  H     -2.751400    3.650600   -1.891700
  H     -3.464900    0.820200   -2.807300
  H     -4.337200    2.298300   -3.215200
  H     -4.328300    1.708400   -1.550200
  H      2.176200   -1.966700   -1.434600
  H      1.157800   -0.994200   -2.478800

----------------------------
CARTESIAN COORDINATES (A.U.)
----------------------------
  NO LB      ZA    FRAG     MASS         X           Y           Z
   0 C     6.0000    0    12.011    6.014431   -8.214073    5.531795
   1 C     6.0000    0    12.011    7.112929   -5.563732    5.320146
   2 O     8.0000    0    15.999    5.245313   -3.776618    4.565389
   3 C     6.0000    0    12.011    4.722993   -3.638857    2.091360
   4 O     8.0000    0    15.999    5.781995   -4.898737    0.478101
   5 C     6.0000    0    12.011    2.789614   -1.799964    1.541639
   6 S    16.0000    0    32.060    1.373831   -0.011527    3.942725
   7 C     6.0000    0    12.011   -0.446164    1.547308    1.714171
   8 N     7.0000    0    14.007   -2.087391    3.327052    2.306222
   9 C     6.0000    0    12.011   -3.397917    4.424794    0.487738
  10 C     6.0000    0    12.011   -5.199392    6.428848    1.337170
  11 C     6.0000    0    12.011   -3.110300    3.780019   -2.081533
  12 C     6.0000    0    12.011   -4.667435    4.985664   -4.122627
  13 C     6.0000    0    12.011   -7.051702    3.427585   -4.636821
  14 C     6.0000    0    12.011   -1.374020    1.892372   -2.698151
  15 C     6.0000    0    12.011   -1.014972    1.182780   -5.247014
  16 N     7.0000    0    14.007   -0.707324    0.592429   -7.311917
  17 C     6.0000    0    12.011    0.027023    0.705813   -0.774410
  18 C     6.0000    0    12.011    1.903332   -1.244007   -0.861715
  19 N     7.0000    0    14.007    2.691348   -2.462691   -2.950618
  20 H     1.0000    0     1.008    5.388554   -8.861115    3.684966
  21 H     1.0000    0     1.008    7.450056   -9.500598    6.236852
  22 H     1.0000    0     1.008    4.413455   -8.216529    6.820022
  23 H     1.0000    0     1.008    7.786050   -4.887210    7.149401
  24 H     1.0000    0     1.008    8.659292   -5.540488    3.944236
  25 H     1.0000    0     1.008   -5.169724    6.509918    3.387145
  26 H     1.0000    0     1.008   -4.641356    8.263583    0.589406
  27 H     1.0000    0     1.008   -7.110850    6.024636    0.698443
  28 H     1.0000    0     1.008   -3.561000    5.098103   -5.862308
  29 H     1.0000    0     1.008   -5.199392    6.898634   -3.574795
  30 H     1.0000    0     1.008   -6.547712    1.549953   -5.305028
  31 H     1.0000    0     1.008   -8.196120    4.343158   -6.075847
  32 H     1.0000    0     1.008   -8.179302    3.228408   -2.929453
  33 H     1.0000    0     1.008    4.112422   -3.716524   -2.711001
  34 H     1.0000    0     1.008    2.187925   -1.878766   -4.684253

--------------------------------
INTERNAL COORDINATES (ANGSTROEM)
--------------------------------
 C      0   0   0     0.000000000000     0.00000000     0.00000000
 C      1   0   0     1.522320577277     0.00000000     0.00000000
 O      2   1   0     1.424993242089   111.54339433     0.00000000
 C      3   2   1     1.340043286614   116.93547589   278.53731433
 O      4   3   2     1.219565799783   124.01244755   358.33074527
 C      4   3   2     1.441624094554   112.34879865   179.23794446
 S      6   4   3     1.752540430347   121.43979892     0.12853396
 C      7   6   4     1.731695732512    90.07214301   178.79851578
 N      8   7   6     1.318876938914   122.99912930   180.22271473
 C      9   8   7     1.320760519549   119.12824317   179.89081095
 C     10   9   8     1.495155975141   115.32189577   180.34728703
 C     10   9   8     1.409998028367   122.64576350   359.73306956
 C     12  10   9     1.500878412797   122.12688162   178.09501002
 C     13  12  10     1.531576165262   110.56600633   268.13216151
 C     12  10   9     1.395874757992   118.00984773     0.36911722
 C     15  12  10     1.412926639992   120.12211390   180.11439710
 N     16  15  12     1.148081395198   179.42099498   176.46404985
 C     15  12  10     1.407215822111   119.80099990   359.81643779
 C      6   4   3     1.387079622805   124.62086284   179.15519426
 N     19   6   4     1.345991890763   123.13568525     3.05951414
 H      1   2   3     1.087219614429   109.89719680    64.30704249
 H      1   2   3     1.086202715887   109.61140513   183.99263971
 H      1   2   3     1.087411798722   110.16489586   304.17246906
 H      2   1   3     1.091817951858   111.18827853   116.71476227
 H      2   1   3     1.095397548838   110.15149885   238.91400135
 H     11  10   9     1.085761456306   108.61315359   356.12135643
 H     11  10   9     1.089232477481   110.49717242   115.50746378
 H     11  10   9     1.087717546057   111.10096412   235.78280355
 H     13  12  10     1.092636655069   109.59024920   148.29613190
 H     13  12  10     1.089970435379   110.19270667    29.37214225
 H     14  13  12     1.087843191825   110.33328844   297.91437313
 H     14  13  12     1.086910235484   110.09025134   178.28528407
 H     14  13  12     1.087875130702   110.88279107    58.04686271
 H     20  19   6     1.010848401097   116.22817839   354.22365685
 H     20  19   6     1.004028246615   121.38169361   187.88623029

---------------------------
INTERNAL COORDINATES (A.U.)
---------------------------
 C      0   0   0     0.000000000000     0.00000000     0.00000000
 C      1   0   0     2.876768979086     0.00000000     0.00000000
 O      2   1   0     2.692846970237   111.54339433     0.00000000
 C      3   2   1     2.532314819301   116.93547589   278.53731433
 O      4   3   2     2.304645363886   124.01244755   358.33074527
 C      4   3   2     2.724274726770   112.34879865   179.23794446
 S      6   4   3     3.311821451980   121.43979892     0.12853396
 C      7   6   4     3.272430681728    90.07214301   178.79851578
 N      8   7   6     2.492316218892   122.99912930   180.22271473
 C      9   8   7     2.495875670444   119.12824317   179.89081095
 C     10   9   8     2.825435320513   115.32189577   180.34728703
 C     10   9   8     2.664510122983   122.64576350   359.73306956
 C     12  10   9     2.836249160501   122.12688162   178.09501002
 C     13  12  10     2.894259505587   110.56600633   268.13216151
 C     12  10   9     2.637821009859   118.00984773     0.36911722
 C     15  12  10     2.670044396907   120.12211390   180.11439710
 N     16  15  12     2.169559416375   179.42099498   176.46404985
 C     15  12  10     2.659252515111   119.80099990   359.81643779
 C      6   4   3     2.621200613044   124.62086284   179.15519426
 N     19   6   4     2.543556052021   123.13568525     3.05951414
 H      1   2   3     2.054547318699   109.89719680    64.30704249
 H      1   2   3     2.052625658948   109.61140513   183.99263971
 H      1   2   3     2.054910494379   110.16489586   304.17246906
 H      2   1   3     2.063236917111   111.18827853   116.71476227
 H      2   1   3     2.070001375072   110.15149885   238.91400135
 H     11  10   9     2.051791799186   108.61315359   356.12135643
 H     11  10   9     2.058351078612   110.49717242   115.50746378
 H     11  10   9     2.055488273108   111.10096412   235.78280355
 H     13  12  10     2.064784041964   109.59024920   148.29613190
 H     13  12  10     2.059745616937   110.19270667    29.37214225
 H     14  13  12     2.055725709200   110.33328844   297.91437313
 H     14  13  12     2.053962677221   110.09025134   178.28528407
 H     14  13  12     2.055786064931   110.88279107    58.04686271
 H     20  19   6     1.910226640985   116.22817839   354.22365685
 H     20  19   6     1.897338416823   121.38169361   187.88623029

---------------------
BASIS SET INFORMATION
---------------------
There are 5 groups of distinct atoms

 Group   1 Type C   : 19s6p3d2f contracted to 5s4p3d2f pattern {88111/3111/111/11}
 Group   2 Type O   : 19s6p3d2f contracted to 5s4p3d2f pattern {88111/3111/111/11}
 Group   3 Type S   : 42s17p3d2f contracted to 6s5p3d2f pattern {131313111/77111/111/11}
 Group   4 Type N   : 19s6p3d2f contracted to 5s4p3d2f pattern {88111/3111/111/11}
 Group   5 Type H   : 5s2p1d contracted to 3s2p1d pattern {311/11/1}

Atom   0C    basis set group =>   1
Atom   1C    basis set group =>   1
Atom   2O    basis set group =>   2
Atom   3C    basis set group =>   1
Atom   4O    basis set group =>   2
Atom   5C    basis set group =>   1
Atom   6S    basis set group =>   3
Atom   7C    basis set group =>   1
Atom   8N    basis set group =>   4
Atom   9C    basis set group =>   1
Atom  10C    basis set group =>   1
Atom  11C    basis set group =>   1
Atom  12C    basis set group =>   1
Atom  13C    basis set group =>   1
Atom  14C    basis set group =>   1
Atom  15C    basis set group =>   1
Atom  16N    basis set group =>   4
Atom  17C    basis set group =>   1
Atom  18C    basis set group =>   1
Atom  19N    basis set group =>   4
Atom  20H    basis set group =>   5
Atom  21H    basis set group =>   5
Atom  22H    basis set group =>   5
Atom  23H    basis set group =>   5
Atom  24H    basis set group =>   5
Atom  25H    basis set group =>   5
Atom  26H    basis set group =>   5
Atom  27H    basis set group =>   5
Atom  28H    basis set group =>   5
Atom  29H    basis set group =>   5
Atom  30H    basis set group =>   5
Atom  31H    basis set group =>   5
Atom  32H    basis set group =>   5
Atom  33H    basis set group =>   5
Atom  34H    basis set group =>   5
---------------------------------
AUXILIARY/J BASIS SET INFORMATION
---------------------------------
There are 5 groups of distinct atoms

 Group   1 Type C   : 10s7p5d2f1g contracted to 10s7p5d2f1g pattern {1111111111/1111111/11111/11/1}
 Group   2 Type O   : 10s7p5d2f1g contracted to 10s7p5d2f1g pattern {1111111111/1111111/11111/11/1}
 Group   3 Type S   : 13s11p9d3f1g contracted to 13s11p9d3f1g pattern {1111111111111/11111111111/111111111/111/1}
 Group   4 Type N   : 10s7p5d2f1g contracted to 10s7p5d2f1g pattern {1111111111/1111111/11111/11/1}
 Group   5 Type H   : 4s3p2d1f contracted to 4s3p2d1f pattern {1111/111/11/1}

Atom   0C    basis set group =>   1
Atom   1C    basis set group =>   1
Atom   2O    basis set group =>   2
Atom   3C    basis set group =>   1
Atom   4O    basis set group =>   2
Atom   5C    basis set group =>   1
Atom   6S    basis set group =>   3
Atom   7C    basis set group =>   1
Atom   8N    basis set group =>   4
Atom   9C    basis set group =>   1
Atom  10C    basis set group =>   1
Atom  11C    basis set group =>   1
Atom  12C    basis set group =>   1
Atom  13C    basis set group =>   1
Atom  14C    basis set group =>   1
Atom  15C    basis set group =>   1
Atom  16N    basis set group =>   4
Atom  17C    basis set group =>   1
Atom  18C    basis set group =>   1
Atom  19N    basis set group =>   4
Atom  20H    basis set group =>   5
Atom  21H    basis set group =>   5
Atom  22H    basis set group =>   5
Atom  23H    basis set group =>   5
Atom  24H    basis set group =>   5
Atom  25H    basis set group =>   5
Atom  26H    basis set group =>   5
Atom  27H    basis set group =>   5
Atom  28H    basis set group =>   5
Atom  29H    basis set group =>   5
Atom  30H    basis set group =>   5
Atom  31H    basis set group =>   5
Atom  32H    basis set group =>   5
Atom  33H    basis set group =>   5
Atom  34H    basis set group =>   5
---------------------------------
AUXILIARY/C BASIS SET INFORMATION
---------------------------------
There are 5 groups of distinct atoms

 Group   1 Type C   : 9s7p6d4f2g contracted to 9s7p6d4f2g pattern {111111111/1111111/111111/1111/11}
 Group   2 Type O   : 9s7p6d4f2g contracted to 9s7p6d4f2g pattern {111111111/1111111/111111/1111/11}
 Group   3 Type S   : 11s9p8d6f3g contracted to 11s9p8d6f3g pattern {11111111111/111111111/11111111/111111/111}
 Group   4 Type N   : 9s7p6d4f2g contracted to 9s7p6d4f2g pattern {111111111/1111111/111111/1111/11}
 Group   5 Type H   : 4s3p2d1f contracted to 4s3p2d1f pattern {1111/111/11/1}

Atom   0C    basis set group =>   1
Atom   1C    basis set group =>   1
Atom   2O    basis set group =>   2
Atom   3C    basis set group =>   1
Atom   4O    basis set group =>   2
Atom   5C    basis set group =>   1
Atom   6S    basis set group =>   3
Atom   7C    basis set group =>   1
Atom   8N    basis set group =>   4
Atom   9C    basis set group =>   1
Atom  10C    basis set group =>   1
Atom  11C    basis set group =>   1
Atom  12C    basis set group =>   1
Atom  13C    basis set group =>   1
Atom  14C    basis set group =>   1
Atom  15C    basis set group =>   1
Atom  16N    basis set group =>   4
Atom  17C    basis set group =>   1
Atom  18C    basis set group =>   1
Atom  19N    basis set group =>   4
Atom  20H    basis set group =>   5
Atom  21H    basis set group =>   5
Atom  22H    basis set group =>   5
Atom  23H    basis set group =>   5
Atom  24H    basis set group =>   5
Atom  25H    basis set group =>   5
Atom  26H    basis set group =>   5
Atom  27H    basis set group =>   5
Atom  28H    basis set group =>   5
Atom  29H    basis set group =>   5
Atom  30H    basis set group =>   5
Atom  31H    basis set group =>   5
Atom  32H    basis set group =>   5
Atom  33H    basis set group =>   5
Atom  34H    basis set group =>   5


           ************************************************************
           *        Program running with 4 parallel MPI-processes     *
           *              working on a common directory               *
           ************************************************************
------------------------------------------------------------------------------
                           ORCA GTO INTEGRAL CALCULATION
                           -- RI-GTO INTEGRALS CHOSEN --
------------------------------------------------------------------------------
------------------------------------------------------------------------------
                   ___                                                        
                  /   \      - P O W E R E D   B Y -                         
                 /     \                                                     
                 |  |  |   _    _      __       _____    __    __             
                 |  |  |  | |  | |    /  \     |  _  \  |  |  /  |          
                  \  \/   | |  | |   /    \    | | | |  |  | /  /          
                 / \  \   | |__| |  /  /\  \   | |_| |  |  |/  /          
                |  |  |   |  __  | /  /__\  \  |    /   |      \           
                |  |  |   | |  | | |   __   |  |    \   |  |\   \          
                \     /   | |  | | |  |  |  |  | |\  \  |  | \   \       
                 \___/    |_|  |_| |__|  |__|  |_| \__\ |__|  \__/        
                                                                              
                      - O R C A' S   B I G   F R I E N D -                    
                                      &                                       
                       - I N T E G R A L  F E E D E R -                       
                                                                              
 v1 FN, 2020, v2 2021                                                         
------------------------------------------------------------------------------


Reading SHARK input file optpbed3-b2plyp-test-124.SHARKINP.tmp ... ok
----------------------
SHARK INTEGRAL PACKAGE
----------------------

Number of atoms                             ...     35
Number of basis functions                   ...   1273
Number of shells                            ...    501
Maximum angular momentum                    ...      3
Integral batch strategy                     ... SHARK/LIBINT Hybrid
RI-J (if used) integral strategy            ... SPLIT-RIJ (Revised 2003 algorithm where possible)
Printlevel                                  ...      1
Contraction scheme used                     ... PARTIAL GENERAL contraction
Coulomb Range Separation                    ... NOT USED
Exchange Range Separation                   ... NOT USED
Finite Nucleus Model                        ... NOT USED
Auxiliary Coulomb fitting basis             ... AVAILABLE
   # of basis functions in Aux-J            ...   2072
   # of shells in Aux-J                     ...    662
   Maximum angular momentum in Aux-J        ...      4
Auxiliary J/K fitting basis                 ... NOT available
Auxiliary Correlation fitting basis         ... AVAILABLE
   # of basis functions in Aux-C            ...   2611
   # of shells in Aux-C                     ...    719
   Maximum angular momentum in Aux-C        ...      4
Auxiliary 'external' fitting basis          ... NOT available
Integral threshold                          ...     2.500000e-11
Primitive cut-off                           ...     2.500000e-12
Primitive pair pre-selection threshold      ...     2.500000e-12

Calculating pre-screening integrals         ... done (  0.3 sec) Dimension = 501
Calculating pre-screening integrals (ORCA)  ... done (  0.7 sec) Dimension = 372
Organizing shell pair data                  ... done (  1.4 sec)
Shell pair information
Total number of shell pairs                 ...    125751
Shell pairs after pre-screening             ...     77977
Total number of primitive shell pairs       ...    162267
Primitive shell pairs kept                  ...     90890
          la=0 lb=0:  17617 shell pairs
          la=1 lb=0:  20109 shell pairs
          la=1 lb=1:   5103 shell pairs
          la=2 lb=0:  12918 shell pairs
          la=2 lb=1:   6500 shell pairs
          la=2 lb=2:   2138 shell pairs
          la=3 lb=0:   7050 shell pairs
          la=3 lb=1:   3560 shell pairs
          la=3 lb=2:   2324 shell pairs
          la=3 lb=3:    658 shell pairs

Calculating one electron integrals          ... done (  0.3 sec)
Calculating RI/J V-Matrix + Cholesky decomp.... done (  1.0 sec)
Calculating RI/C V-Matrix + Cholesky decomp.... done (  0.5 sec)
Calculating Nuclear repulsion               ... done (  0.0 sec) ENN=   1649.965498645612 Eh

SHARK setup successfully completed in  13.2 seconds

Maximum memory used throughout the entire GTOINT-calculation: 122.8 MB


           ************************************************************
           *        Program running with 4 parallel MPI-processes     *
           *              working on a common directory               *
           ************************************************************
-------------------------------------------------------------------------------
                                 ORCA SCF
-------------------------------------------------------------------------------

------------
SCF SETTINGS
------------
Hamiltonian:
 Density Functional     Method          .... DFT(GTOs)
 Exchange Functional    Exchange        .... PBE
   PBE kappa parameter   XKappa         ....  0.804000
   PBE mue parameter    XMuePBE         ....  0.219520
 Correlation Functional Correlation     .... PBE
   PBE beta parameter  CBetaPBE         ....  0.066725
 LDA part of GGA corr.  LDAOpt          .... PW91-LDA
 Gradients option       PostSCFGGA      .... off
 Hybrid DFT is turned on
   Fraction HF Exchange ScalHFX         ....  0.250000
   Scaling of DF-GGA-X  ScalDFX         ....  0.750000
   Scaling of DF-GGA-C  ScalDFC         ....  1.000000
   Scaling of DF-LDA-C  ScalLDAC        ....  1.000000
   Perturbative correction              ....  0.000000
   Density functional embedding theory  .... OFF
   NL short-range parameter             ....  6.900000
 RI-approximation to the Coulomb term is turned on
   Number of AuxJ basis functions       .... 2072
   RIJ-COSX (HFX calculated with COS-X)).... on


General Settings:
 Integral files         IntName         .... optpbed3-b2plyp-test-124
 Hartree-Fock type      HFTyp           .... RHF
 Total Charge           Charge          ....    0
 Multiplicity           Mult            ....    1
 Number of Electrons    NEL             ....  152
 Basis Dimension        Dim             .... 1134
 Nuclear Repulsion      ENuc            ....   1649.9654986456 Eh

Convergence Acceleration:
 DIIS                   CNVDIIS         .... on
   Start iteration      DIISMaxIt       ....    12
   Startup error        DIISStart       ....  0.200000
   # of expansion vecs  DIISMaxEq       ....     5
   Bias factor          DIISBfac        ....   1.050
   Max. coefficient     DIISMaxC        ....  10.000
 Trust-Rad. Augm. Hess. CNVTRAH         .... auto
   Auto Start mean grad. ratio tolernc. ....  1.125000
   Auto Start start iteration           ....    20
   Auto Start num. interpolation iter.  ....    10
   Max. Number of Micro iterations      ....    16
   Max. Number of Macro iterations      .... Maxiter - #DIIS iter
   Number of Davidson start vectors     ....     2
   Converg. threshold I  (grad. norm)   ....   1.000e-05
   Converg. threshold II (energy diff.) ....   1.000e-08
   Grad. Scal. Fac. for Micro threshold ....   0.100
   Minimum threshold for Micro iter.    ....   0.010
   NR start threshold (gradient norm)   ....   0.001
   Initial trust radius                 ....   0.400
   Minimum AH scaling param. (alpha)    ....   1.000
   Maximum AH scaling param. (alpha)    .... 1000.000
   Orbital update algorithm             .... Taylor
   White noise on init. David. guess    .... on
   Maximum white noise                  ....   0.010
   Quad. conv. algorithm                .... NR
 SOSCF                  CNVSOSCF        .... on
   Start iteration      SOSCFMaxIt      ....   150
   Startup grad/error   SOSCFStart      ....  0.003300
 Level Shifting         CNVShift        .... on
   Level shift para.    LevelShift      ....    0.2500
   Turn off err/grad.   ShiftErr        ....    0.0010
 Zerner damping         CNVZerner       .... off
 Static damping         CNVDamp         .... on
   Fraction old density DampFac         ....    0.7000
   Max. Damping (<1)    DampMax         ....    0.9800
   Min. Damping (>=0)   DampMin         ....    0.0000
   Turn off err/grad.   DampErr         ....    0.1000
 Fernandez-Rico         CNVRico         .... off

SCF Procedure:
 Maximum # iterations   MaxIter         ....   125
 SCF integral mode      SCFMode         .... Direct
   Integral package                     .... SHARK and LIBINT hybrid scheme
 Reset frequency        DirectResetFreq ....    20
 Integral Threshold     Thresh          ....  2.500e-11 Eh
 Primitive CutOff       TCut            ....  2.500e-12 Eh

Convergence Tolerance:
 Convergence Check Mode ConvCheckMode   .... Total+1el-Energy
 Convergence forced     ConvForced      .... 0
 Energy Change          TolE            ....  1.000e-08 Eh
 1-El. energy change                    ....  1.000e-05 Eh
 Orbital Gradient       TolG            ....  1.000e-05
 Orbital Rotation angle TolX            ....  1.000e-05
 DIIS Error             TolErr          ....  5.000e-07


Diagonalization of the overlap matrix:
Smallest eigenvalue                        ... 3.789e-07
Time for diagonalization                   ...    0.315 sec
Threshold for overlap eigenvalues          ... 1.000e-08
Number of eigenvalues below threshold      ... 0
Time for construction of square roots      ...    0.216 sec
Total time needed                          ...    0.540 sec

Time for model grid setup =    0.773 sec

------------------------------
INITIAL GUESS: MODEL POTENTIAL
------------------------------
Loading Hartree-Fock densities                     ... done
Calculating cut-offs                               ... done
Initializing the effective Hamiltonian             ... done
Setting up the integral package (SHARK)            ... done
Starting the Coulomb interaction                   ... done (   3.2 sec)
Reading the grid                                   ... done
Mapping shells                                     ... done
Starting the XC term evaluation                    ... done (   2.3 sec)
  promolecular density results
     # of electrons  =    151.989990239
     EX              =   -136.933163758
     EC              =     -5.203506483
     EX+EC           =   -142.136670240
Transforming the Hamiltonian                       ... done (   0.2 sec)
Diagonalizing the Hamiltonian                      ... done (   0.3 sec)
Back transforming the eigenvectors                 ... done (   0.1 sec)
Now organizing SCF variables                       ... done
                      ------------------
                      INITIAL GUESS DONE (   6.9 sec)
                      ------------------
-------------------
DFT GRID GENERATION
-------------------

General Integration Accuracy     IntAcc      ... 4.388
Radial Grid Type                 RadialGrid  ... OptM3 with GC (2021)
Angular Grid (max. ang.)         AngularGrid ... 4 (Lebedev-302)
Angular grid pruning method      GridPruning ... 4 (adaptive)
Weight generation scheme         WeightScheme... Becke
Basis function cutoff            BFCut       ... 1.0000e-11
Integration weight cutoff        WCut        ... 1.0000e-14
Angular grids for H and He will be reduced by one unit
Partially contracted basis set               ... off
Rotationally invariant grid construction     ... off

Total number of grid points                  ...   173991
Total number of batches                      ...     2736
Average number of points per batch           ...       63
Average number of grid points per atom       ...     4971
Time for grid setup =    2.589 sec

--------------------
COSX GRID GENERATION
--------------------

GRIDX 1
-------
General Integration Accuracy     IntAcc      ... 3.816
Radial Grid Type                 RadialGrid  ... OptM3 with GC (2021)
Angular Grid (max. ang.)         AngularGrid ... 1 (Lebedev-50)
Angular grid pruning method      GridPruning ... 4 (adaptive)
Weight generation scheme         WeightScheme... Becke
Basis function cutoff            BFCut       ... 1.0000e-11
Integration weight cutoff        WCut        ... 1.0000e-14
Angular grids for H and He will be reduced by one unit
Partially contracted basis set               ... on
Rotationally invariant grid construction     ... off

Total number of grid points                  ...    22000
Total number of batches                      ...      360
Average number of points per batch           ...       61
Average number of grid points per atom       ...      629
UseSFitting                                  ... on

GRIDX 2
-------
General Integration Accuracy     IntAcc      ... 4.020
Radial Grid Type                 RadialGrid  ... OptM3 with GC (2021)
Angular Grid (max. ang.)         AngularGrid ... 2 (Lebedev-110)
Angular grid pruning method      GridPruning ... 4 (adaptive)
Weight generation scheme         WeightScheme... Becke
Basis function cutoff            BFCut       ... 1.0000e-11
Integration weight cutoff        WCut        ... 1.0000e-14
Angular grids for H and He will be reduced by one unit
Partially contracted basis set               ... on
Rotationally invariant grid construction     ... off

Total number of grid points                  ...    51855
Total number of batches                      ...      829
Average number of points per batch           ...       62
Average number of grid points per atom       ...     1482
UseSFitting                                  ... on

GRIDX 3
-------
General Integration Accuracy     IntAcc      ... 4.338
Radial Grid Type                 RadialGrid  ... OptM3 with GC (2021)
Angular Grid (max. ang.)         AngularGrid ... 3 (Lebedev-194)
Angular grid pruning method      GridPruning ... 4 (adaptive)
Weight generation scheme         WeightScheme... Becke
Basis function cutoff            BFCut       ... 1.0000e-11
Integration weight cutoff        WCut        ... 1.0000e-14
Angular grids for H and He will be reduced by one unit
Partially contracted basis set               ... on
Rotationally invariant grid construction     ... off

Total number of grid points                  ...   112531
Total number of batches                      ...     1777
Average number of points per batch           ...       63
Average number of grid points per atom       ...     3215
UseSFitting                                  ... on

Time for X-Grid setup             =    6.227 sec


--------------------
CPCM SOLVATION MODEL
--------------------
CPCM parameters:
  Epsilon                                         ...       2.2706
  Refrac                                          ...       1.5011
  Rsolv                                           ...       1.3000
  Surface type                                    ... GAUSSIAN VDW
  Epsilon function type                           ...         CPCM
Solvent:                                     ... BENZENE
SMD-CDS solvent descriptors:
  Soln                                       ...    1.5011
  Soln25                                     ...    1.4972
  Sola                                       ...    0.0000
  Solb                                       ...    0.1400
  Solg                                       ...   40.6200
  Solc                                       ...    1.0000
  Solh                                       ...    0.0000
Radii:
 Radius for C  used is    3.4960 Bohr (=   1.8500 Ang.)
 Radius for O  used is    4.3350 Bohr (=   2.2940 Ang.)
 Radius for S  used is    4.7054 Bohr (=   2.4900 Ang.)
 Radius for N  used is    3.5716 Bohr (=   1.8900 Ang.)
 Radius for H  used is    2.2677 Bohr (=   1.2000 Ang.)
Calculating surface                               ...        done! (  0.0s)
GEPOL surface points                              ...         1850
GEPOL Volume                                      ...    2222.2707
GEPOL Surface-area                                ...    1156.6293
Calculating surface distance matrix               ...        done! (  0.1s)
Performing Cholesky decomposition & store         ...        done! (  0.2s)
Overall time for CPCM initialization              ...                 0.2s
 re-compute Schwartz prescreening matrix in partically contracted basis (1) ...done (   0.242 sec)
--------------
SCF ITERATIONS
--------------
ITER       Energy         Delta-E        Max-DP      RMS-DP      [F,P]     Damp
               ***  Starting incremental Fock matrix formation  ***
  0  -1254.1275646116   0.000000000000 0.83900712  0.00188099  0.2782589 0.7000
  1  -1254.3722914844  -0.244726872777 0.61873753  0.00138155  0.1162790 0.7000
                               ***Turning on DIIS***
  2  -1254.4684503319  -0.096158847577 1.26715152  0.00279393  0.0414456 0.0000
  3  -1254.6184348524  -0.149984520432 0.19044801  0.00064894  0.0620341 0.0000
  4  -1254.6523157794  -0.033880927086 0.03503908  0.00021336  0.0184325 0.0000
  5  -1254.6542946291  -0.001978849608 0.01984183  0.00010568  0.0078538 0.0000
                      *** Initiating the SOSCF procedure ***
                           *** Shutting down DIIS ***
                      *** Re-Reading the Fockian *** 
                      *** Removing any level shift *** 
ITER      Energy       Delta-E        Grad      Rot      Max-DP    RMS-DP
  6  -1254.65450119  -0.0002065592  0.000331  0.000331  0.019764  0.000086
               *** Restarting incremental Fock matrix formation ***
  7  -1254.65448147   0.0000197230  0.000172  0.000636  0.067887  0.000499
  8  -1254.65448161  -0.0000001448  0.000188  0.000397  0.017834  0.000132
  9  -1254.65448555  -0.0000039389  0.000050  0.000179  0.055274  0.000202
 10  -1254.65448551   0.0000000360  0.000053  0.000074  0.015585  0.000071
 11  -1254.65448592  -0.0000004098  0.000014  0.000055  0.034041  0.000093
 12  -1254.65448593  -0.0000000042  0.000015  0.000033  0.025574  0.000078
 13  -1254.65448592   0.0000000039  0.000003  0.000014  0.042245  0.000187
 14  -1254.65448591   0.0000000146  0.000004  0.000009  0.016642  0.000080
                  ***Gradient check signals convergence***
              ***Rediagonalizing the Fockian in SOSCF/NRSCF***

               *****************************************************
               *                     SUCCESS                       *
               *           SCF CONVERGED AFTER  15 CYCLES          *
               *****************************************************

Old exchange energy                            =    -34.824551013 Eh
New exchange energy                            =    -34.824482079 Eh
Exchange energy change after final integration =      0.000068934 Eh
Total energy after final integration           =  -1254.654416977 Eh
Final COS-X integration done in                =   155.136 sec

SMD CDS free energy correction energy :                -4.30720     Kcal/mol
Total Energy after SMD CDS correction =             -1254.661280930 Eh

----------------
TOTAL SCF ENERGY
----------------

Total Energy       :        -1254.66128093 Eh          -34141.06915 eV

Components:
Nuclear Repulsion  :         1649.96549865 Eh           44897.84378 eV
Electronic Energy  :        -2904.62677958 Eh          -79038.91293 eV
One Electron Energy:        -4992.21491367 Eh         -135845.07403 eV
Two Electron Energy:         2087.58813410 Eh           56806.16110 eV
Max COSX asymmetry :            0.00012010 Eh               0.00327 eV
CPCM Dielectric    :           -0.01001445 Eh              -0.27251 eV
SMD CDS (Gcds)     :           -0.00686395 Eh              -0.18678 eV

Virial components:
Potential Energy   :        -2503.50893718 Eh          -68123.94153 eV
Kinetic Energy     :         1248.84765625 Eh           33982.87238 eV
Virial Ratio       :            2.00465519


DFT components:
N(Alpha)           :       76.000172709015 electrons
N(Beta)            :       76.000172709015 electrons
N(Total)           :      152.000345418030 electrons
E(X)               :     -104.195602879330 Eh       
E(C)               :       -5.204774786509 Eh       
E(XC)              :     -109.400377665838 Eh       
DFET-embed. en.    :        0.000000000000 Eh       
CPCM Solvation Model Properties:
Surface-charge          :           -0.04618102
Charge-correction       :            0.00014399 Eh               0.00392 eV
Free-energy (cav+disp)  :           -0.00686395 Eh              -0.18678 eV

---------------
SCF CONVERGENCE
---------------

  Last Energy change         ...   -2.9247e-09  Tolerance :   1.0000e-08
  Last MAX-Density change    ...    3.5527e-15  Tolerance :   1.0000e-07
  Last RMS-Density change    ...    1.8401e-17  Tolerance :   5.0000e-09
  Last Orbital Gradient      ...    2.0946e-06  Tolerance :   1.0000e-05
  Last Orbital Rotation      ...    5.8285e-06  Tolerance :   1.0000e-05

             **** THE GBW FILE WAS UPDATED (optpbed3-b2plyp-test-124.gbw) ****
             **** DENSITY optpbed3-b2plyp-test-124.scfp WAS UPDATED ****
             **** ENERGY FILE WAS UPDATED (optpbed3-b2plyp-test-124.en.tmp) ****
             **** THE GBW FILE WAS UPDATED (optpbed3-b2plyp-test-124.gbw) ****
             **** DENSITY optpbed3-b2plyp-test-124.scfp WAS UPDATED ****
----------------
ORBITAL ENERGIES
----------------

  NO   OCC          E(Eh)            E(eV) 
   0   2.0000     -89.083271     -2424.0791 
   1   2.0000     -19.257159      -524.0139 
   2   2.0000     -19.197134      -522.3806 
   3   2.0000     -14.406912      -392.0320 
   4   2.0000     -14.405605      -391.9965 
   5   2.0000     -14.404514      -391.9668 
   6   2.0000     -10.357610      -281.8449 
   7   2.0000     -10.308527      -280.5093 
   8   2.0000     -10.302076      -280.3337 
   9   2.0000     -10.297343      -280.2049 
  10   2.0000     -10.291563      -280.0477 
  11   2.0000     -10.287789      -279.9450 
  12   2.0000     -10.277295      -279.6594 
  13   2.0000     -10.271284      -279.4958 
  14   2.0000     -10.270578      -279.4766 
  15   2.0000     -10.260780      -279.2100 
  16   2.0000     -10.239926      -278.6426 
  17   2.0000     -10.224312      -278.2177 
  18   2.0000     -10.220405      -278.1114 
  19   2.0000     -10.211580      -277.8712 
  20   2.0000      -8.040347      -218.7890 
  21   2.0000      -5.977467      -162.6551 
  22   2.0000      -5.974079      -162.5630 
  23   2.0000      -5.970178      -162.4568 
  24   2.0000      -1.142672       -31.0937 
  25   2.0000      -1.052104       -28.6292 
  26   2.0000      -1.013241       -27.5717 
  27   2.0000      -0.974720       -26.5235 
  28   2.0000      -0.963342       -26.2139 
  29   2.0000      -0.895470       -24.3670 
  30   2.0000      -0.884784       -24.0762 
  31   2.0000      -0.830096       -22.5881 
  32   2.0000      -0.799023       -21.7425 
  33   2.0000      -0.788174       -21.4473 
  34   2.0000      -0.751946       -20.4615 
  35   2.0000      -0.741726       -20.1834 
  36   2.0000      -0.710194       -19.3254 
  37   2.0000      -0.685624       -18.6568 
  38   2.0000      -0.660710       -17.9788 
  39   2.0000      -0.642229       -17.4759 
  40   2.0000      -0.612686       -16.6720 
  41   2.0000      -0.587087       -15.9754 
  42   2.0000      -0.569008       -15.4835 
  43   2.0000      -0.557654       -15.1745 
  44   2.0000      -0.547941       -14.9102 
  45   2.0000      -0.518757       -14.1161 
  46   2.0000      -0.511394       -13.9157 
  47   2.0000      -0.494106       -13.4453 
  48   2.0000      -0.488463       -13.2918 
  49   2.0000      -0.479772       -13.0553 
  50   2.0000      -0.466282       -12.6882 
  51   2.0000      -0.461345       -12.5538 
  52   2.0000      -0.456876       -12.4322 
  53   2.0000      -0.443406       -12.0657 
  54   2.0000      -0.442541       -12.0422 
  55   2.0000      -0.424918       -11.5626 
  56   2.0000      -0.423479       -11.5234 
  57   2.0000      -0.414221       -11.2715 
  58   2.0000      -0.409261       -11.1366 
  59   2.0000      -0.405079       -11.0228 
  60   2.0000      -0.400885       -10.9086 
  61   2.0000      -0.399063       -10.8591 
  62   2.0000      -0.388578       -10.5737 
  63   2.0000      -0.385407       -10.4874 
  64   2.0000      -0.383001       -10.4220 
  65   2.0000      -0.378045       -10.2871 
  66   2.0000      -0.366828        -9.9819 
  67   2.0000      -0.361655        -9.8411 
  68   2.0000      -0.350196        -9.5293 
  69   2.0000      -0.335114        -9.1189 
  70   2.0000      -0.319452        -8.6927 
  71   2.0000      -0.310928        -8.4608 
  72   2.0000      -0.303207        -8.2507 
  73   2.0000      -0.292485        -7.9589 
  74   2.0000      -0.263929        -7.1819 
  75   2.0000      -0.220537        -6.0011 
  76   0.0000      -0.087848        -2.3905 
  77   0.0000      -0.044617        -1.2141 
  78   0.0000      -0.000508        -0.0138 
  79   0.0000       0.005551         0.1511 
  80   0.0000       0.006444         0.1754 
  81   0.0000       0.009099         0.2476 
  82   0.0000       0.013741         0.3739 
  83   0.0000       0.018435         0.5016 
  84   0.0000       0.019987         0.5439 
  85   0.0000       0.025121         0.6836 
  86   0.0000       0.027785         0.7561 
  87   0.0000       0.031361         0.8534 
  88   0.0000       0.038184         1.0390 
  89   0.0000       0.039506         1.0750 
  90   0.0000       0.046196         1.2571 
  91   0.0000       0.050038         1.3616 
  92   0.0000       0.052580         1.4308 
  93   0.0000       0.055908         1.5213 
  94   0.0000       0.056929         1.5491 
  95   0.0000       0.063163         1.7188 
  96   0.0000       0.063879         1.7382 
  97   0.0000       0.068264         1.8576 
  98   0.0000       0.069108         1.8805 
[...]
   Maximum residual norm  :     0.000376352258

                       ****Iteration    9****
              <<< Entering MO-section for Build Sigma(Double) >>>
   Forming the XC and CPCM contribution:
   Time for densities:            0.239
   Time for XC-Integration:      18.831
   Time for LR-CPCM terms:       11.166
   Time for Sigma-Completion:     0.174
   Time for building 10 sigma-vectors
   Data Preparation Phase         ...     0.01 sec
   Transformed RI Coulomb         ...     0.83 sec
   Transformed RI-exchange        ...   451.49 sec
   (ab|v) reading and digestion   ...   431.22 sec
   Final sigma-completion         ...     0.01 sec
   Done building sigma-vectors             Size of expansion space: 60
   Lowest Energy          :     0.131662907785
   Maximum Energy change  :     0.000841200828 (vector 7)
   Maximum residual norm  :     0.000095173786

                       ****Iteration   10****
              <<< Entering MO-section for Build Sigma(Double) >>>
   Forming the XC and CPCM contribution:
   Time for densities:            0.246
   Time for XC-Integration:      19.264
   Time for LR-CPCM terms:       11.235
   Time for Sigma-Completion:     0.170
   Time for building 10 sigma-vectors
   Data Preparation Phase         ...     0.01 sec
   Transformed RI Coulomb         ...     0.82 sec
   Transformed RI-exchange        ...   454.33 sec
   (ab|v) reading and digestion   ...   434.85 sec
   Final sigma-completion         ...     0.01 sec
   Done building sigma-vectors             Size of expansion space: 70
   Lowest Energy          :     0.131662907784
   Maximum Energy change  :     0.000177492900 (vector 7)
   Maximum residual norm  :     0.000012076826
   Rebuilding the expansion space

                       ****Iteration   11****
              <<< Entering MO-section for Build Sigma(Double) >>>
   Forming the XC and CPCM contribution:
   Time for densities:            0.479
   Time for XC-Integration:      37.337
   Time for LR-CPCM terms:       17.986
   Time for Sigma-Completion:     0.344
   Time for building 20 sigma-vectors
   Data Preparation Phase         ...     0.02 sec
   Transformed RI Coulomb         ...     1.39 sec
   Transformed RI-exchange        ...   959.85 sec
   (ab|v) reading and digestion   ...   920.64 sec
   Final sigma-completion         ...     0.01 sec
   Done building sigma-vectors             Size of expansion space: 20
   Lowest Energy          :     0.131662907772
   Maximum Energy change  :     0.000020029650 (vector 7)
   Maximum residual norm  :     0.000002594391

                       ****Iteration   12****
              <<< Entering MO-section for Build Sigma(Double) >>>
   Forming the XC and CPCM contribution:
   Time for densities:            0.251
   Time for XC-Integration:      20.993
   Time for LR-CPCM terms:       11.439
   Time for Sigma-Completion:     0.190
   Time for building 10 sigma-vectors
   Data Preparation Phase         ...     0.01 sec
   Transformed RI Coulomb         ...     0.84 sec
   Transformed RI-exchange        ...   456.27 sec
   (ab|v) reading and digestion   ...   436.95 sec
   Final sigma-completion         ...     0.01 sec
   Done building sigma-vectors             Size of expansion space: 30
   Lowest Energy          :     0.131662907772
   Maximum Energy change  :     0.000004919631 (vector 7)
   Maximum residual norm  :     0.000000667145

      *** CONVERGENCE OF RESIDUAL NORM REACHED ***

Storing the converged CI vectors               ... optpbed3-b2plyp-test-124_job2.cis1

                 *** DAVIDSON DONE ***

Total time for solving the CIS problem:  6835.085sec

------------------
DOUBLES CORRECTION (Double precision version)
------------------

The (D) correction will be scaled by  0.2700
Doing v(i,a)*T(i,a) terms (RI)                    ... ok
Doing u(i,j,a,b) terms for state   0              ... ok
Doing u(i,j,a,b) terms for state   1              ... ok
Doing u(i,j,a,b) terms for state   2              ... ok
Doing u(i,j,a,b) terms for state   3              ... ok
Doing u(i,j,a,b) terms for state   4              ... ok
Doing u(i,j,a,b) terms for state   5              ... ok
Doing u(i,j,a,b) terms for state   6              ... ok
Doing u(i,j,a,b) terms for state   7              ... ok
Doing u(i,j,a,b) terms for state   8              ... ok
Doing u(i,j,a,b) terms for state   9              ... ok

Contributions to the (D) correction(s) (in eV)

STATE  Final   Init.   Total   v(ext)   v(int)  v(3)    u
       omega   omega     (D)                             
-----------------------------------------------------------------------------
   0   2.886   3.583  -0.697   0.729   0.893  -0.044  -2.275
   1   3.938   4.437  -0.500   0.696   0.980  -0.056  -2.119
   2   4.151   4.761  -0.611   0.620   0.912  -0.073  -2.070
   3   4.348   5.048  -0.700   0.732   0.766  -0.027  -2.170
   4   4.911   5.245  -0.334   0.082   0.899  -0.003  -1.312
   5   5.047   5.355  -0.307   0.255   0.865  -0.011  -1.416
   6   5.276   5.576  -0.300   0.623   0.957  -0.055  -1.825
   7   4.870   5.769  -0.900   0.740   0.821  -0.026  -2.434
   8   5.414   5.911  -0.498   0.395   0.903  -0.037  -1.759
   9   5.504   5.925  -0.421   0.162   0.896  -0.012  -1.468

(D)-timings
 V(i,a)*T(i,a) terms           ...   607.044 sec
 U(i,j,a,b) 3-internal         ...    15.133 sec
 U(i,j,a,b) 3-external         ...   349.471 sec
 U(i,j,a,b) pair terms         ...   324.239 sec
 Total measured time           ...  3017.154 sec

 Time for (ab|v) I/O           ...    85.330 sec


------------------------------------
TD-DFT/TDA EXCITED STATES (SINGLETS)
------------------------------------

the weight of the individual excitations are printed if larger than 1.0e-02

STATE  1:  E=   0.106048 au      2.886 eV    23274.9 cm**-1 <S**2> =   0.000000
    75a ->  76a  :     0.969177 (c= -0.98446803)

STATE  2:  E=   0.144715 au      3.938 eV    31761.4 cm**-1 <S**2> =   0.000000
    73a ->  77a  :     0.016386 (c= -0.12800640)
    74a ->  76a  :     0.738028 (c= -0.85908570)
    75a ->  77a  :     0.190036 (c= -0.43593144)

STATE  3:  E=   0.152533 au      4.151 eV    33477.1 cm**-1 <S**2> =   0.000000
    74a ->  76a  :     0.176577 (c= -0.42021120)
    75a ->  77a  :     0.735400 (c=  0.85755488)
    75a ->  78a  :     0.014873 (c=  0.12195453)

STATE  4:  E=   0.159802 au      4.348 eV    35072.4 cm**-1 <S**2> =   0.000000
    71a ->  76a  :     0.084531 (c= -0.29074149)
    72a ->  76a  :     0.750026 (c=  0.86604013)
    73a ->  76a  :     0.056092 (c=  0.23683833)

STATE  5:  E=   0.180485 au      4.911 eV    39611.9 cm**-1 <S**2> =   0.000000
    75a ->  78a  :     0.290410 (c= -0.53889692)
    75a ->  79a  :     0.295867 (c=  0.54393637)
    75a ->  80a  :     0.100658 (c=  0.31726630)
    75a ->  81a  :     0.030567 (c=  0.17483497)
    75a ->  82a  :     0.038646 (c=  0.19658611)
    75a ->  85a  :     0.066954 (c=  0.25875456)
    75a ->  86a  :     0.024827 (c=  0.15756627)
    75a ->  87a  :     0.021496 (c=  0.14661456)
    75a ->  90a  :     0.014878 (c=  0.12197460)
    75a ->  95a  :     0.013405 (c= -0.11578013)
    75a ->  98a  :     0.028792 (c=  0.16968250)

STATE  6:  E=   0.185485 au      5.047 eV    40709.2 cm**-1 <S**2> =   0.000000
    75a ->  78a  :     0.118713 (c=  0.34454686)
    75a ->  80a  :     0.015199 (c=  0.12328334)
    75a ->  81a  :     0.046768 (c= -0.21625805)
    75a ->  82a  :     0.127797 (c= -0.35748660)
    75a ->  84a  :     0.021871 (c= -0.14788759)
    75a ->  85a  :     0.027735 (c=  0.16653751)
    75a ->  86a  :     0.016800 (c=  0.12961363)
    75a ->  87a  :     0.145161 (c=  0.38100011)
    75a ->  88a  :     0.010406 (c= -0.10201012)
    75a ->  90a  :     0.085968 (c=  0.29320253)
    75a ->  92a  :     0.055280 (c=  0.23511670)
    75a ->  95a  :     0.035234 (c= -0.18770645)
    75a ->  98a  :     0.086314 (c=  0.29379195)
    75a -> 100a  :     0.039198 (c= -0.19798428)
    75a -> 101a  :     0.024706 (c=  0.15718163)
    75a -> 107a  :     0.023390 (c=  0.15293854)
    75a -> 108a  :     0.016595 (c=  0.12882264)

STATE  7:  E=   0.193892 au      5.276 eV    42554.4 cm**-1 <S**2> =   0.000000
    70a ->  76a  :     0.010547 (c= -0.10269681)
    72a ->  76a  :     0.018428 (c= -0.13575037)
    73a ->  76a  :     0.216181 (c=  0.46495302)
    74a ->  77a  :     0.654533 (c= -0.80903211)
    74a ->  78a  :     0.011503 (c= -0.10725193)

STATE  8:  E=   0.178955 au      4.870 eV    39276.1 cm**-1 <S**2> =   0.000000
    70a ->  76a  :     0.021828 (c= -0.14774393)
    71a ->  76a  :     0.466025 (c=  0.68266005)
    71a ->  77a  :     0.102170 (c= -0.31963984)
    71a ->  87a  :     0.020865 (c= -0.14444827)
    71a ->  88a  :     0.030969 (c= -0.17597966)
    71a ->  91a  :     0.053499 (c=  0.23129935)
    71a -> 117a  :     0.010035 (c=  0.10017445)
    72a ->  76a  :     0.035842 (c=  0.18932056)
    72a ->  77a  :     0.064761 (c= -0.25448218)
    72a ->  91a  :     0.012284 (c=  0.11083101)
    73a ->  76a  :     0.027190 (c=  0.16489253)

STATE  9:  E=   0.198943 au      5.414 eV    43663.0 cm**-1 <S**2> =   0.000000
    71a ->  76a  :     0.010120 (c=  0.10059891)
    72a ->  76a  :     0.021605 (c=  0.14698573)
    73a ->  76a  :     0.165906 (c= -0.40731513)
    74a ->  77a  :     0.012023 (c= -0.10965121)
    75a ->  80a  :     0.080425 (c=  0.28359304)
    75a ->  82a  :     0.063714 (c= -0.25241641)
    75a ->  83a  :     0.028123 (c= -0.16769870)
    75a ->  84a  :     0.103950 (c= -0.32241354)
    75a ->  85a  :     0.023295 (c= -0.15262679)
    75a ->  87a  :     0.126712 (c= -0.35596665)
    75a ->  88a  :     0.177365 (c= -0.42114705)
    75a ->  91a  :     0.060909 (c=  0.24679665)
    75a ->  92a  :     0.014946 (c=  0.12225465)

STATE 10:  E=   0.202273 au      5.504 eV    44393.8 cm**-1 <S**2> =   0.000000
    73a ->  76a  :     0.049681 (c=  0.22289128)
    75a ->  79a  :     0.012363 (c= -0.11118712)
    75a ->  80a  :     0.376996 (c=  0.61400036)
    75a ->  83a  :     0.095325 (c=  0.30874723)
    75a ->  84a  :     0.179707 (c= -0.42391860)
    75a ->  85a  :     0.015598 (c= -0.12489082)
    75a ->  86a  :     0.021744 (c= -0.14745967)
    75a ->  87a  :     0.011614 (c=  0.10776872)
    75a ->  88a  :     0.040273 (c=  0.20068035)
    75a ->  90a  :     0.052850 (c= -0.22989120)
    75a ->  91a  :     0.028730 (c= -0.16949801)
    75a ->  98a  :     0.013328 (c= -0.11544678)


-----------------------------
TD-DFT/TDA-EXCITATION SPECTRA
-----------------------------

Center of mass = (  0.5877, -0.0954,  0.2273)
Calculating the Dipole integrals                  ... done
Transforming integrals                            ... done
Calculating the Linear Momentum integrals         ... done
Transforming integrals                            ... done
Calculating angular momentum integrals            ... done
Transforming integrals                            ... done

-----------------------------------------------------------------------------
         ABSORPTION SPECTRUM VIA TRANSITION ELECTRIC DIPOLE MOMENTS
-----------------------------------------------------------------------------
State   Energy    Wavelength  fosc         T2        TX        TY        TZ  
        (cm-1)      (nm)                 (au**2)    (au)      (au)      (au) 
-----------------------------------------------------------------------------
   1   23274.9    429.6   0.125828646   1.77979  -0.46949   0.33029  -1.20427
   2   31761.4    314.8   0.203312240   2.10737  -1.02074   1.02791   0.09415
   3   33477.1    298.7   0.746293650   7.33902  -1.77070   1.57856  -1.30835
   4   35072.4    285.1   0.002834895   0.02661  -0.13146  -0.09591   0.01136
   5   39611.9    252.4   0.007842166   0.06518  -0.14521  -0.20733   0.03323
   6   40709.2    245.6   0.004072996   0.03294   0.13439   0.12003  -0.02164
   7   42554.4    235.0   0.025506865   0.19733  -0.03484  -0.12446  -0.42500
   8   39276.1    254.6   0.002674404   0.02242   0.11135  -0.05400   0.08427
   9   43663.0    229.0   0.054304066   0.40944  -0.31357   0.31443  -0.46071
  10   44393.8    225.3   0.018852704   0.13981   0.22596  -0.10728   0.27792

-----------------------------------------------------------------------------
         ABSORPTION SPECTRUM VIA TRANSITION VELOCITY DIPOLE MOMENTS
-----------------------------------------------------------------------------
State   Energy    Wavelength   fosc        P2         PX        PY        PZ  
        (cm-1)      (nm)                 (au**2)     (au)      (au)      (au) 
-----------------------------------------------------------------------------
   1   23274.9    429.6   0.032467322   0.00516   0.04389  -0.05582   0.01105
   2   31761.4    314.8   0.092511572   0.02008   0.10112  -0.09007   0.04176
   3   33477.1    298.7   0.390322188   0.08931   0.19712  -0.17641   0.13904
   4   35072.4    285.1   0.000688768   0.00017  -0.00695  -0.01050   0.00256
   5   39611.9    252.4   0.007935276   0.00215   0.02831   0.03644  -0.00438
   6   40709.2    245.6   0.007076460   0.00197  -0.03225  -0.03015   0.00444
   7   42554.4    235.0   0.002788772   0.00081   0.01240   0.02288   0.01157
   8   39276.1    254.6   0.002102969   0.00056  -0.00074   0.02106  -0.01098
   9   43663.0    229.0   0.019585729   0.00584   0.05672  -0.03728   0.03517
  10   44393.8    225.3   0.005623459   0.00171  -0.03290   0.01651  -0.01874

-------------------------------------------------------------------
                             CD SPECTRUM
-------------------------------------------------------------------
State  Energy     Wavelength     R         MX        MY        MZ   
       (cm-1)       (nm)     (1e40*cgs)   (au)      (au)      (au)  
-------------------------------------------------------------------
   1   23274.9    429.6     -8.51362  -0.06310  -0.04280   0.02786
   2   31761.4    314.8     12.78039   0.08307   0.10363   0.05714
   3   33477.1    298.7    -11.51471  -0.07620   0.00765   0.13102
   4   35072.4    285.1     -2.64799   0.19000  -0.18949   0.10439
   5   39611.9    252.4     -0.64843   0.00622   0.00284   0.00353
   6   40709.2    245.6     -1.26153  -0.09162   0.11578   0.19688
   7   42554.4    235.0     -5.87345  -0.18479  -0.13054   0.08269
   8   39276.1    254.6      2.29888   0.15366  -0.13905  -0.23429
   9   43663.0    229.0     35.49530  -0.39147  -0.25194  -0.06892
  10   44393.8    225.3    -37.89071   0.00295   0.30384  -0.17430

-------------------------------------------------------------------
         CD SPECTRUM VIA TRANSITION VELOCITY DIPOLE MOMENTS        
-------------------------------------------------------------------
State  Energy     Wavelength     R         MX        MY        MZ   
       (cm-1)       (nm)     (1e40*cgs)   (au)      (au)      (au)  
-------------------------------------------------------------------
   1   23274.9    429.6     -0.32206  -0.06310  -0.04280   0.02786
   2   31761.4    314.8      4.72987   0.08307   0.10363   0.05714
   3   33477.1    298.7      5.70965  -0.07620   0.00765   0.13102
   4   35072.4    285.1      2.75874   0.19000  -0.18949   0.10439
   5   39611.9    252.4      0.69017   0.00622   0.00284   0.00353
   6   40709.2    245.6      0.86027  -0.09162   0.11578   0.19688
   7   42554.4    235.0    -10.50845  -0.18479  -0.13054   0.08269
   8   39276.1    254.6     -1.23552   0.15366  -0.13905  -0.23429
   9   43663.0    229.0    -36.10836  -0.39147  -0.25194  -0.06892
  10   44393.8    225.3     19.08263   0.00295   0.30384  -0.17430

Total run time:     9860.883 sec

           *** ORCA-CIS/TD-DFT FINISHED WITHOUT ERROR ***

Maximum memory used throughout the entire CIS-calculation: 1500.5 MB

-----------------------
CIS/TD-DFT TOTAL ENERGY
-----------------------

    E(SCF)  =  -1253.824789173 Eh
    DE(CIS) =      0.106048168 Eh (Root  1)
    ----------------------------- ---------
    E(tot)  =  -1253.718741005 Eh



-------------------------------------------------------------------------------
                          DFT DISPERSION CORRECTION                            
                                                                               
                              DFTD3 V3.1  Rev 1                                
                          USING Becke-Johnson damping                          
-------------------------------------------------------------------------------
The B2PLYP functional is recognized
Active option DFTDOPT                   ...         4   

molecular C6(AA) [au] = 15188.308168 


            DFT-D V3
 parameters
 s6 scaling factor         :     0.6400 
 a1 scaling factor         :     0.3065 
 s8 scaling factor         :     0.9147 
 a2 scaling factor         :     5.0570 
 ad hoc parameters k1-k3   :    16.0000     1.3333    -4.0000 

 Edisp/kcal,au: -23.030287897316  -0.036701095988 
 E6   /kcal   : -12.796346763 
 E8   /kcal   : -10.233941135 
 % E8         :  44.436878862 

-------------------------   ----------------
Dispersion correction           -0.036701096
-------------------------   ----------------


-------------------------   --------------------
FINAL SINGLE POINT ENERGY     -1253.755442101373
-------------------------   --------------------


                            ***************************************
                            *     ORCA property calculations      *
                            ***************************************


  WARNING: The energy has been calculated at the MP2 level but the densities
           used in the property calculations are still SCF densities
           MP2 response densities have not been calculated 
           use %mp2 Density relaxed end
           or  %mp2 Density unrelaxed end

                                    ---------------------
                                    Active property flags
                                    ---------------------
   (+) Dipole Moment


------------------------------------------------------------------------------
                       ORCA ELECTRIC PROPERTIES CALCULATION
------------------------------------------------------------------------------

Dipole Moment Calculation                       ... on
Quadrupole Moment Calculation                   ... off
Polarizability Calculation                      ... off
GBWName                                         ... optpbed3-b2plyp-test-124_job2.gbw
Electron density                                ... optpbed3-b2plyp-test-124_job2.scfp
The origin for moment calculation is the CENTER OF MASS  = ( 0.587668, -0.095404  0.227327)

-------------
DIPOLE MOMENT
-------------
                                X             Y             Z
Electronic contribution:      7.85781       0.47270       1.24729
Nuclear contribution   :     -8.73771       0.42743      -0.98208
                        -----------------------------------------
Total Dipole Moment    :     -0.87990       0.90013       0.26521
                        -----------------------------------------
Magnitude (a.u.)       :      1.28639
Magnitude (Debye)      :      3.26974



--------------------
Rotational spectrum 
--------------------
 
Rotational constants in cm-1:     0.023139     0.005758     0.004780 
Rotational constants in MHz :   693.683488   172.628009   143.305043 

 Dipole components along the rotational axes: 
x,y,z [a.u.] :     1.007724     0.799111     0.026668 
x,y,z [Debye]:     2.561432     2.031178     0.067785 

 

Timings for individual modules:

Sum of individual times         ...    12240.820 sec (= 204.014 min)
GTO integral calculation        ...        6.496 sec (=   0.108 min)   0.1 %
SCF iterations                  ...     1218.191 sec (=  20.303 min)  10.0 %
MP2 module                      ...     1153.514 sec (=  19.225 min)   9.4 %
CIS module                      ...     9862.619 sec (= 164.377 min)  80.6 %



                             ****ORCA TERMINATED NORMALLY****
TOTAL RUN TIME: 0 days 5 hours 52 minutes 33 seconds 713 msec
