
                                 *****************
                                 * O   R   C   A *
                                 *****************

                                            #,                                       
                                            ###                                      
                                            ####                                     
                                            #####                                    
                                            ######                                   
                                           ########,                                 
                                     ,,################,,,,,                         
                               ,,#################################,,                 
                          ,,##########################################,,             
                       ,#########################################, ''#####,          
                    ,#############################################,,   '####,        
                  ,##################################################,,,,####,       
                ,###########''''           ''''###############################       
              ,#####''   ,,,,##########,,,,          '''####'''          '####       
            ,##' ,,,,###########################,,,                        '##       
           ' ,,###''''                  '''############,,,                           
         ,,##''                                '''############,,,,        ,,,,,,###''
      ,#''                                            '''#######################'''  
     '                                                          ''''####''''         
             ,#######,   #######,   ,#######,      ##                                
            ,#'     '#,  ##    ##  ,#'     '#,    #''#        ######   ,####,        
            ##       ##  ##   ,#'  ##            #'  '#       #        #'  '#        
            ##       ##  #######   ##           ,######,      #####,   #    #        
            '#,     ,#'  ##    ##  '#,     ,#' ,#      #,         ##   #,  ,#        
             '#######'   ##     ##  '#######'  #'      '#     #####' # '####'        



                  #######################################################
                  #                        -***-                        #
                  #          Department of theory and spectroscopy      #
                  #    Directorship and core code : Frank Neese         #
                  #        Max Planck Institute fuer Kohlenforschung    #
                  #                Kaiser Wilhelm Platz 1               #
                  #                 D-45470 Muelheim/Ruhr               #
                  #                      Germany                        #
                  #                                                     #
                  #                  All rights reserved                #
                  #                        -***-                        #
                  #######################################################


                         Program Version 5.0.2 -  RELEASE  -


 With contributions from (in alphabetic order):
   Daniel Aravena         : Magnetic Suceptibility
   Michael Atanasov       : Ab Initio Ligand Field Theory (pilot matlab implementation)
   Alexander A. Auer      : GIAO ZORA, VPT2 properties, NMR spectrum
   Ute Becker             : Parallelization
   Giovanni Bistoni       : ED, misc. LED, open-shell LED, HFLD
   Martin Brehm           : Molecular dynamics
   Dmytro Bykov           : SCF Hessian
   Vijay G. Chilkuri      : MRCI spin determinant printing, contributions to CSF-ICE
   Dipayan Datta          : RHF DLPNO-CCSD density
   Achintya Kumar Dutta   : EOM-CC, STEOM-CC
   Dmitry Ganyushin       : Spin-Orbit,Spin-Spin,Magnetic field MRCI
   Miquel Garcia          : C-PCM and meta-GGA Hessian, CC/C-PCM, Gaussian charge scheme
   Yang Guo               : DLPNO-NEVPT2, F12-NEVPT2, CIM, IAO-localization
   Andreas Hansen         : Spin unrestricted coupled pair/coupled cluster methods
   Benjamin Helmich-Paris : MC-RPA, TRAH-SCF, COSX integrals
   Lee Huntington         : MR-EOM, pCC
   Robert Izsak           : Overlap fitted RIJCOSX, COSX-SCS-MP3, EOM
   Marcus Kettner         : VPT2
   Christian Kollmar      : KDIIS, OOCD, Brueckner-CCSD(T), CCSD density, CASPT2, CASPT2-K
   Simone Kossmann        : Meta GGA functionals, TD-DFT gradient, OOMP2, MP2 Hessian
   Martin Krupicka        : Initial AUTO-CI
   Lucas Lang             : DCDCAS
   Marvin Lechner         : AUTO-CI (C++ implementation), FIC-MRCC
   Dagmar Lenk            : GEPOL surface, SMD
   Dimitrios Liakos       : Extrapolation schemes; Compound Job, initial MDCI parallelization
   Dimitrios Manganas     : Further ROCIS development; embedding schemes
   Dimitrios Pantazis     : SARC Basis sets
   Anastasios Papadopoulos: AUTO-CI, single reference methods and gradients
   Taras Petrenko         : DFT Hessian,TD-DFT gradient, ASA, ECA, R-Raman, ABS, FL, XAS/XES, NRVS
   Peter Pinski           : DLPNO-MP2, DLPNO-MP2 Gradient
   Christoph Reimann      : Effective Core Potentials
   Marius Retegan         : Local ZFS, SOC
   Christoph Riplinger    : Optimizer, TS searches, QM/MM, DLPNO-CCSD(T), (RO)-DLPNO pert. Triples
   Tobias Risthaus        : Range-separated hybrids, TD-DFT gradient, RPA, STAB
   Michael Roemelt        : Original ROCIS implementation
   Masaaki Saitow         : Open-shell DLPNO-CCSD energy and density
   Barbara Sandhoefer     : DKH picture change effects
   Avijit Sen             : IP-ROCIS
   Kantharuban Sivalingam : CASSCF convergence, NEVPT2, FIC-MRCI
   Bernardo de Souza      : ESD, SOC TD-DFT
   Georgi Stoychev        : AutoAux, RI-MP2 NMR, DLPNO-MP2 response
   Willem Van den Heuvel  : Paramagnetic NMR
   Boris Wezisla          : Elementary symmetry handling
   Frank Wennmohs         : Technical directorship


 We gratefully acknowledge several colleagues who have allowed us to
 interface, adapt or use parts of their codes:
   Stefan Grimme, W. Hujo, H. Kruse, P. Pracht,  : VdW corrections, initial TS optimization,
                  C. Bannwarth, S. Ehlert          DFT functionals, gCP, sTDA/sTD-DF
   Ed Valeev, F. Pavosevic, A. Kumar             : LibInt (2-el integral package), F12 methods
   Garnet Chan, S. Sharma, J. Yang, R. Olivares  : DMRG
   Ulf Ekstrom                                   : XCFun DFT Library
   Mihaly Kallay                                 : mrcc  (arbitrary order and MRCC methods)
   Jiri Pittner, Ondrej Demel                    : Mk-CCSD
   Frank Weinhold                                : gennbo (NPA and NBO analysis)
   Christopher J. Cramer and Donald G. Truhlar   : smd solvation model
   Lars Goerigk                                  : TD-DFT with DH, B97 family of functionals
   V. Asgeirsson, H. Jonsson                     : NEB implementation
   FAccTs GmbH                                   : IRC, NEB, NEB-TS, DLPNO-Multilevel, CI-OPT
                                                   MM, QMMM, 2- and 3-layer-ONIOM, Crystal-QMMM,
                                                   LR-CPCM, SF, NACMEs, symmetry and pop. for TD-DFT,
                                                   nearIR, NL-DFT gradient (VV10), updates on ESD,
                                                   ML-optimized integration grids
   S Lehtola, MJT Oliveira, MAL Marques          : LibXC Library
   Liviu Ungur et al                             : ANISO software


 Your calculation uses the libint2 library for the computation of 2-el integrals
 For citations please refer to: http://libint.valeyev.net

 Your ORCA version has been built with support for libXC version: 5.1.0
 For citations please refer to: https://tddft.org/programs/libxc/

 This ORCA versions uses:
   CBLAS   interface :  Fast vector & matrix operations
   LAPACKE interface :  Fast linear algebra routines
   SCALAPACK package :  Parallel linear algebra routines
   Shared memory     :  Shared parallel matrices
   BLAS/LAPACK       :  OpenBLAS 0.3.15  USE64BITINT DYNAMIC_ARCH NO_AFFINITY Sandybridge SINGLE_THREADED
        Core in use  :  Sandybridge
   Copyright (c) 2011-2014, The OpenBLAS Project


Your calculation utilizes the atom-pairwise dispersion correction
with the Becke-Johnson damping scheme (D3BJ)
Cite in your paper:
S.Grimme, S.Ehrlich, L.Goerigk, J Comput Chem, (2011), 32, 1456–1465 
S.Grimme, J.Antony, S.Ehrlich and H.Krieg, J.Chem.Phys., 132, (2010), 154104 
   

Your calculation utilizes the SMD solvation module
Please cite in your paper:
A.V. Marenich, C.J. Cramer, D.G. Truhlar J. Phys. Chem. B, 113, (2009), 6378 

================================================================================

----- Orbital basis set information -----
Your calculation utilizes the basis: aug-cc-pVTZ 
    H, B-Ne : Obtained from the ccRepo (grant-hill.group.shef.ac.uk/ccrepo) Feb. 2017
              R. A. Kendall, T. H. Dunning, Jr., R. J. Harrison, J. Chem. Phys. 96, 6796 (1992)
         He : Obtained from the ccRepo (grant-hill.group.shef.ac.uk/ccrepo) Feb. 2017
              D. E. Woon, T. H. Dunning, Jr., J. Chem. Phys. 100, 2975 (1994)
  Li-Be, Na : Obtained from the ccRepo (grant-hill.group.shef.ac.uk/ccrepo) Feb. 2017
              B. P. Prascher, D. E. Woon, K. A. Peterson, T. H. Dunning, Jr., A. K. Wilson, Theor. Chem. Acc. 128, 69 (2011)
         Mg : Obtained from the Peterson Research Group Website (tyr0.chem.wsu.edu/~kipeters) Feb. 2017
              B. P. Prascher, D. E. Woon, K. A. Peterson, T. H. Dunning, Jr., A. K. Wilson, Theor. Chem. Acc. 128, 69 (2011)
      Al-Ar : Obtained from the ccRepo (grant-hill.group.shef.ac.uk/ccrepo) Feb. 2017
              D. E. Woon, T. H. Dunning, Jr., J. Chem. Phys. 98, 1358 (1993)
      Sc-Zn : Obtained from the ccRepo (grant-hill.group.shef.ac.uk/ccrepo) Feb. 2017
              N. B. Balabanov, K. A. Peterson, J. Chem. Phys. 123, 064107 (2005)
              N. B. Balabanov, K. A. Peterson, J. Chem. Phys. 125, 074110 (2006)
      Ga-Kr : Obtained from the ccRepo (grant-hill.group.shef.ac.uk/ccrepo) Feb. 2017
              A. K. Wilson, D. E. Woon, K. A. Peterson, T. H. Dunning, Jr., J. Chem. Phys. 110, 7667 (1999)
     Ag, Au : Obtained from the Peterson Research Group Website (tyr0.chem.wsu.edu/~kipeters) Feb. 2017
              K. A. Peterson, C. Puzzarini, Theor. Chem. Acc. 114, 283 (2005)

The basis set includes element-specific modifications.

Your calculation utilizes the basis: cc-pVTZ 
       H, B-Ne : Obtained from the ccRepo (grant-hill.group.shef.ac.uk/ccrepo) Feb. 2017
                 T. H. Dunning, Jr., J. Chem. Phys. 90, 1007 (1989)
            He : Obtained from the ccRepo (grant-hill.group.shef.ac.uk/ccrepo) Feb. 2017
                 D. E. Woon, T. H. Dunning, Jr., J. Chem. Phys. 100, 2975 (1994)
  Li-Be, Na-Mg : Obtained from the ccRepo (grant-hill.group.shef.ac.uk/ccrepo) Feb. 2017
                 B. P. Prascher, D. E. Woon, K. A. Peterson, T. H. Dunning, Jr., A. K. Wilson, Theor. Chem. Acc. 128, 69 (2011)
         Al-Ar : Obtained from the ccRepo (grant-hill.group.shef.ac.uk/ccrepo) Feb. 2017
                 D. E. Woon, T. H. Dunning, Jr., J. Chem. Phys. 98, 1358 (1993)
            Ca : Obtained from the Peterson Research Group Website (tyr0.chem.wsu.edu/~kipeters) Feb. 2017
                 J. Koput, K. A. Peterson, J. Phys. Chem. 106, 9595 (2002)
         Sc-Zn : Obtained from the ccRepo (grant-hill.group.shef.ac.uk/ccrepo) Feb. 2017
                 N. B. Balabanov, K. A. Peterson, J. Chem. Phys. 123, 064107 (2005)
                 N. B. Balabanov, K. A. Peterson, J. Chem. Phys. 125, 074110 (2006)
         Ga-Kr : Obtained from the ccRepo (grant-hill.group.shef.ac.uk/ccrepo) Feb. 2017
                 A. K. Wilson, D. E. Woon, K. A. Peterson, T. H. Dunning, Jr., J. Chem. Phys. 110, 7667 (1999)
             Y : Obtained from the ccRepo (grant-hill.group.shef.ac.uk/ccrepo) Feb. 2017
                 K. A. Peterson, D. Figgen, M. Dolg, H. Stoll, J. Chem. Phys. 126, 124101 (2007)
        Ag, Au : Obtained from the Peterson Research Group Website (tyr0.chem.wsu.edu/~kipeters) Feb. 2017
                 K. A. Peterson, C. Puzzarini, Theor. Chem. Acc. 114, 283 (2005)

----- AuxJ basis set information -----
Your calculation utilizes the auxiliary basis: aug-cc-pVTZ/JK 
  H, B-F, Al-Cl, Ga-Br : Obtained from the TURBOMOLE 7.0 basis set library

The basis set includes element-specific modifications.

Your calculation utilizes the auxiliary basis: cc-pVTZ/JK 
  H, B-F, Al-Cl, Ga-Br : Obtained from the TURBOMOLE 7.0 basis set library

----- AuxC basis set information -----
Your calculation utilizes the auxiliary basis: aug-cc-pVTZ/C 
  H-He, B-F, Al-Ar, Ga-Kr : Obtained from the EMSL Basis Set Exchange (bse.pnl.gov) Feb. 2017
                            F. Weigend, A. Kohn, C. Hattig, J. Chem. Phys. 116, 3175 (2002)
                   Be, Mg : Obtained from the TURBOMOLE 7.0 basis set library
                            C. Haettig, Phys. Chem. Chem. Phys. 7, 59 (2005)
                       Ne : Obtained from the EMSL Basis Set Exchange (bse.pnl.gov) Feb. 2017
                            C. Haettig, Phys. Chem. Chem. Phys. 7, 59 (2005)
                            F. Weigend, A. Kohn, C. Hattig, J. Chem. Phys. 116, 3175 (2002)
                    Sc-Zn : Obtained from the EMSL Basis Set Exchange (bse.pnl.gov) Feb. 2017
                            J. G. Hill, J. A. Platts, J. Chem. Phys. 128, 044104 (2008)

The basis set includes element-specific modifications.

Your calculation utilizes the auxiliary basis: cc-pVTZ/C 
  Obtained from the EMSL Basis Set Exchange (bse.pnl.gov) Feb. 2017
  H-He, B-F, Al-Ar, Ga-Kr : F. Weigend, A. Kohn, C. Hattig, J. Chem. Phys. 116, 3175 (2002)
             Li-Be, Na-Mg : C. Haettig, Phys. Chem. Chem. Phys. 7, 59 (2005)
                       Ne : C. Haettig, Phys. Chem. Chem. Phys. 7, 59 (2005)
                            F. Weigend, A. Kohn, C. Hattig, J. Chem. Phys. 116, 3175 (2002)
                    Sc-Zn : J. G. Hill, J. A. Platts, J. Chem. Phys. 128, 044104 (2008)

================================================================================
                                        WARNINGS
                       Please study these warnings very carefully!
================================================================================


WARNING: Geometry Optimization
  ===> : Switching off AutoStart
         For restart on a previous wavefunction, please use MOREAD

INFO   : the flag for use of the SHARK integral package has been found!



***************************************
The coordinates will be read from file: 
***************************************


Your calculation utilizes the atom-pairwise dispersion correction
with the Becke-Johnson damping scheme (D3BJ)
Cite in your paper:
S.Grimme, S.Ehrlich, L.Goerigk, J Comput Chem, (2011), 32, 1456–1465 
S.Grimme, J.Antony, S.Ehrlich and H.Krieg, J.Chem.Phys., 132, (2010), 154104 
   

Your calculation utilizes the SMD solvation module
Please cite in your paper:
A.V. Marenich, C.J. Cramer, D.G. Truhlar J. Phys. Chem. B, 113, (2009), 6378 

================================================================================

----- Orbital basis set information -----
Your calculation utilizes the basis: aug-cc-pVTZ 
    H, B-Ne : Obtained from the ccRepo (grant-hill.group.shef.ac.uk/ccrepo) Feb. 2017
              R. A. Kendall, T. H. Dunning, Jr., R. J. Harrison, J. Chem. Phys. 96, 6796 (1992)
         He : Obtained from the ccRepo (grant-hill.group.shef.ac.uk/ccrepo) Feb. 2017
              D. E. Woon, T. H. Dunning, Jr., J. Chem. Phys. 100, 2975 (1994)
  Li-Be, Na : Obtained from the ccRepo (grant-hill.group.shef.ac.uk/ccrepo) Feb. 2017
              B. P. Prascher, D. E. Woon, K. A. Peterson, T. H. Dunning, Jr., A. K. Wilson, Theor. Chem. Acc. 128, 69 (2011)
         Mg : Obtained from the Peterson Research Group Website (tyr0.chem.wsu.edu/~kipeters) Feb. 2017
              B. P. Prascher, D. E. Woon, K. A. Peterson, T. H. Dunning, Jr., A. K. Wilson, Theor. Chem. Acc. 128, 69 (2011)
      Al-Ar : Obtained from the ccRepo (grant-hill.group.shef.ac.uk/ccrepo) Feb. 2017
              D. E. Woon, T. H. Dunning, Jr., J. Chem. Phys. 98, 1358 (1993)
      Sc-Zn : Obtained from the ccRepo (grant-hill.group.shef.ac.uk/ccrepo) Feb. 2017
              N. B. Balabanov, K. A. Peterson, J. Chem. Phys. 123, 064107 (2005)
              N. B. Balabanov, K. A. Peterson, J. Chem. Phys. 125, 074110 (2006)
      Ga-Kr : Obtained from the ccRepo (grant-hill.group.shef.ac.uk/ccrepo) Feb. 2017
              A. K. Wilson, D. E. Woon, K. A. Peterson, T. H. Dunning, Jr., J. Chem. Phys. 110, 7667 (1999)
     Ag, Au : Obtained from the Peterson Research Group Website (tyr0.chem.wsu.edu/~kipeters) Feb. 2017
              K. A. Peterson, C. Puzzarini, Theor. Chem. Acc. 114, 283 (2005)

The basis set includes element-specific modifications.

Your calculation utilizes the basis: cc-pVTZ 
       H, B-Ne : Obtained from the ccRepo (grant-hill.group.shef.ac.uk/ccrepo) Feb. 2017
                 T. H. Dunning, Jr., J. Chem. Phys. 90, 1007 (1989)
            He : Obtained from the ccRepo (grant-hill.group.shef.ac.uk/ccrepo) Feb. 2017
                 D. E. Woon, T. H. Dunning, Jr., J. Chem. Phys. 100, 2975 (1994)
  Li-Be, Na-Mg : Obtained from the ccRepo (grant-hill.group.shef.ac.uk/ccrepo) Feb. 2017
                 B. P. Prascher, D. E. Woon, K. A. Peterson, T. H. Dunning, Jr., A. K. Wilson, Theor. Chem. Acc. 128, 69 (2011)
         Al-Ar : Obtained from the ccRepo (grant-hill.group.shef.ac.uk/ccrepo) Feb. 2017
                 D. E. Woon, T. H. Dunning, Jr., J. Chem. Phys. 98, 1358 (1993)
            Ca : Obtained from the Peterson Research Group Website (tyr0.chem.wsu.edu/~kipeters) Feb. 2017
                 J. Koput, K. A. Peterson, J. Phys. Chem. 106, 9595 (2002)
         Sc-Zn : Obtained from the ccRepo (grant-hill.group.shef.ac.uk/ccrepo) Feb. 2017
                 N. B. Balabanov, K. A. Peterson, J. Chem. Phys. 123, 064107 (2005)
                 N. B. Balabanov, K. A. Peterson, J. Chem. Phys. 125, 074110 (2006)
         Ga-Kr : Obtained from the ccRepo (grant-hill.group.shef.ac.uk/ccrepo) Feb. 2017
                 A. K. Wilson, D. E. Woon, K. A. Peterson, T. H. Dunning, Jr., J. Chem. Phys. 110, 7667 (1999)
             Y : Obtained from the ccRepo (grant-hill.group.shef.ac.uk/ccrepo) Feb. 2017
                 K. A. Peterson, D. Figgen, M. Dolg, H. Stoll, J. Chem. Phys. 126, 124101 (2007)
        Ag, Au : Obtained from the Peterson Research Group Website (tyr0.chem.wsu.edu/~kipeters) Feb. 2017
                 K. A. Peterson, C. Puzzarini, Theor. Chem. Acc. 114, 283 (2005)

----- AuxJ basis set information -----
Your calculation utilizes the auxiliary basis: aug-cc-pVTZ/JK 
  H, B-F, Al-Cl, Ga-Br : Obtained from the TURBOMOLE 7.0 basis set library

The basis set includes element-specific modifications.

Your calculation utilizes the auxiliary basis: cc-pVTZ/JK 
  H, B-F, Al-Cl, Ga-Br : Obtained from the TURBOMOLE 7.0 basis set library

----- AuxC basis set information -----
Your calculation utilizes the auxiliary basis: aug-cc-pVTZ/C 
  H-He, B-F, Al-Ar, Ga-Kr : Obtained from the EMSL Basis Set Exchange (bse.pnl.gov) Feb. 2017
                            F. Weigend, A. Kohn, C. Hattig, J. Chem. Phys. 116, 3175 (2002)
                   Be, Mg : Obtained from the TURBOMOLE 7.0 basis set library
                            C. Haettig, Phys. Chem. Chem. Phys. 7, 59 (2005)
                       Ne : Obtained from the EMSL Basis Set Exchange (bse.pnl.gov) Feb. 2017
                            C. Haettig, Phys. Chem. Chem. Phys. 7, 59 (2005)
                            F. Weigend, A. Kohn, C. Hattig, J. Chem. Phys. 116, 3175 (2002)
                    Sc-Zn : Obtained from the EMSL Basis Set Exchange (bse.pnl.gov) Feb. 2017
                            J. G. Hill, J. A. Platts, J. Chem. Phys. 128, 044104 (2008)

The basis set includes element-specific modifications.

Your calculation utilizes the auxiliary basis: cc-pVTZ/C 
  Obtained from the EMSL Basis Set Exchange (bse.pnl.gov) Feb. 2017
  H-He, B-F, Al-Ar, Ga-Kr : F. Weigend, A. Kohn, C. Hattig, J. Chem. Phys. 116, 3175 (2002)
             Li-Be, Na-Mg : C. Haettig, Phys. Chem. Chem. Phys. 7, 59 (2005)
                       Ne : C. Haettig, Phys. Chem. Chem. Phys. 7, 59 (2005)
                            F. Weigend, A. Kohn, C. Hattig, J. Chem. Phys. 116, 3175 (2002)
                    Sc-Zn : J. G. Hill, J. A. Platts, J. Chem. Phys. 128, 044104 (2008)

================================================================================
                                        WARNINGS
                       Please study these warnings very carefully!
================================================================================

INFO   : Checking CIS options ...
  ===> : (D) CORRECTION FOUND - SETTING MODE=3
  ===> : JK MODE FOUND - ACTIVATING RI-MP2 CODE
  ===> : MP2 AND CIS FOUND - CHECKING
WARNING: CIS(D) and MP2 runs must have the same orbital window
  ===> : adjusting orbital windows

WARNING: No MP2 level density has been requested!
         To caclulate MP2 level properties use
         %mp2 Density relaxed end
         or
         %mp2 Density unrelaxed end
         Otherwise for double-hybrid DFT only the energy is correct!

WARNING: The frozen-core approximation is turned on by default for 
         the MP2 part of double-hybrid DFT.

INFO   : the flag for use of the SHARK integral package has been found!

================================================================================
                                       INPUT FILE
================================================================================
NAME = optpbed3-b2plyp-test-553.inp
|  1> ! pbe0 d3bj aug-cc-PVTZ RIJCOSX Opt
|  2> %maxcore 4000
|  3> %basis
|  4>  AuxJ "aug-cc-PVTZ/JK"
|  5>  AuxC "aug-cc-PVTZ/C"
|  6>  newGTO H "cc-PVTZ" end
|  7>  newAuxJGTO H "cc-PVTZ/JK" end
|  8>  newAuxCGTO H "cc-PVTZ/C" end
|  9> end
| 10> %cpcm
| 11>  SMD true
| 12>  SMDsolvent "cyclohexane"
| 13> end
| 14> %pal nprocs 4 end
| 15> * xyz 0 1
| 16> C         -6.70180       -0.39800       -0.41900
| 17> O         -5.84190       -0.01690        0.62800
| 18> C         -4.50140       -0.04830        0.41730
| 19> C         -3.88370       -0.43320       -0.76940
| 20> C         -2.50590       -0.42330       -0.86190
| 21> C         -1.69770       -0.03490        0.20910
| 22> C         -0.26280       -0.04620        0.04830
| 23> C          0.65080        0.29790        0.97310
| 24> C          2.05980        0.25890        0.73370
| 25> N          2.96970        0.58440        1.60280
| 26> C          4.16650        0.40200        0.96390
| 27> C          5.47740        0.58650        1.38570
| 28> C          6.47820        0.30590        0.47820
| 29> C          6.19720       -0.14480       -0.81200
| 30> C          4.89940       -0.33500       -1.25170
| 31> C          3.89590       -0.05490       -0.34520
| 32> O          2.55020       -0.14190       -0.47920
| 33> C         -2.33480        0.34950        1.39650
| 34> C         -3.70440        0.34290        1.49840
| 35> H         -7.71100       -0.29370       -0.02370
| 36> H         -6.53610       -1.43830       -0.71650
| 37> H         -6.58630        0.25350       -1.29100
| 38> H         -4.46530       -0.74120       -1.62420
| 39> H         -2.04210       -0.72490       -1.79030
| 40> H          0.09490       -0.36710       -0.92250
| 41> H          0.38710        0.62910        1.96460
| 42> H          5.68900        0.93480        2.38320
| 43> H          7.50970        0.43730        0.76990
| 44> H          7.01530       -0.35090       -1.48570
| 45> H          4.67790       -0.68330       -2.24780
| 46> H         -1.74700        0.65600        2.24680
| 47> H         -4.19690        0.63830        2.41150
| 48> *
| 49> 
| 50> 
| 51> $new_job
| 52> ! b2plyp aug-cc-PVTZ RIJCOSX SP
| 53> %maxcore 4000
| 54> %basis
| 55>  AuxJ "aug-cc-PVTZ/JK"
| 56>  AuxC "aug-cc-PVTZ/C"
| 57>  newGTO H "cc-PVTZ" end
| 58>  newAuxJGTO H "cc-PVTZ/JK" end
| 59>  newAuxCGTO H "cc-PVTZ/C" end
| 60> end
| 61> %cpcm
| 62>  SMD true
| 63>  SMDsolvent "cyclohexane"
| 64> end
| 65> %pal nprocs 4 end
| 66> %tddft
| 67>  nroots 10
| 68>  maxdim 7
| 69> end
| 70> * xyzfile 0 1
| 71> 
| 72>                          ****END OF INPUT****
================================================================================


                 $$$$$$$$$$$$$$$$$$$$$$$$$$$$$$$$$$$$$$$$$$$$$$ 
                 $ THERE ARE  2 JOBS TO BE PROCESSED THIS RUN $
                 $$$$$$$$$$$$$$$$$$$$$$$$$$$$$$$$$$$$$$$$$$$$$$ 




                 $$$$$$$$$$$$$$$$  JOB NUMBER  1 $$$$$$$$$$$$$$


                       *****************************
                       * Geometry Optimization Run *
                       *****************************

Geometry optimization settings:
Update method            Update   .... BFGS
Choice of coordinates    CoordSys .... Z-matrix Internals
Initial Hessian          InHess   .... Almoef's Model

Convergence Tolerances:
Energy Change            TolE     ....  5.0000e-06 Eh
Max. Gradient            TolMAXG  ....  3.0000e-04 Eh/bohr
RMS Gradient             TolRMSG  ....  1.0000e-04 Eh/bohr
Max. Displacement        TolMAXD  ....  4.0000e-03 bohr
RMS Displacement         TolRMSD  ....  2.0000e-03 bohr
Strict Convergence                ....  False
------------------------------------------------------------------------------
                        ORCA OPTIMIZATION COORDINATE SETUP
------------------------------------------------------------------------------

The optimization will be done in new redundant internal coordinates
Making redundant internal coordinates   ...  (new redundants) done
Evaluating the initial hessian          ...  (Almloef) done
Evaluating the coordinates              ...  done
Calculating the B-matrix                .... done
Calculating the G-matrix                .... done
Diagonalizing the G-matrix              .... done
Small eigenvalue found = 2.162e-03
Small eigenvalue found = 9.981e-03
Small eigenvalue found = 1.751e-02
Small eigenvalue found = 1.935e-02
Small eigenvalue found = 2.687e-02
The first mode is                       ....   71
The number of degrees of freedom        ....   90

    -----------------------------------------------------------------
                    Redundant Internal Coordinates


    -----------------------------------------------------------------
         Definition                    Initial Value    Approx d2E/dq
    -----------------------------------------------------------------
      1. B(O   1,C   0)                  1.4074         0.524878   
      2. B(C   2,O   1)                  1.3573         0.630975   
      3. B(C   3,C   2)                  1.3921         0.619982   
      4. B(C   4,C   3)                  1.3809         0.645949   
      5. B(C   5,C   4)                  1.3968         0.609356   
      6. B(C   6,C   5)                  1.4439         0.512511   
      7. B(C   7,C   6)                  1.3447         0.737817   
      8. B(C   8,C   7)                  1.4297         0.539957   
      9. B(N   9,C   8)                  1.2997         0.779747   
     10. B(C  10,N   9)                  1.3689         0.604775   
     11. B(C  11,C  10)                  1.3894         0.626190   
     12. B(C  12,C  11)                  1.3798         0.648613   
     13. B(C  13,C  12)                  1.3952         0.612874   
     14. B(C  14,C  13)                  1.3834         0.640129   
     15. B(C  15,C  10)                  1.4127         0.574805   
     16. B(C  15,C  14)                  1.3810         0.645757   
     17. B(O  16,C  15)                  1.3552         0.636027   
     18. B(O  16,C   8)                  1.3683         0.606022   
     19. B(C  17,C   5)                  1.4013         0.599440   
     20. B(C  18,C  17)                  1.3734         0.664080   
     21. B(C  18,C   2)                  1.3989         0.604618   
     22. B(H  19,C   0)                  1.0889         0.361606   
     23. B(H  20,C   0)                  1.0946         0.354044   
     24. B(H  21,C   0)                  1.0946         0.354050   
     25. B(H  22,C   3)                  1.0788         0.375228   
     26. B(H  23,C   4)                  1.0807         0.372560   
     27. B(H  24,C   6)                  1.0832         0.369173   
     28. B(H  25,C   7)                  1.0781         0.376189   
     29. B(H  26,C  11)                  1.0775         0.376965   
     30. B(H  27,C  12)                  1.0800         0.373608   
     31. B(H  28,C  13)                  1.0796         0.374060   
     32. B(H  29,C  14)                  1.0782         0.376005   
     33. B(H  30,C  17)                  1.0782         0.376088   
     34. B(H  31,C  18)                  1.0787         0.375379   
     35. A(O   1,C   0,H  19)          105.6801         0.341292   
     36. A(H  19,C   0,H  21)          109.2683         0.290257   
     37. A(O   1,C   0,H  20)          111.5329         0.340088   
     38. A(H  20,C   0,H  21)          109.4612         0.289296   
     39. A(H  19,C   0,H  20)          109.2691         0.290256   
     40. A(O   1,C   0,H  21)          111.5299         0.340089   
     41. A(C   0,O   1,C   2)          118.7936         0.417155   
     42. A(O   1,C   2,C  18)          115.8633         0.430640   
     43. A(C   3,C   2,C  18)          118.9010         0.432107   
     44. A(O   1,C   2,C   3)          125.2357         0.432586   
     45. A(C   2,C   3,C   4)          119.8563         0.437281   
     46. A(C   4,C   3,H  22)          119.1348         0.357862   
     47. A(C   2,C   3,H  22)          121.0090         0.355377   
     48. A(C   3,C   4,H  23)          118.9284         0.357428   
     49. A(C   5,C   4,H  23)          119.2064         0.353908   
     50. A(C   3,C   4,C   5)          121.8652         0.435921   
     51. A(C   4,C   5,C  17)          117.5763         0.430103   
     52. A(C   6,C   5,C  17)          123.2523         0.416998   
     53. A(C   4,C   5,C   6)          119.1714         0.418219   
     54. A(C   5,C   6,C   7)          126.6234         0.432786   
     55. A(C   7,C   6,H  24)          117.8915         0.365059   
     56. A(C   5,C   6,H  24)          115.4851         0.343205   
     57. A(C   6,C   7,C   8)          123.1892         0.436869   
     58. A(C   6,C   7,H  25)          123.0184         0.366237   
     59. A(C   8,C   7,H  25)          113.7925         0.347323   
     60. A(N   9,C   8,O  16)          114.5317         0.444646   
     61. A(C   7,C   8,O  16)          120.6386         0.418978   
     62. A(C   7,C   8,N   9)          124.8297         0.438350   
     63. A(C   8,N   9,C  10)          105.4627         0.444481   
     64. A(C  11,C  10,C  15)          120.3311         0.428968   
     65. A(N   9,C  10,C  15)          107.9468         0.423526   
     66. A(N   9,C  10,C  11)          131.7221         0.430072   
     67. A(C  10,C  11,C  12)          117.2366         0.438393   
     68. A(C  12,C  11,H  26)          122.1504         0.358394   
     69. A(C  10,C  11,H  26)          120.6130         0.356257   
     70. A(C  11,C  12,C  13)          121.8565         0.436697   
     71. A(C  13,C  12,H  27)          118.7785         0.354422   
     72. A(C  11,C  12,H  27)          119.3650         0.357849   
     73. A(C  12,C  13,C  14)          121.8204         0.435662   
     74. A(C  14,C  13,H  28)          119.0966         0.357123   
     75. A(C  12,C  13,H  28)          119.0830         0.354495   
     76. A(C  15,C  14,H  29)          121.5097         0.357970   
     77. A(C  13,C  14,H  29)          122.0567         0.357438   
     78. A(C  13,C  14,C  15)          116.4336         0.439787   
     79. A(C  14,C  15,O  16)          130.0640         0.436395   
     80. A(C  10,C  15,O  16)          107.6142         0.427363   
     81. A(C  10,C  15,C  14)          122.3218         0.431344   
     82. A(C   8,O  16,C  15)          104.4446         0.428619   
     83. A(C   5,C  17,C  18)          120.9942         0.436807   
     84. A(C  18,C  17,H  30)          119.1123         0.359692   
     85. A(C   5,C  17,H  30)          119.8935         0.353490   
     86. A(C   2,C  18,C  17)          120.8070         0.437485   
     87. A(C  17,C  18,H  31)          121.1178         0.359577   
     88. A(C   2,C  18,H  31)          118.0753         0.353892   
     89. D(C   2,O   1,C   0,H  21)    -61.3497         0.021859   
     90. D(C   2,O   1,C   0,H  20)     61.3813         0.021859   
     91. D(C   2,O   1,C   0,H  19)   -179.9829         0.021859   
     92. D(C   3,C   2,O   1,C   0)     -0.0287         0.029286   
     93. D(C  18,C   2,O   1,C   0)    179.9824         0.029286   
     94. D(H  22,C   3,C   2,C  18)    179.9920         0.026598   
     95. D(C   4,C   3,C   2,C  18)     -0.0112         0.026598   
     96. D(H  22,C   3,C   2,O   1)      0.0034         0.026598   
     97. D(C   4,C   3,C   2,O   1)   -179.9998         0.026598   
     98. D(H  23,C   4,C   3,H  22)      0.0028         0.029027   
     99. D(C   5,C   4,C   3,H  22)    179.9948         0.029027   
    100. D(H  23,C   4,C   3,C   2)   -179.9940         0.029027   
    101. D(C   5,C   4,C   3,C   2)     -0.0020         0.029027   
    102. D(C   6,C   5,C   4,H  23)      0.0052         0.025642   
    103. D(C   6,C   5,C   4,C   3)   -179.9867         0.025642   
    104. D(C  17,C   5,C   4,H  23)   -179.9993         0.025642   
    105. D(C  17,C   5,C   4,C   3)      0.0087         0.025642   
    106. D(H  24,C   6,C   5,C  17)    179.9063         0.017904   
    107. D(H  24,C   6,C   5,C   4)     -0.0985         0.017904   
    108. D(C   7,C   6,C   5,C  17)     -0.1059         0.017904   
    109. D(C   7,C   6,C   5,C   4)    179.8893         0.017904   
    110. D(H  25,C   7,C   6,H  24)    179.9793         0.038701   
    111. D(H  25,C   7,C   6,C   5)     -0.0083         0.038701   
    112. D(C   8,C   7,C   6,H  24)     -0.0138         0.038701   
    113. D(C   8,C   7,C   6,C   5)    179.9986         0.038701   
    114. D(O  16,C   8,C   7,H  25)    179.9653         0.019921   
    115. D(O  16,C   8,C   7,C   6)     -0.0410         0.019921   
    116. D(N   9,C   8,C   7,H  25)     -0.0223         0.019921   
    117. D(N   9,C   8,C   7,C   6)    179.9714         0.019921   
    118. D(C  10,N   9,C   8,O  16)      0.0090         0.046580   
    119. D(C  10,N   9,C   8,C   7)    179.9972         0.046580   
    120. D(C  15,C  10,N   9,C   8)     -0.0059         0.026741   
    121. D(C  11,C  10,N   9,C   8)    179.9989         0.026741   
    122. D(H  26,C  11,C  10,C  15)   -179.9994         0.027166   
    123. D(H  26,C  11,C  10,N   9)     -0.0047         0.027166   
    124. D(C  12,C  11,C  10,C  15)     -0.0032         0.027166   
    125. D(C  12,C  11,C  10,N   9)    179.9914         0.027166   
    126. D(H  27,C  12,C  11,H  26)     -0.0041         0.029283   
    127. D(H  27,C  12,C  11,C  10)    179.9998         0.029283   
    128. D(C  13,C  12,C  11,H  26)   -179.9989         0.029283   
    129. D(C  13,C  12,C  11,C  10)      0.0051         0.029283   
    130. D(H  28,C  13,C  12,H  27)      0.0095         0.025956   
    131. D(H  28,C  13,C  12,C  11)   -179.9957         0.025956   
    132. D(C  14,C  13,C  12,H  27)   -179.9984         0.025956   
    133. D(C  14,C  13,C  12,C  11)     -0.0037         0.025956   
    134. D(H  29,C  14,C  13,H  28)      0.0038         0.028471   
    135. D(H  29,C  14,C  13,C  12)   -179.9883         0.028471   
    136. D(C  15,C  14,C  13,H  28)    179.9923         0.028471   
    137. D(C  15,C  14,C  13,C  12)      0.0002         0.028471   
    138. D(O  16,C  15,C  14,H  29)     -0.0061         0.029008   
    139. D(O  16,C  15,C  14,C  13)   -179.9946         0.029008   
    140. D(C  10,C  15,C  14,H  29)    179.9901         0.029008   
    141. D(C  10,C  15,C  14,C  13)      0.0016         0.029008   
    142. D(O  16,C  15,C  10,C  11)    179.9969         0.022681   
    143. D(O  16,C  15,C  10,N   9)      0.0010         0.022681   
    144. D(C  14,C  15,C  10,C  11)     -0.0001         0.022681   
    145. D(C  14,C  15,C  10,N   9)   -179.9959         0.022681   
    146. D(C   8,O  16,C  15,C  14)   -179.9994         0.029793   
    147. D(C   8,O  16,C  15,C  10)      0.0040         0.029793   
    148. D(C  15,O  16,C   8,N   9)     -0.0084         0.026859   
    149. D(C  15,O  16,C   8,C   7)   -179.9972         0.026859   
    150. D(C  18,C  17,C   5,C   6)    179.9931         0.024769   
    151. D(C  18,C  17,C   5,C   4)     -0.0022         0.024769   
    152. D(H  30,C  17,C   5,C   6)     -0.0186         0.024769   
    153. D(H  30,C  17,C   5,C   4)    179.9861         0.024769   
    154. D(H  31,C  18,C  17,H  30)      0.0044         0.030801   
    155. D(H  31,C  18,C  17,C   5)    179.9928         0.030801   
    156. D(C   2,C  18,C  17,H  30)   -179.9995         0.030801   
    157. D(C   2,C  18,C  17,C   5)     -0.0111         0.030801   
    158. D(H  31,C  18,C   2,C   3)   -179.9860         0.025222   
    159. D(H  31,C  18,C   2,O   1)      0.0037         0.025222   
    160. D(C  17,C  18,C   2,C   3)      0.0178         0.025222   
    161. D(C  17,C  18,C   2,O   1)   -179.9925         0.025222   
    -----------------------------------------------------------------

Number of atoms                         .... 32
Number of degrees of freedom            .... 161

         *************************************************************
         *                GEOMETRY OPTIMIZATION CYCLE   1            *
         *************************************************************
---------------------------------
CARTESIAN COORDINATES (ANGSTROEM)
---------------------------------
  C     -6.701800   -0.398000   -0.419000
  O     -5.841900   -0.016900    0.628000
  C     -4.501400   -0.048300    0.417300
  C     -3.883700   -0.433200   -0.769400
  C     -2.505900   -0.423300   -0.861900
  C     -1.697700   -0.034900    0.209100
  C     -0.262800   -0.046200    0.048300
  C      0.650800    0.297900    0.973100
  C      2.059800    0.258900    0.733700
  N      2.969700    0.584400    1.602800
  C      4.166500    0.402000    0.963900
  C      5.477400    0.586500    1.385700
  C      6.478200    0.305900    0.478200
  C      6.197200   -0.144800   -0.812000
  C      4.899400   -0.335000   -1.251700
  C      3.895900   -0.054900   -0.345200
  O      2.550200   -0.141900   -0.479200
  C     -2.334800    0.349500    1.396500
  C     -3.704400    0.342900    1.498400
  H     -7.711000   -0.293700   -0.023700
  H     -6.536100   -1.438300   -0.716500
  H     -6.586300    0.253500   -1.291000
  H     -4.465300   -0.741200   -1.624200
  H     -2.042100   -0.724900   -1.790300
  H      0.094900   -0.367100   -0.922500
  H      0.387100    0.629100    1.964600
  H      5.689000    0.934800    2.383200
  H      7.509700    0.437300    0.769900
  H      7.015300   -0.350900   -1.485700
  H      4.677900   -0.683300   -2.247800
  H     -1.747000    0.656000    2.246800
  H     -4.196900    0.638300    2.411500

----------------------------
CARTESIAN COORDINATES (A.U.)
----------------------------
  NO LB      ZA    FRAG     MASS         X           Y           Z
   0 C     6.0000    0    12.011  -12.664567   -0.752111   -0.791795
   1 O     8.0000    0    15.999  -11.039591   -0.031936    1.186748
   2 C     6.0000    0    12.011   -8.506413   -0.091274    0.788583
   3 C     6.0000    0    12.011   -7.339129   -0.818629   -1.453955
   4 C     6.0000    0    12.011   -4.735465   -0.799921   -1.628755
   5 C     6.0000    0    12.011   -3.208188   -0.065951    0.395142
   6 C     6.0000    0    12.011   -0.496620   -0.087305    0.091274
   7 C     6.0000    0    12.011    1.229834    0.562949    1.838893
   8 C     6.0000    0    12.011    3.892458    0.489250    1.386492
   9 N     7.0000    0    14.007    5.611920    1.104356    3.028853
  10 C     6.0000    0    12.011    7.873544    0.759670    1.821507
  11 C     6.0000    0    12.011   10.350786    1.108324    2.618594
  12 C     6.0000    0    12.011   12.242024    0.578067    0.903667
  13 C     6.0000    0    12.011   11.711011   -0.273632   -1.534458
  14 C     6.0000    0    12.011    9.258524   -0.633058   -2.365370
  15 C     6.0000    0    12.011    7.362184   -0.103746   -0.652333
  16 O     8.0000    0    15.999    4.819180   -0.268152   -0.905557
  17 C     6.0000    0    12.011   -4.412133    0.660459    2.639003
  18 C     6.0000    0    12.011   -7.000301    0.647987    2.831566
  19 H     1.0000    0     1.008  -14.571678   -0.555013   -0.044787
  20 H     1.0000    0     1.008  -12.351439   -2.717993   -1.353989
  21 H     1.0000    0     1.008  -12.446303    0.479046   -2.439636
  22 H     1.0000    0     1.008   -8.438194   -1.400665   -3.069293
  23 H     1.0000    0     1.008   -3.859010   -1.369862   -3.383177
  24 H     1.0000    0     1.008    0.179335   -0.693718   -1.743272
  25 H     1.0000    0     1.008    0.731513    1.188827    3.712556
  26 H     1.0000    0     1.008   10.750652    1.766516    4.503595
  27 H     1.0000    0     1.008   14.191276    0.826377    1.454900
  28 H     1.0000    0     1.008   13.256996   -0.663105   -2.807566
  29 H     1.0000    0     1.008    8.839950   -1.291250   -4.247726
  30 H     1.0000    0     1.008   -3.301352    1.239660    4.245837
  31 H     1.0000    0     1.008   -7.930992    1.206212    4.557075

--------------------------------
INTERNAL COORDINATES (ANGSTROEM)
--------------------------------
 C      0   0   0     0.000000000000     0.00000000     0.00000000
 O      1   0   0     1.407435334216     0.00000000     0.00000000
 C      2   1   0     1.357321148439   118.79357790     0.00000000
 C      3   2   1     1.392105667685   125.23569369   359.97132475
 C      4   3   2     1.380937036943   119.85628981   180.00015826
 C      5   4   3     1.396811655163   121.86523517     0.00000000
 C      6   5   4     1.443926016110   119.17136182   180.01327238
 C      7   6   5     1.344739681128   126.62337570   179.88933346
 C      8   7   6     1.429725274310   123.18916586   179.99863079
 N      9   8   7     1.299693452319   124.82965071   179.97140592
 C     10   9   8     1.368865665433   105.46269964   179.99724675
 C     11  10   9     1.389393500777   131.72208671   179.99892245
 C     12  11  10     1.379816382712   117.23658114   179.99144898
 C     13  12  11     1.395244612962   121.85648802     0.00000000
 C     14  13  12     1.383400509614   121.82044259     0.00000000
 C     15  14  13     1.381017925300   116.43359770     0.00000000
 O     16  15  14     1.355150725934   130.06402664   180.00543613
 C      6   5   4     1.401277463602   117.57632641     0.00000000
 C     18   6   5     1.373401372506   120.99416382     0.00000000
 H      1   2   3     1.088864188042   105.68005724   180.01706197
 H      1   2   3     1.094617207064   111.53288193    61.38134285
 H      1   2   3     1.094612488509   111.52992086   298.65027676
 H      4   3   2     1.078798220243   121.00895930     0.00000000
 H      5   4   3     1.080740283324   118.92840250   180.00604284
 H      7   6   5     1.083226079819   115.48510029   359.90153921
 H      8   7   6     1.078101748445   123.01835798     0.00000000
 H     12  11  10     1.077540579282   120.61303699     0.00000000
 H     13  12  11     1.079975508982   119.36503483   179.99982167
 H     14  13  12     1.079646474546   119.08299983   180.00425723
 H     15  14  13     1.078234830638   122.05666822   180.01174050
 H     18   6   5     1.078174930148   119.89348554   179.98610963
 H     19  18   6     1.078688564879   121.11777042   179.99279984

---------------------------
INTERNAL COORDINATES (A.U.)
---------------------------
 C      0   0   0     0.000000000000     0.00000000     0.00000000
 O      1   0   0     2.659667332872     0.00000000     0.00000000
 C      2   1   0     2.564965246329   118.79357790     0.00000000
 C      3   2   1     2.630698461404   125.23569369   359.97132475
 C      4   3   2     2.609592808010   119.85628981   180.00015826
 C      5   4   3     2.639591488928   121.86523517     0.00000000
 C      6   5   4     2.728624728092   119.17136182   180.01327238
 C      7   6   5     2.541189718748   126.62337570   179.88933346
 C      8   7   6     2.701789215191   123.18916586   179.99863079
 N      9   8   7     2.456064682933   124.82965071   179.97140592
 C     10   9   8     2.586781221795   105.46269964   179.99724675
 C     11  10   9     2.625573208718   131.72208671   179.99892245
 C     12  11  10     2.607475078423   117.23658114   179.99144898
 C     13  12  11     2.636630208327   121.85648802     0.00000000
 C     14  13  12     2.614248096697   121.82044259     0.00000000
 C     15  14  13     2.609745664853   116.43359770     0.00000000
 O     16  15  14     2.560863742200   130.06402664   180.00543613
 C      6   5   4     2.648030643844   117.57632641     0.00000000
 C     18   6   5     2.595352465987   120.99416382     0.00000000
 H      1   2   3     2.057655112434   105.68005724   180.01706197
 H      1   2   3     2.068526742828   111.53288193    61.38134285
 H      1   2   3     2.068517826052   111.52992086   298.65027676
 H      4   3   2     2.038633190021   121.00895930     0.00000000
 H      5   4   3     2.042303157379   118.92840250   180.00604284
 H      7   6   5     2.047000631979   115.48510029   359.90153921
 H      8   7   6     2.037317049063   123.01835798     0.00000000
 H     12  11  10     2.036256593030   120.61303699     0.00000000
 H     13  12  11     2.040857943317   119.36503483   179.99982167
 H     14  13  12     2.040236158346   119.08299983   180.00425723
 H     15  14  13     2.037568537960   122.05666822   180.01174050
 H     18   6   5     2.037455342440   119.89348554   179.98610963
 H     19  18   6     2.038425971413   121.11777042   179.99279984

---------------------
BASIS SET INFORMATION
---------------------
There are 4 groups of distinct atoms

 Group   1 Type C   : 19s6p3d2f contracted to 5s4p3d2f pattern {88111/3111/111/11}
 Group   2 Type O   : 19s6p3d2f contracted to 5s4p3d2f pattern {88111/3111/111/11}
 Group   3 Type N   : 19s6p3d2f contracted to 5s4p3d2f pattern {88111/3111/111/11}
 Group   4 Type H   : 5s2p1d contracted to 3s2p1d pattern {311/11/1}

Atom   0C    basis set group =>   1
Atom   1O    basis set group =>   2
Atom   2C    basis set group =>   1
Atom   3C    basis set group =>   1
Atom   4C    basis set group =>   1
Atom   5C    basis set group =>   1
Atom   6C    basis set group =>   1
Atom   7C    basis set group =>   1
Atom   8C    basis set group =>   1
Atom   9N    basis set group =>   3
Atom  10C    basis set group =>   1
Atom  11C    basis set group =>   1
Atom  12C    basis set group =>   1
Atom  13C    basis set group =>   1
Atom  14C    basis set group =>   1
Atom  15C    basis set group =>   1
Atom  16O    basis set group =>   2
Atom  17C    basis set group =>   1
Atom  18C    basis set group =>   1
Atom  19H    basis set group =>   4
Atom  20H    basis set group =>   4
Atom  21H    basis set group =>   4
Atom  22H    basis set group =>   4
Atom  23H    basis set group =>   4
Atom  24H    basis set group =>   4
Atom  25H    basis set group =>   4
Atom  26H    basis set group =>   4
Atom  27H    basis set group =>   4
Atom  28H    basis set group =>   4
Atom  29H    basis set group =>   4
Atom  30H    basis set group =>   4
Atom  31H    basis set group =>   4
---------------------------------
AUXILIARY/J BASIS SET INFORMATION
---------------------------------
There are 4 groups of distinct atoms

 Group   1 Type C   : 10s7p5d2f1g contracted to 10s7p5d2f1g pattern {1111111111/1111111/11111/11/1}
 Group   2 Type O   : 10s7p5d2f1g contracted to 10s7p5d2f1g pattern {1111111111/1111111/11111/11/1}
 Group   3 Type N   : 10s7p5d2f1g contracted to 10s7p5d2f1g pattern {1111111111/1111111/11111/11/1}
 Group   4 Type H   : 4s3p2d1f contracted to 4s3p2d1f pattern {1111/111/11/1}

Atom   0C    basis set group =>   1
Atom   1O    basis set group =>   2
Atom   2C    basis set group =>   1
Atom   3C    basis set group =>   1
Atom   4C    basis set group =>   1
Atom   5C    basis set group =>   1
Atom   6C    basis set group =>   1
Atom   7C    basis set group =>   1
Atom   8C    basis set group =>   1
Atom   9N    basis set group =>   3
Atom  10C    basis set group =>   1
Atom  11C    basis set group =>   1
Atom  12C    basis set group =>   1
Atom  13C    basis set group =>   1
Atom  14C    basis set group =>   1
Atom  15C    basis set group =>   1
Atom  16O    basis set group =>   2
Atom  17C    basis set group =>   1
Atom  18C    basis set group =>   1
Atom  19H    basis set group =>   4
Atom  20H    basis set group =>   4
Atom  21H    basis set group =>   4
Atom  22H    basis set group =>   4
Atom  23H    basis set group =>   4
Atom  24H    basis set group =>   4
Atom  25H    basis set group =>   4
Atom  26H    basis set group =>   4
Atom  27H    basis set group =>   4
Atom  28H    basis set group =>   4
Atom  29H    basis set group =>   4
Atom  30H    basis set group =>   4
Atom  31H    basis set group =>   4
---------------------------------
AUXILIARY/C BASIS SET INFORMATION
---------------------------------
There are 4 groups of distinct atoms

 Group   1 Type C   : 9s7p6d4f2g contracted to 9s7p6d4f2g pattern {111111111/1111111/111111/1111/11}
 Group   2 Type O   : 9s7p6d4f2g contracted to 9s7p6d4f2g pattern {111111111/1111111/111111/1111/11}
 Group   3 Type N   : 9s7p6d4f2g contracted to 9s7p6d4f2g pattern {111111111/1111111/111111/1111/11}
 Group   4 Type H   : 4s3p2d1f contracted to 4s3p2d1f pattern {1111/111/11/1}

Atom   0C    basis set group =>   1
Atom   1O    basis set group =>   2
Atom   2C    basis set group =>   1
Atom   3C    basis set group =>   1
Atom   4C    basis set group =>   1
Atom   5C    basis set group =>   1
Atom   6C    basis set group =>   1
Atom   7C    basis set group =>   1
Atom   8C    basis set group =>   1
Atom   9N    basis set group =>   3
Atom  10C    basis set group =>   1
Atom  11C    basis set group =>   1
Atom  12C    basis set group =>   1
Atom  13C    basis set group =>   1
Atom  14C    basis set group =>   1
Atom  15C    basis set group =>   1
Atom  16O    basis set group =>   2
Atom  17C    basis set group =>   1
Atom  18C    basis set group =>   1
Atom  19H    basis set group =>   4
Atom  20H    basis set group =>   4
Atom  21H    basis set group =>   4
Atom  22H    basis set group =>   4
Atom  23H    basis set group =>   4
Atom  24H    basis set group =>   4
Atom  25H    basis set group =>   4
Atom  26H    basis set group =>   4
Atom  27H    basis set group =>   4
Atom  28H    basis set group =>   4
Atom  29H    basis set group =>   4
Atom  30H    basis set group =>   4
Atom  31H    basis set group =>   4


           ************************************************************
           *        Program running with 4 parallel MPI-processes     *
           *              working on a common directory               *
           ************************************************************
------------------------------------------------------------------------------
                           ORCA GTO INTEGRAL CALCULATION
                           -- RI-GTO INTEGRALS CHOSEN --
------------------------------------------------------------------------------
------------------------------------------------------------------------------
                   ___                                                        
                  /   \      - P O W E R E D   B Y -                         
                 /     \                                                     
                 |  |  |   _    _      __       _____    __    __             
                 |  |  |  | |  | |    /  \     |  _  \  |  |  /  |          
                  \  \/   | |  | |   /    \    | | | |  |  | /  /          
                 / \  \   | |__| |  /  /\  \   | |_| |  |  |/  /          
                |  |  |   |  __  | /  /__\  \  |    /   |      \           
                |  |  |   | |  | | |   __   |  |    \   |  |\   \          
                \     /   | |  | | |  |  |  |  | |\  \  |  | \   \       
                 \___/    |_|  |_| |__|  |__|  |_| \__\ |__|  \__/        
                                                                              
                      - O R C A' S   B I G   F R I E N D -                    
                                      &                                       
                       - I N T E G R A L  F E E D E R -                       
                                                                              
 v1 FN, 2020, v2 2021                                                         
------------------------------------------------------------------------------


Reading SHARK input file optpbed3-b2plyp-test-553.SHARKINP.tmp ... ok
----------------------
SHARK INTEGRAL PACKAGE
----------------------

Number of atoms                             ...     32
Number of basis functions                   ...   1170
Number of shells                            ...    458
Maximum angular momentum                    ...      3
Integral batch strategy                     ... SHARK/LIBINT Hybrid
RI-J (if used) integral strategy            ... SPLIT-RIJ (Revised 2003 algorithm where possible)
Printlevel                                  ...      1
Contraction scheme used                     ... PARTIAL GENERAL contraction
Coulomb Range Separation                    ... NOT USED
Exchange Range Separation                   ... NOT USED
Finite Nucleus Model                        ... NOT USED
Auxiliary Coulomb fitting basis             ... AVAILABLE
   # of basis functions in Aux-J            ...   1891
   # of shells in Aux-J                     ...    605
   Maximum angular momentum in Aux-J        ...      4
Auxiliary J/K fitting basis                 ... NOT available
Auxiliary Correlation fitting basis         ... AVAILABLE
   # of basis functions in Aux-C            ...   2404
   # of shells in Aux-C                     ...    662
   Maximum angular momentum in Aux-C        ...      4
Auxiliary 'external' fitting basis          ... NOT available
Integral threshold                          ...     2.500000e-11
Primitive cut-off                           ...     2.500000e-12
Primitive pair pre-selection threshold      ...     2.500000e-12

Calculating pre-screening integrals         ... done (  0.3 sec) Dimension = 458
Calculating pre-screening integrals (ORCA)  ... done (  0.6 sec) Dimension = 344
Organizing shell pair data                  ... done (  0.7 sec)
Shell pair information
Total number of shell pairs                 ...    105111
Shell pairs after pre-screening             ...     62735
Total number of primitive shell pairs       ...    136599
Primitive shell pairs kept                  ...     73632
          la=0 lb=0:  14345 shell pairs
          la=1 lb=0:  16226 shell pairs
          la=1 lb=1:   3965 shell pairs
          la=2 lb=0:  10469 shell pairs
          la=2 lb=1:   5171 shell pairs
          la=2 lb=2:   1751 shell pairs
          la=3 lb=0:   5625 shell pairs
          la=3 lb=1:   2803 shell pairs
          la=3 lb=2:   1860 shell pairs
          la=3 lb=3:    520 shell pairs

Calculating one electron integrals          ... done (  0.2 sec)
Calculating RI/J V-Matrix + Cholesky decomp.... done (  1.8 sec)
Calculating RI/C V-Matrix + Cholesky decomp.... done (  0.5 sec)
Calculating Nuclear repulsion               ... done (  0.0 sec) ENN=   1222.428740498859 Eh

SHARK setup successfully completed in   6.5 seconds

Maximum memory used throughout the entire GTOINT-calculation: 102.7 MB


           ************************************************************
           *        Program running with 4 parallel MPI-processes     *
           *              working on a common directory               *
           ************************************************************
-------------------------------------------------------------------------------
                                 ORCA SCF
-------------------------------------------------------------------------------

------------
SCF SETTINGS
------------
Hamiltonian:
 Density Functional     Method          .... DFT(GTOs)
 Exchange Functional    Exchange        .... PBE
   PBE kappa parameter   XKappa         ....  0.804000
   PBE mue parameter    XMuePBE         ....  0.219520
 Correlation Functional Correlation     .... PBE
   PBE beta parameter  CBetaPBE         ....  0.066725
 LDA part of GGA corr.  LDAOpt          .... PW91-LDA
 Gradients option       PostSCFGGA      .... off
 Hybrid DFT is turned on
   Fraction HF Exchange ScalHFX         ....  0.250000
   Scaling of DF-GGA-X  ScalDFX         ....  0.750000
   Scaling of DF-GGA-C  ScalDFC         ....  1.000000
   Scaling of DF-LDA-C  ScalLDAC        ....  1.000000
   Perturbative correction              ....  0.000000
   Density functional embedding theory  .... OFF
   NL short-range parameter             ....  6.900000
 RI-approximation to the Coulomb term is turned on
   Number of AuxJ basis functions       .... 1891
   RIJ-COSX (HFX calculated with COS-X)).... on


General Settings:
 Integral files         IntName         .... optpbed3-b2plyp-test-553
 Hartree-Fock type      HFTyp           .... RHF
 Total Charge           Charge          ....    0
 Multiplicity           Mult            ....    1
 Number of Electrons    NEL             ....  132
 Basis Dimension        Dim             .... 1056
 Nuclear Repulsion      ENuc            ....   1222.4287404989 Eh

Convergence Acceleration:
 DIIS                   CNVDIIS         .... on
   Start iteration      DIISMaxIt       ....    12
   Startup error        DIISStart       ....  0.200000
   # of expansion vecs  DIISMaxEq       ....     5
   Bias factor          DIISBfac        ....   1.050
   Max. coefficient     DIISMaxC        ....  10.000
 Trust-Rad. Augm. Hess. CNVTRAH         .... auto
   Auto Start mean grad. ratio tolernc. ....  1.125000
   Auto Start start iteration           ....    20
   Auto Start num. interpolation iter.  ....    10
   Max. Number of Micro iterations      ....    16
   Max. Number of Macro iterations      .... Maxiter - #DIIS iter
   Number of Davidson start vectors     ....     2
   Converg. threshold I  (grad. norm)   ....   1.000e-05
   Converg. threshold II (energy diff.) ....   1.000e-08
   Grad. Scal. Fac. for Micro threshold ....   0.100
   Minimum threshold for Micro iter.    ....   0.010
   NR start threshold (gradient norm)   ....   0.001
   Initial trust radius                 ....   0.400
   Minimum AH scaling param. (alpha)    ....   1.000
   Maximum AH scaling param. (alpha)    .... 1000.000
   Orbital update algorithm             .... Taylor
   White noise on init. David. guess    .... on
   Maximum white noise                  ....   0.010
   Quad. conv. algorithm                .... NR
 SOSCF                  CNVSOSCF        .... on
   Start iteration      SOSCFMaxIt      ....   150
   Startup grad/error   SOSCFStart      ....  0.003300
 Level Shifting         CNVShift        .... on
   Level shift para.    LevelShift      ....    0.2500
   Turn off err/grad.   ShiftErr        ....    0.0010
 Zerner damping         CNVZerner       .... off
 Static damping         CNVDamp         .... on
   Fraction old density DampFac         ....    0.7000
   Max. Damping (<1)    DampMax         ....    0.9800
   Min. Damping (>=0)   DampMin         ....    0.0000
   Turn off err/grad.   DampErr         ....    0.1000
 Fernandez-Rico         CNVRico         .... off

SCF Procedure:
 Maximum # iterations   MaxIter         ....   125
 SCF integral mode      SCFMode         .... Direct
   Integral package                     .... SHARK and LIBINT hybrid scheme
 Reset frequency        DirectResetFreq ....    20
 Integral Threshold     Thresh          ....  2.500e-11 Eh
 Primitive CutOff       TCut            ....  2.500e-12 Eh

Convergence Tolerance:
 Convergence Check Mode ConvCheckMode   .... Total+1el-Energy
 Convergence forced     ConvForced      .... 0
 Energy Change          TolE            ....  1.000e-08 Eh
 1-El. energy change                    ....  1.000e-05 Eh
 Orbital Gradient       TolG            ....  1.000e-05
 Orbital Rotation angle TolX            ....  1.000e-05
 DIIS Error             TolErr          ....  5.000e-07


Diagonalization of the overlap matrix:
Smallest eigenvalue                        ... 5.781e-07
Time for diagonalization                   ...    0.291 sec
Threshold for overlap eigenvalues          ... 1.000e-08
Number of eigenvalues below threshold      ... 0
Time for construction of square roots      ...    0.188 sec
Total time needed                          ...    0.485 sec

Time for model grid setup =    1.143 sec

------------------------------
INITIAL GUESS: MODEL POTENTIAL
------------------------------
Loading Hartree-Fock densities                     ... done
Calculating cut-offs                               ... done
Initializing the effective Hamiltonian             ... done
Setting up the integral package (SHARK)            ... done
Starting the Coulomb interaction                   ... done (   2.5 sec)
Reading the grid                                   ... done
Mapping shells                                     ... done
Starting the XC term evaluation                    ... done (   1.8 sec)
  promolecular density results
     # of electrons  =    131.989445445
     EX              =   -108.612921456
     EC              =     -4.435539188
     EX+EC           =   -113.048460644
Transforming the Hamiltonian                       ... done (   0.2 sec)
Diagonalizing the Hamiltonian                      ... done (   0.3 sec)
Back transforming the eigenvectors                 ... done (   0.1 sec)
Now organizing SCF variables                       ... done
                      ------------------
                      INITIAL GUESS DONE (   6.2 sec)
                      ------------------
-------------------
DFT GRID GENERATION
-------------------

General Integration Accuracy     IntAcc      ... 4.388
Radial Grid Type                 RadialGrid  ... OptM3 with GC (2021)
Angular Grid (max. ang.)         AngularGrid ... 4 (Lebedev-302)
Angular grid pruning method      GridPruning ... 4 (adaptive)
Weight generation scheme         WeightScheme... Becke
Basis function cutoff            BFCut       ... 1.0000e-11
Integration weight cutoff        WCut        ... 1.0000e-14
Angular grids for H and He will be reduced by one unit
Partially contracted basis set               ... off
Rotationally invariant grid construction     ... off

Total number of grid points                  ...   160460
Total number of batches                      ...     2523
Average number of points per batch           ...       63
Average number of grid points per atom       ...     5014
Time for grid setup =    2.161 sec

--------------------
COSX GRID GENERATION
--------------------

GRIDX 1
-------
General Integration Accuracy     IntAcc      ... 3.816
Radial Grid Type                 RadialGrid  ... OptM3 with GC (2021)
Angular Grid (max. ang.)         AngularGrid ... 1 (Lebedev-50)
Angular grid pruning method      GridPruning ... 4 (adaptive)
Weight generation scheme         WeightScheme... Becke
Basis function cutoff            BFCut       ... 1.0000e-11
Integration weight cutoff        WCut        ... 1.0000e-14
Angular grids for H and He will be reduced by one unit
Partially contracted basis set               ... on
Rotationally invariant grid construction     ... off

Total number of grid points                  ...    20441
Total number of batches                      ...      335
Average number of points per batch           ...       61
Average number of grid points per atom       ...      639
UseSFitting                                  ... on

GRIDX 2
-------
General Integration Accuracy     IntAcc      ... 4.020
Radial Grid Type                 RadialGrid  ... OptM3 with GC (2021)
Angular Grid (max. ang.)         AngularGrid ... 2 (Lebedev-110)
Angular grid pruning method      GridPruning ... 4 (adaptive)
Weight generation scheme         WeightScheme... Becke
Basis function cutoff            BFCut       ... 1.0000e-11
Integration weight cutoff        WCut        ... 1.0000e-14
Angular grids for H and He will be reduced by one unit
Partially contracted basis set               ... on
Rotationally invariant grid construction     ... off

Total number of grid points                  ...    48948
Total number of batches                      ...      783
Average number of points per batch           ...       62
Average number of grid points per atom       ...     1530
UseSFitting                                  ... on

GRIDX 3
-------
General Integration Accuracy     IntAcc      ... 4.338
Radial Grid Type                 RadialGrid  ... OptM3 with GC (2021)
Angular Grid (max. ang.)         AngularGrid ... 3 (Lebedev-194)
Angular grid pruning method      GridPruning ... 4 (adaptive)
Weight generation scheme         WeightScheme... Becke
Basis function cutoff            BFCut       ... 1.0000e-11
Integration weight cutoff        WCut        ... 1.0000e-14
Angular grids for H and He will be reduced by one unit
Partially contracted basis set               ... on
Rotationally invariant grid construction     ... off

Total number of grid points                  ...   105659
Total number of batches                      ...     1669
Average number of points per batch           ...       63
Average number of grid points per atom       ...     3302
UseSFitting                                  ... on

Time for X-Grid setup             =    6.211 sec


--------------------
CPCM SOLVATION MODEL
--------------------
CPCM parameters:
  Epsilon                                         ...       2.0165
  Refrac                                          ...       1.4266
  Rsolv                                           ...       1.3000
  Surface type                                    ... GAUSSIAN VDW
  Epsilon function type                           ...         CPCM
Solvent:                                     ... CYCLOHEXANE
SMD-CDS solvent descriptors:
  Soln                                       ...    1.4266
  Soln25                                     ...    1.4235
  Sola                                       ...    0.0000
  Solb                                       ...    0.0000
  Solg                                       ...   35.4800
  Solc                                       ...    0.0000
  Solh                                       ...    0.0000
Radii:
 Radius for C  used is    3.4960 Bohr (=   1.8500 Ang.)
 Radius for O  used is    4.3350 Bohr (=   2.2940 Ang.)
 Radius for N  used is    3.5716 Bohr (=   1.8900 Ang.)
 Radius for H  used is    2.2677 Bohr (=   1.2000 Ang.)
Calculating surface                               ...        done! (  0.0s)
GEPOL surface points                              ...         1777
GEPOL Volume                                      ...    1893.0023
GEPOL Surface-area                                ...    1039.4396
Calculating surface distance matrix               ...        done! (  0.0s)
Performing Cholesky decomposition & store         ...        done! (  0.2s)
Overall time for CPCM initialization              ...                 0.3s
 re-compute Schwartz prescreening matrix in partically contracted basis (1) ...done (   0.251 sec)
--------------
SCF ITERATIONS
--------------
ITER       Energy         Delta-E        Max-DP      RMS-DP      [F,P]     Damp
               ***  Starting incremental Fock matrix formation  ***
  0   -821.6733521717   0.000000000000 0.09179832  0.00096916  0.2184217 0.7000
  1   -821.8416254584  -0.168273286701 0.05814348  0.00078012  0.1059986 0.7000
                               ***Turning on DIIS***
  2   -821.9175249918  -0.075899533344 0.15544080  0.00179277  0.0414753 0.0000
  3   -822.0309615437  -0.113436551973 0.04013372  0.00033921  0.0507356 0.0000
  4   -822.0560231526  -0.025061608921 0.00902694  0.00010916  0.0113900 0.0000
  5   -822.0571499240  -0.001126771386 0.00389651  0.00004038  0.0053037 0.0000
                      *** Initiating the SOSCF procedure ***
                           *** Shutting down DIIS ***
                      *** Re-Reading the Fockian *** 
                      *** Removing any level shift *** 
ITER      Energy       Delta-E        Grad      Rot      Max-DP    RMS-DP
  6   -822.05724943  -0.0000995030  0.000474  0.000474  0.002518  0.000025
               *** Restarting incremental Fock matrix formation ***
  7   -822.05726906  -0.0000196356  0.000241  0.001268  0.032586  0.000388
  8   -822.05727089  -0.0000018230  0.000192  0.000566  0.015860  0.000124
  9   -822.05727287  -0.0000019814  0.000066  0.000251  0.013242  0.000127
 10   -822.05727305  -0.0000001850  0.000038  0.000165  0.003961  0.000029
 11   -822.05727319  -0.0000001334  0.000032  0.000139  0.013070  0.000052
 12   -822.05727321  -0.0000000278  0.000007  0.000014  0.001992  0.000022
 13   -822.05727320   0.0000000137  0.000004  0.000021  0.006969  0.000039
 14   -822.05727319   0.0000000127  0.000003  0.000009  0.010649  0.000047
 15   -822.05727317   0.0000000159  0.000003  0.000012  0.007025  0.000025
                  ***Gradient check signals convergence***
              ***Rediagonalizing the Fockian in SOSCF/NRSCF***

               *****************************************************
               *                     SUCCESS                       *
               *           SCF CONVERGED AFTER  16 CYCLES          *
               *****************************************************

Old exchange energy                            =    -27.681768153 Eh
New exchange energy                            =    -27.681827487 Eh
Exchange energy change after final integration =     -0.000059334 Eh
Total energy after final integration           =   -822.057332535 Eh
Final COS-X integration done in                =   118.886 sec

SMD CDS free energy correction energy :                -6.06340     Kcal/mol
Total Energy after SMD CDS correction =              -822.066995171 Eh

----------------
TOTAL SCF ENERGY
----------------

Total Energy       :         -822.06699517 Eh          -22369.58019 eV

Components:
Nuclear Repulsion  :         1222.42874050 Eh           33263.97714 eV
Electronic Energy  :        -2044.49573567 Eh          -55633.55732 eV
One Electron Energy:        -3541.26420015 Eh          -96362.69787 eV
Two Electron Energy:         1496.76846448 Eh           40729.14055 eV
Max COSX asymmetry :            0.00004103 Eh               0.00112 eV
CPCM Dielectric    :           -0.00913235 Eh              -0.24850 eV
SMD CDS (Gcds)     :           -0.00966264 Eh              -0.26293 eV

Virial components:
Potential Energy   :        -1639.50458486 Eh          -44613.18784 eV
Kinetic Energy     :          817.43758969 Eh           22243.60766 eV
Virial Ratio       :            2.00566331


DFT components:
N(Alpha)           :       66.000010471328 electrons
N(Beta)            :       66.000010471328 electrons
N(Total)           :      132.000020942655 electrons
E(X)               :      -82.854843782045 Eh       
E(C)               :       -4.437415690590 Eh       
E(XC)              :      -87.292259472635 Eh       
DFET-embed. en.    :        0.000000000000 Eh       
CPCM Solvation Model Properties:
Surface-charge          :           -0.05466043
Charge-correction       :            0.00012581 Eh               0.00342 eV
Free-energy (cav+disp)  :           -0.00966264 Eh              -0.26293 eV

---------------
SCF CONVERGENCE
---------------

  Last Energy change         ...   -3.0649e-08  Tolerance :   1.0000e-08
  Last MAX-Density change    ...    3.9968e-15  Tolerance :   1.0000e-07
  Last RMS-Density change    ...    1.4560e-17  Tolerance :   5.0000e-09
  Last Orbital Gradient      ...    1.4912e-06  Tolerance :   1.0000e-05
  Last Orbital Rotation      ...    2.3827e-05  Tolerance :   1.0000e-05

             **** THE GBW FILE WAS UPDATED (optpbed3-b2plyp-test-553.gbw) ****
             **** DENSITY optpbed3-b2plyp-test-553.scfp WAS UPDATED ****
             **** ENERGY FILE WAS UPDATED (optpbed3-b2plyp-test-553.en.tmp) ****
             **** THE GBW FILE WAS UPDATED (optpbed3-b2plyp-test-553.gbw) ****
             **** DENSITY optpbed3-b2plyp-test-553.scfp WAS UPDATED ****
----------------
ORBITAL ENERGIES
----------------

  NO   OCC          E(Eh)            E(eV) 
   0   2.0000     -19.288716      -524.8726 
   1   2.0000     -19.253610      -523.9174 
   2   2.0000     -14.383144      -391.3852 
   3   2.0000     -10.324197      -280.9357 
   4   2.0000     -10.299716      -280.2695 
   5   2.0000     -10.288882      -279.9747 
   6   2.0000     -10.275921      -279.6220 
   7   2.0000     -10.257481      -279.1203 
   8   2.0000     -10.246765      -278.8287 
   9   2.0000     -10.241432      -278.6835 
  10   2.0000     -10.239379      -278.6277 
  11   2.0000     -10.238125      -278.5935 
  12   2.0000     -10.237804      -278.5848 
  13   2.0000     -10.236185      -278.5407 
  14   2.0000     -10.233875      -278.4779 
  15   2.0000     -10.231922      -278.4248 
  16   2.0000     -10.230925      -278.3976 
  17   2.0000     -10.230009      -278.3727 
  18   2.0000     -10.227387      -278.3013 
  19   2.0000      -1.168947       -31.8087 
  20   2.0000      -1.110925       -30.2298 
  21   2.0000      -0.960770       -26.1439 
  22   2.0000      -0.900465       -24.5029 
  23   2.0000      -0.887284       -24.1442 
  24   2.0000      -0.841617       -22.9016 
  25   2.0000      -0.797817       -21.7097 
  26   2.0000      -0.785438       -21.3729 
  27   2.0000      -0.779370       -21.2077 
  28   2.0000      -0.757130       -20.6026 
  29   2.0000      -0.726547       -19.7704 
  30   2.0000      -0.672208       -18.2917 
  31   2.0000      -0.651679       -17.7331 
  32   2.0000      -0.642386       -17.4802 
  33   2.0000      -0.627335       -17.0707 
  34   2.0000      -0.615267       -16.7423 
  35   2.0000      -0.586019       -15.9464 
  36   2.0000      -0.561726       -15.2854 
  37   2.0000      -0.537652       -14.6302 
  38   2.0000      -0.536060       -14.5869 
  39   2.0000      -0.517889       -14.0925 
  40   2.0000      -0.504027       -13.7153 
  41   2.0000      -0.497942       -13.5497 
  42   2.0000      -0.493109       -13.4182 
  43   2.0000      -0.487510       -13.2658 
  44   2.0000      -0.469201       -12.7676 
  45   2.0000      -0.459417       -12.5014 
  46   2.0000      -0.449542       -12.2327 
  47   2.0000      -0.443272       -12.0620 
  48   2.0000      -0.431387       -11.7386 
  49   2.0000      -0.425615       -11.5816 
  50   2.0000      -0.413613       -11.2550 
  51   2.0000      -0.410933       -11.1821 
  52   2.0000      -0.385613       -10.4931 
  53   2.0000      -0.382636       -10.4121 
  54   2.0000      -0.381773       -10.3886 
  55   2.0000      -0.373855       -10.1731 
  56   2.0000      -0.367615       -10.0033 
  57   2.0000      -0.365021        -9.9327 
  58   2.0000      -0.353495        -9.6191 
  59   2.0000      -0.345362        -9.3978 
  60   2.0000      -0.311382        -8.4731 
  61   2.0000      -0.306390        -8.3373 
  62   2.0000      -0.280129        -7.6227 
  63   2.0000      -0.261937        -7.1277 
  64   2.0000      -0.258991        -7.0475 
  65   2.0000      -0.216672        -5.8959 
  66   0.0000      -0.068998        -1.8775 
  67   0.0000      -0.017575        -0.4782 
  68   0.0000      -0.006789        -0.1847 
  69   0.0000       0.003261         0.0887 
  70   0.0000       0.005217         0.1420 
  71   0.0000       0.009537         0.2595 
  72   0.0000       0.016039         0.4365 
  73   0.0000       0.017231         0.4689 
  74   0.0000       0.026177         0.7123 
  75   0.0000       0.026612         0.7241 
  76   0.0000       0.030580         0.8321 
  77   0.0000       0.033811         0.9200 
  78   0.0000       0.040632         1.1057 
  79   0.0000       0.042282         1.1505 
  80   0.0000       0.046050         1.2531 
  81   0.0000       0.048612         1.3228 
  82   0.0000       0.051541         1.4025 
  83   0.0000       0.056535         1.5384 
  84   0.0000       0.058494         1.5917 
  85   0.0000       0.060106         1.6356 
  86   0.0000       0.066198         1.8013 
  87   0.0000       0.075472         2.0537 
  88   0.0000       0.075620         2.0577 
  89   0.0000       0.076373         2.0782 
  90   0.0000       0.078939         2.1480 
  91   0.0000       0.085000         2.3130 
  92   0.0000       0.090751         2.4694 
  93   0.0000       0.098470         2.6795 
  94   0.0000       0.098959         2.6928 
  95   0.0000       0.102116         2.7787 
  96   0.0000       0.103020         2.8033 
  97   0.0000       0.106335         2.8935 
  98   0.0000       0.107145         2.9156 
  99   0.0000       0.113985         3.1017 
 100   0.0000       0.114408         3.1132 
 101   0.0000       0.115922         3.1544 
 102   0.0000       0.119364         3.2481 
 103   0.0000       0.119472         3.2510 
 104   0.0000       0.127165         3.4603 
 105   0.0000       0.128263         3.4902 
 106   0.0000       0.128832         3.5057 
 107   0.0000       0.131327         3.5736 
 108   0.0000       0.134189         3.6515 
 109   0.0000       0.141417         3.8482 
 110   0.0000       0.143990         3.9182 
 111   0.0000       0.145767         3.9665 
 112   0.0000       0.146589         3.9889 
 113   0.0000       0.147856         4.0234 
 114   0.0000       0.149252         4.0613 
 115   0.0000       0.152555         4.1512 
 116   0.0000       0.153899         4.1878 
 117   0.0000       0.154607         4.2071 
 118   0.0000       0.156755         4.2655 
 119   0.0000       0.161236         4.3875 
 120   0.0000       0.163582         4.4513 
 121   0.0000       0.167897         4.5687 
 122   0.0000       0.169805         4.6206 
 123   0.0000       0.174558         4.7500 
 124   0.0000       0.176476         4.8022 
 125   0.0000       0.180089         4.9005 
 126   0.0000       0.181843         4.9482 
 127   0.0000       0.182643         4.9700 
 128   0.0000       0.186787         5.0827 
 129   0.0000       0.189310         5.1514 
 130   0.0000       0.191073         5.1993 
 131   0.0000       0.192059         5.2262 
 132   0.0000       0.193313         5.2603 
 133   0.0000       0.196297         5.3415 
 134   0.0000       0.202797         5.5184 
 135   0.0000       0.204633         5.5683 
 136   0.0000       0.206446         5.6177 
 137   0.0000       0.209235         5.6936 
 138   0.0000       0.212039         5.7699 
 139   0.0000       0.214959         5.8493 
 140   0.0000       0.216244         5.8843 
 141   0.0000       0.222934         6.0663 
 142   0.0000       0.223441         6.0801 
 143   0.0000       0.224703         6.1145 
 144   0.0000       0.226573         6.1654 
 145   0.0000       0.229735         6.2514 
 146   0.0000       0.229768         6.2523 
 147   0.0000       0.233949         6.3661 
 148   0.0000       0.234989         6.3944 
 149   0.0000       0.241390         6.5685 
[...]
   Final sigma-completion         ...     0.01 sec
   Done building sigma-vectors             Size of expansion space: 50
   Lowest Energy          :     0.143571624405
   Maximum Energy change  :     0.000011749258 (vector 9)
   Maximum residual norm  :     0.000002880798

                       ****Iteration    9****
              <<< Entering MO-section for Build Sigma(Double) >>>
   Forming the XC and CPCM contribution:
   Time for densities:            0.225
   Time for XC-Integration:      15.874
   Time for LR-CPCM terms:        9.739
   Time for Sigma-Completion:     0.197
   Time for building 10 sigma-vectors
   Data Preparation Phase         ...     0.01 sec
   Transformed RI Coulomb         ...     0.59 sec
   Transformed RI-exchange        ...   247.19 sec
   (ab|v) reading and digestion   ...   233.73 sec
   Final sigma-completion         ...     0.01 sec
   Done building sigma-vectors             Size of expansion space: 60
   Lowest Energy          :     0.143571624372
   Maximum Energy change  :     0.000014526656 (vector 9)
   Maximum residual norm  :     0.000005956862

                       ****Iteration   10****
              <<< Entering MO-section for Build Sigma(Double) >>>
   Forming the XC and CPCM contribution:
   Time for densities:            0.230
   Time for XC-Integration:      15.957
   Time for LR-CPCM terms:        9.709
   Time for Sigma-Completion:     0.178
   Time for building 10 sigma-vectors
   Data Preparation Phase         ...     0.01 sec
   Transformed RI Coulomb         ...     0.60 sec
   Transformed RI-exchange        ...   243.01 sec
   (ab|v) reading and digestion   ...   229.71 sec
   Final sigma-completion         ...     0.01 sec
   Done building sigma-vectors             Size of expansion space: 70
   Lowest Energy          :     0.143571624370
   Maximum Energy change  :     0.000026446084 (vector 9)
   Maximum residual norm  :     0.000005996450
   Rebuilding the expansion space

                       ****Iteration   11****
              <<< Entering MO-section for Build Sigma(Double) >>>
   Forming the XC and CPCM contribution:
   Time for densities:            0.446
   Time for XC-Integration:      30.254
   Time for LR-CPCM terms:       15.449
   Time for Sigma-Completion:     0.364
   Time for building 20 sigma-vectors
   Data Preparation Phase         ...     0.01 sec
   Transformed RI Coulomb         ...     0.97 sec
   Transformed RI-exchange        ...   599.51 sec
   (ab|v) reading and digestion   ...   574.90 sec
   Final sigma-completion         ...     0.02 sec
   Done building sigma-vectors             Size of expansion space: 20
   Lowest Energy          :     0.143571624370
   Maximum Energy change  :     0.000009237129 (vector 9)
   Maximum residual norm  :     0.000001599506

                       ****Iteration   12****
              <<< Entering MO-section for Build Sigma(Double) >>>
   Forming the XC and CPCM contribution:
   Time for densities:            0.226
   Time for XC-Integration:      16.582
   Time for LR-CPCM terms:        9.860
   Time for Sigma-Completion:     0.177
   Time for building 10 sigma-vectors
   Data Preparation Phase         ...     0.01 sec
   Transformed RI Coulomb         ...     0.60 sec
   Transformed RI-exchange        ...   242.77 sec
   (ab|v) reading and digestion   ...   230.82 sec
   Final sigma-completion         ...     0.01 sec
   Done building sigma-vectors             Size of expansion space: 30
   Lowest Energy          :     0.143571624370
   Maximum Energy change  :     0.000003098212 (vector 9)
   Maximum residual norm  :     0.000000459773

      *** CONVERGENCE OF RESIDUAL NORM REACHED ***

Storing the converged CI vectors               ... optpbed3-b2plyp-test-553_job2.cis1

                 *** DAVIDSON DONE ***

Total time for solving the CIS problem:  4206.053sec

------------------
DOUBLES CORRECTION (Double precision version)
------------------

The (D) correction will be scaled by  0.2700
Doing v(i,a)*T(i,a) terms (RI)                    ... ok
Doing u(i,j,a,b) terms for state   0              ... ok
Doing u(i,j,a,b) terms for state   1              ... ok
Doing u(i,j,a,b) terms for state   2              ... ok
Doing u(i,j,a,b) terms for state   3              ... ok
Doing u(i,j,a,b) terms for state   4              ... ok
Doing u(i,j,a,b) terms for state   5              ... ok
Doing u(i,j,a,b) terms for state   6              ... ok
Doing u(i,j,a,b) terms for state   7              ... ok
Doing u(i,j,a,b) terms for state   8              ... ok
Doing u(i,j,a,b) terms for state   9              ... ok

Contributions to the (D) correction(s) (in eV)

STATE  Final   Init.   Total   v(ext)   v(int)  v(3)    u
       omega   omega     (D)                             
-----------------------------------------------------------------------------
   0   3.650   3.907  -0.257   0.627   1.012  -0.055  -1.841
   1   4.494   4.962  -0.469   0.499   0.963  -0.034  -1.897
   2   4.653   5.188  -0.535   0.580   0.949  -0.036  -2.028
   3   4.855   5.354  -0.499   0.610   0.946  -0.065  -1.990
   4   5.202   5.380  -0.177   0.039   1.011  -0.001  -1.226
   5   5.416   5.593  -0.177   0.033   1.012  -0.001  -1.221
   6   5.124   5.715  -0.591   0.504   0.985  -0.034  -2.046
   7   5.560   5.744  -0.185   0.039   1.013  -0.001  -1.235
   8   5.705   5.896  -0.190   0.034   1.007  -0.001  -1.230
   9   5.376   5.917  -0.541   0.489   0.923  -0.067  -1.886

(D)-timings
 V(i,a)*T(i,a) terms           ...   687.312 sec
 U(i,j,a,b) 3-internal         ...    10.308 sec
 U(i,j,a,b) 3-external         ...   259.406 sec
 U(i,j,a,b) pair terms         ...   359.560 sec
 Total measured time           ...  3031.083 sec

 Time for (ab|v) I/O           ...    87.132 sec


------------------------------------
TD-DFT/TDA EXCITED STATES (SINGLETS)
------------------------------------

the weight of the individual excitations are printed if larger than 1.0e-02

STATE  1:  E=   0.134135 au      3.650 eV    29439.2 cm**-1 <S**2> =   0.000000
    65a ->  66a  :     0.949942 (c=  0.97464964)

STATE  2:  E=   0.165134 au      4.494 eV    36242.7 cm**-1 <S**2> =   0.000000
    62a ->  66a  :     0.217095 (c=  0.46593460)
    62a ->  73a  :     0.022099 (c=  0.14865895)
    63a ->  66a  :     0.013436 (c= -0.11591174)
    64a ->  66a  :     0.016849 (c=  0.12980480)
    64a ->  70a  :     0.069681 (c= -0.26397180)
    65a ->  69a  :     0.071448 (c= -0.26729819)
    65a ->  70a  :     0.500862 (c= -0.70771622)

STATE  3:  E=   0.170977 au      4.653 eV    37525.1 cm**-1 <S**2> =   0.000000
    62a ->  66a  :     0.016395 (c= -0.12804301)
    63a ->  66a  :     0.534884 (c= -0.73135792)
    63a ->  73a  :     0.044717 (c=  0.21146291)
    63a ->  77a  :     0.024752 (c= -0.15732679)
    64a ->  73a  :     0.011139 (c= -0.10554298)
    64a ->  75a  :     0.014227 (c= -0.11927539)
    64a ->  77a  :     0.027508 (c= -0.16585393)
    64a ->  79a  :     0.035852 (c=  0.18934728)
    65a ->  73a  :     0.151145 (c=  0.38877406)
    65a ->  75a  :     0.022480 (c=  0.14993381)
    65a ->  77a  :     0.011308 (c=  0.10633761)
    65a ->  79a  :     0.041296 (c= -0.20321496)

STATE  4:  E=   0.178431 au      4.855 eV    39161.0 cm**-1 <S**2> =   0.000000
    62a ->  66a  :     0.017547 (c=  0.13246544)
    62a ->  70a  :     0.020030 (c= -0.14152820)
    63a ->  73a  :     0.016381 (c=  0.12798885)
    64a ->  66a  :     0.833684 (c= -0.91306311)
    65a ->  75a  :     0.011359 (c=  0.10657963)
    65a ->  77a  :     0.020209 (c=  0.14215702)

STATE  5:  E=   0.191187 au      5.202 eV    41960.7 cm**-1 <S**2> =   0.000000
    64a ->  67a  :     0.026451 (c=  0.16263636)
    65a ->  67a  :     0.385600 (c=  0.62096684)
    65a ->  68a  :     0.241810 (c= -0.49174185)
    65a ->  69a  :     0.186950 (c=  0.43237733)
    65a ->  70a  :     0.025535 (c= -0.15979827)
    65a ->  71a  :     0.024827 (c= -0.15756464)
    65a ->  78a  :     0.046039 (c=  0.21456596)

STATE  6:  E=   0.199023 au      5.416 eV    43680.4 cm**-1 <S**2> =   0.000000
    64a ->  67a  :     0.023556 (c=  0.15347836)
    64a ->  68a  :     0.036475 (c= -0.19098376)
    65a ->  67a  :     0.289549 (c=  0.53809760)
    65a ->  68a  :     0.449205 (c=  0.67022749)
    65a ->  74a  :     0.101728 (c=  0.31894816)
    65a ->  80a  :     0.010734 (c= -0.10360309)
    65a ->  81a  :     0.011812 (c= -0.10868375)

STATE  7:  E=   0.188312 au      5.124 eV    41329.6 cm**-1 <S**2> =   0.000000
    62a ->  66a  :     0.037866 (c= -0.19459066)
    63a ->  66a  :     0.220591 (c=  0.46967139)
    63a ->  77a  :     0.010795 (c= -0.10389878)
    63a ->  79a  :     0.012264 (c=  0.11074189)
    64a ->  66a  :     0.027005 (c= -0.16433319)
    64a ->  73a  :     0.040946 (c= -0.20235004)
    64a ->  75a  :     0.013107 (c= -0.11448544)
    65a ->  70a  :     0.077706 (c= -0.27875827)
    65a ->  73a  :     0.457829 (c=  0.67663051)
    65a ->  77a  :     0.025087 (c= -0.15838813)

STATE  8:  E=   0.204312 au      5.560 eV    44841.2 cm**-1 <S**2> =   0.000000
    65a ->  67a  :     0.061814 (c=  0.24862346)
    65a ->  68a  :     0.080210 (c= -0.28321359)
    65a ->  69a  :     0.476588 (c= -0.69035386)
    65a ->  70a  :     0.055584 (c=  0.23576192)
    65a ->  71a  :     0.190898 (c= -0.43691851)
    65a ->  72a  :     0.010079 (c=  0.10039235)
    65a ->  74a  :     0.023029 (c=  0.15175391)
    65a ->  76a  :     0.023776 (c=  0.15419519)
    65a ->  78a  :     0.011556 (c= -0.10749755)

STATE  9:  E=   0.209666 au      5.705 eV    46016.5 cm**-1 <S**2> =   0.000000
    64a ->  67a  :     0.025168 (c= -0.15864329)
    64a ->  68a  :     0.062381 (c= -0.24976274)
    65a ->  67a  :     0.048844 (c= -0.22100789)
    65a ->  68a  :     0.038293 (c=  0.19568588)
    65a ->  69a  :     0.062591 (c=  0.25018114)
    65a ->  71a  :     0.616139 (c= -0.78494493)
    65a ->  72a  :     0.010525 (c= -0.10259052)
    65a ->  74a  :     0.029560 (c= -0.17193106)
    65a ->  80a  :     0.021850 (c=  0.14781584)

STATE 10:  E=   0.197562 au      5.376 eV    43359.9 cm**-1 <S**2> =   0.000000
    62a ->  66a  :     0.549504 (c=  0.74128528)
    62a ->  73a  :     0.017213 (c=  0.13119961)
    65a ->  69a  :     0.021149 (c=  0.14542649)
    65a ->  70a  :     0.192177 (c=  0.43838041)
    65a ->  73a  :     0.108012 (c=  0.32865133)
    65a ->  75a  :     0.042508 (c= -0.20617372)


-----------------------------
TD-DFT/TDA-EXCITATION SPECTRA
-----------------------------

Center of mass = (  0.5959,  0.1011,  0.5328)
Calculating the Dipole integrals                  ... done
Transforming integrals                            ... done
Calculating the Linear Momentum integrals         ... done
Transforming integrals                            ... done
Calculating angular momentum integrals            ... done
Transforming integrals                            ... done

-----------------------------------------------------------------------------
         ABSORPTION SPECTRUM VIA TRANSITION ELECTRIC DIPOLE MOMENTS
-----------------------------------------------------------------------------
State   Energy    Wavelength  fosc         T2        TX        TY        TZ  
        (cm-1)      (nm)                 (au**2)    (au)      (au)      (au) 
-----------------------------------------------------------------------------
   1   29439.2    339.7   1.724257692  19.28202   4.38184   0.19230   0.21090
   2   36242.7    275.9   0.029333236   0.26645  -0.39901  -0.12295  -0.30353
   3   37525.1    266.5   0.032739176   0.28722   0.27078   0.14889   0.43787
   4   39161.0    255.4   0.006078946   0.05110   0.21613  -0.02346  -0.06198
   5   41960.7    238.3   0.005714754   0.04484   0.00470  -0.19990   0.06966
   6   43680.4    228.9   0.004604120   0.03470  -0.00891  -0.17788   0.05458
   7   41329.6    242.0   0.072891397   0.58062  -0.49169  -0.19697  -0.54778
   8   44841.2    223.0   0.001207022   0.00886  -0.02836   0.05705  -0.06930
   9   46016.5    217.3   0.001365268   0.00977   0.01227  -0.09559   0.02188
  10   43359.9    230.6   0.177855593   1.35038   0.33717   0.39190   1.04072

-----------------------------------------------------------------------------
         ABSORPTION SPECTRUM VIA TRANSITION VELOCITY DIPOLE MOMENTS
-----------------------------------------------------------------------------
State   Energy    Wavelength   fosc        P2         PX        PY        PZ  
        (cm-1)      (nm)                 (au**2)     (au)      (au)      (au) 
-----------------------------------------------------------------------------
   1   29439.2    339.7   1.226107815   0.24670  -0.49647  -0.01351   0.00525
   2   36242.7    275.9   0.015417899   0.00382   0.06104  -0.00146  -0.00952
   3   37525.1    266.5   0.006660731   0.00171  -0.04056  -0.00387  -0.00694
   4   39161.0    255.4   0.006520074   0.00175   0.00363   0.01413   0.03914
   5   41960.7    238.3   0.002880053   0.00083  -0.00071   0.02714  -0.00942
   6   43680.4    228.9   0.003766010   0.00112   0.00126   0.03174  -0.01073
   7   41329.6    242.0   0.012466159   0.00352   0.05564   0.00781   0.01909
   8   44841.2    223.0   0.000407705   0.00012   0.00268  -0.00982   0.00463
   9   46016.5    217.3   0.001450144   0.00046  -0.00322   0.02039  -0.00546
  10   43359.9    230.6   0.024654585   0.00731  -0.05104  -0.02460  -0.06400

-------------------------------------------------------------------
                             CD SPECTRUM
-------------------------------------------------------------------
State  Energy     Wavelength     R         MX        MY        MZ   
       (cm-1)       (nm)     (1e40*cgs)   (au)      (au)      (au)  
-------------------------------------------------------------------
   1   29439.2    339.7     -5.62746  -0.01369   0.39746  -0.13451
   2   36242.7    275.9      0.59516  -0.00209   0.00517  -0.00350
   3   37525.1    266.5     -0.40872  -0.00160   0.02127  -0.00823
   4   39161.0    255.4     -0.82806  -0.00333   0.18938  -0.05498
   5   41960.7    238.3     -0.29569   0.00719   0.04907   0.13132
   6   43680.4    228.9      0.18558  -0.07721   0.00363   0.00643
   7   41329.6    242.0     -1.98528   0.00024   0.03181  -0.00397
   8   44841.2    223.0     -2.86681   0.01732   0.03273   0.10760
   9   46016.5    217.3      0.75048  -0.04575  -0.11722  -0.41366
  10   43359.9    230.6      5.79206  -0.01286   0.49491  -0.17039

-------------------------------------------------------------------
         CD SPECTRUM VIA TRANSITION VELOCITY DIPOLE MOMENTS        
-------------------------------------------------------------------
State  Energy     Wavelength     R         MX        MY        MZ   
       (cm-1)       (nm)     (1e40*cgs)   (au)      (au)      (au)  
-------------------------------------------------------------------
   1   29439.2    339.7      2.53378  -0.01369   0.39746  -0.13451
   2   36242.7    275.9     -0.29113  -0.00209   0.00517  -0.00350
   3   37525.1    266.5      0.10872  -0.00160   0.02127  -0.00823
   4   39161.0    255.4      1.35378  -0.00333   0.18938  -0.05498
   5   41960.7    238.3      0.22212   0.00719   0.04907   0.13132
   6   43680.4    228.9     -0.12180  -0.07721   0.00363   0.00643
   7   41329.6    242.0      0.46593   0.00024   0.03181  -0.00397
   8   44841.2    223.0      0.51487   0.01732   0.03273   0.10760
   9   46016.5    217.3      0.03701  -0.04575  -0.11722  -0.41366
  10   43359.9    230.6     -1.46483  -0.01286   0.49491  -0.17039

Total run time:     7244.340 sec

           *** ORCA-CIS/TD-DFT FINISHED WITHOUT ERROR ***

Maximum memory used throughout the entire CIS-calculation: 1198.7 MB

-----------------------
CIS/TD-DFT TOTAL ENERGY
-----------------------

    E(SCF)  =   -821.304844460 Eh
    DE(CIS) =      0.134134639 Eh (Root  1)
    ----------------------------- ---------
    E(tot)  =   -821.170709821 Eh



-------------------------------------------------------------------------------
                          DFT DISPERSION CORRECTION                            
                                                                               
                              DFTD3 V3.1  Rev 1                                
                          USING Becke-Johnson damping                          
-------------------------------------------------------------------------------
The B2PLYP functional is recognized
Active option DFTDOPT                   ...         4   

molecular C6(AA) [au] = 12502.931342 


            DFT-D V3
 parameters
 s6 scaling factor         :     0.6400 
 a1 scaling factor         :     0.3065 
 s8 scaling factor         :     0.9147 
 a2 scaling factor         :     5.0570 
 ad hoc parameters k1-k3   :    16.0000     1.3333    -4.0000 

 Edisp/kcal,au: -18.568595645611  -0.029590937559 
 E6   /kcal   : -10.384048104 
 E8   /kcal   :  -8.184547542 
 % E8         :  44.077364267 

-------------------------   ----------------
Dispersion correction           -0.029590938
-------------------------   ----------------


-------------------------   --------------------
FINAL SINGLE POINT ENERGY      -821.200300758767
-------------------------   --------------------


                            ***************************************
                            *     ORCA property calculations      *
                            ***************************************


  WARNING: The energy has been calculated at the MP2 level but the densities
           used in the property calculations are still SCF densities
           MP2 response densities have not been calculated 
           use %mp2 Density relaxed end
           or  %mp2 Density unrelaxed end

                                    ---------------------
                                    Active property flags
                                    ---------------------
   (+) Dipole Moment


------------------------------------------------------------------------------
                       ORCA ELECTRIC PROPERTIES CALCULATION
------------------------------------------------------------------------------

Dipole Moment Calculation                       ... on
Quadrupole Moment Calculation                   ... off
Polarizability Calculation                      ... off
GBWName                                         ... optpbed3-b2plyp-test-553_job2.gbw
Electron density                                ... optpbed3-b2plyp-test-553_job2.scfp
The origin for moment calculation is the CENTER OF MASS  = ( 0.595864,  0.101088  0.532793)

-------------
DIPOLE MOMENT
-------------
                                X             Y             Z
Electronic contribution:      9.91731       1.30020       2.75553
Nuclear contribution   :    -11.26138      -1.74129      -3.94303
                        -----------------------------------------
Total Dipole Moment    :     -1.34406      -0.44110      -1.18751
                        -----------------------------------------
Magnitude (a.u.)       :      1.84696
Magnitude (Debye)      :      4.69459



--------------------
Rotational spectrum 
--------------------
 
Rotational constants in cm-1:     0.067201     0.003787     0.003587 
Rotational constants in MHz :  2014.629394   113.524152   107.548306 

 Dipole components along the rotational axes: 
x,y,z [a.u.] :    -1.355965     1.254033    -0.002246 
x,y,z [Debye]:    -3.446589     3.187498    -0.005708 

 

Timings for individual modules:

Sum of individual times         ...     8945.428 sec (= 149.090 min)
GTO integral calculation        ...        5.031 sec (=   0.084 min)   0.1 %
SCF iterations                  ...      819.383 sec (=  13.656 min)   9.2 %
MP2 module                      ...      867.183 sec (=  14.453 min)   9.7 %
CIS module                      ...     7253.831 sec (= 120.897 min)  81.1 %



                             ****ORCA TERMINATED NORMALLY****
TOTAL RUN TIME: 0 days 4 hours 10 minutes 48 seconds 553 msec
