
                                 *****************
                                 * O   R   C   A *
                                 *****************

                                            #,                                       
                                            ###                                      
                                            ####                                     
                                            #####                                    
                                            ######                                   
                                           ########,                                 
                                     ,,################,,,,,                         
                               ,,#################################,,                 
                          ,,##########################################,,             
                       ,#########################################, ''#####,          
                    ,#############################################,,   '####,        
                  ,##################################################,,,,####,       
                ,###########''''           ''''###############################       
              ,#####''   ,,,,##########,,,,          '''####'''          '####       
            ,##' ,,,,###########################,,,                        '##       
           ' ,,###''''                  '''############,,,                           
         ,,##''                                '''############,,,,        ,,,,,,###''
      ,#''                                            '''#######################'''  
     '                                                          ''''####''''         
             ,#######,   #######,   ,#######,      ##                                
            ,#'     '#,  ##    ##  ,#'     '#,    #''#        ######   ,####,        
            ##       ##  ##   ,#'  ##            #'  '#       #        #'  '#        
            ##       ##  #######   ##           ,######,      #####,   #    #        
            '#,     ,#'  ##    ##  '#,     ,#' ,#      #,         ##   #,  ,#        
             '#######'   ##     ##  '#######'  #'      '#     #####' # '####'        



                  #######################################################
                  #                        -***-                        #
                  #          Department of theory and spectroscopy      #
                  #    Directorship and core code : Frank Neese         #
                  #        Max Planck Institute fuer Kohlenforschung    #
                  #                Kaiser Wilhelm Platz 1               #
                  #                 D-45470 Muelheim/Ruhr               #
                  #                      Germany                        #
                  #                                                     #
                  #                  All rights reserved                #
                  #                        -***-                        #
                  #######################################################


                         Program Version 5.0.2 -  RELEASE  -


 With contributions from (in alphabetic order):
   Daniel Aravena         : Magnetic Suceptibility
   Michael Atanasov       : Ab Initio Ligand Field Theory (pilot matlab implementation)
   Alexander A. Auer      : GIAO ZORA, VPT2 properties, NMR spectrum
   Ute Becker             : Parallelization
   Giovanni Bistoni       : ED, misc. LED, open-shell LED, HFLD
   Martin Brehm           : Molecular dynamics
   Dmytro Bykov           : SCF Hessian
   Vijay G. Chilkuri      : MRCI spin determinant printing, contributions to CSF-ICE
   Dipayan Datta          : RHF DLPNO-CCSD density
   Achintya Kumar Dutta   : EOM-CC, STEOM-CC
   Dmitry Ganyushin       : Spin-Orbit,Spin-Spin,Magnetic field MRCI
   Miquel Garcia          : C-PCM and meta-GGA Hessian, CC/C-PCM, Gaussian charge scheme
   Yang Guo               : DLPNO-NEVPT2, F12-NEVPT2, CIM, IAO-localization
   Andreas Hansen         : Spin unrestricted coupled pair/coupled cluster methods
   Benjamin Helmich-Paris : MC-RPA, TRAH-SCF, COSX integrals
   Lee Huntington         : MR-EOM, pCC
   Robert Izsak           : Overlap fitted RIJCOSX, COSX-SCS-MP3, EOM
   Marcus Kettner         : VPT2
   Christian Kollmar      : KDIIS, OOCD, Brueckner-CCSD(T), CCSD density, CASPT2, CASPT2-K
   Simone Kossmann        : Meta GGA functionals, TD-DFT gradient, OOMP2, MP2 Hessian
   Martin Krupicka        : Initial AUTO-CI
   Lucas Lang             : DCDCAS
   Marvin Lechner         : AUTO-CI (C++ implementation), FIC-MRCC
   Dagmar Lenk            : GEPOL surface, SMD
   Dimitrios Liakos       : Extrapolation schemes; Compound Job, initial MDCI parallelization
   Dimitrios Manganas     : Further ROCIS development; embedding schemes
   Dimitrios Pantazis     : SARC Basis sets
   Anastasios Papadopoulos: AUTO-CI, single reference methods and gradients
   Taras Petrenko         : DFT Hessian,TD-DFT gradient, ASA, ECA, R-Raman, ABS, FL, XAS/XES, NRVS
   Peter Pinski           : DLPNO-MP2, DLPNO-MP2 Gradient
   Christoph Reimann      : Effective Core Potentials
   Marius Retegan         : Local ZFS, SOC
   Christoph Riplinger    : Optimizer, TS searches, QM/MM, DLPNO-CCSD(T), (RO)-DLPNO pert. Triples
   Tobias Risthaus        : Range-separated hybrids, TD-DFT gradient, RPA, STAB
   Michael Roemelt        : Original ROCIS implementation
   Masaaki Saitow         : Open-shell DLPNO-CCSD energy and density
   Barbara Sandhoefer     : DKH picture change effects
   Avijit Sen             : IP-ROCIS
   Kantharuban Sivalingam : CASSCF convergence, NEVPT2, FIC-MRCI
   Bernardo de Souza      : ESD, SOC TD-DFT
   Georgi Stoychev        : AutoAux, RI-MP2 NMR, DLPNO-MP2 response
   Willem Van den Heuvel  : Paramagnetic NMR
   Boris Wezisla          : Elementary symmetry handling
   Frank Wennmohs         : Technical directorship


 We gratefully acknowledge several colleagues who have allowed us to
 interface, adapt or use parts of their codes:
   Stefan Grimme, W. Hujo, H. Kruse, P. Pracht,  : VdW corrections, initial TS optimization,
                  C. Bannwarth, S. Ehlert          DFT functionals, gCP, sTDA/sTD-DF
   Ed Valeev, F. Pavosevic, A. Kumar             : LibInt (2-el integral package), F12 methods
   Garnet Chan, S. Sharma, J. Yang, R. Olivares  : DMRG
   Ulf Ekstrom                                   : XCFun DFT Library
   Mihaly Kallay                                 : mrcc  (arbitrary order and MRCC methods)
   Jiri Pittner, Ondrej Demel                    : Mk-CCSD
   Frank Weinhold                                : gennbo (NPA and NBO analysis)
   Christopher J. Cramer and Donald G. Truhlar   : smd solvation model
   Lars Goerigk                                  : TD-DFT with DH, B97 family of functionals
   V. Asgeirsson, H. Jonsson                     : NEB implementation
   FAccTs GmbH                                   : IRC, NEB, NEB-TS, DLPNO-Multilevel, CI-OPT
                                                   MM, QMMM, 2- and 3-layer-ONIOM, Crystal-QMMM,
                                                   LR-CPCM, SF, NACMEs, symmetry and pop. for TD-DFT,
                                                   nearIR, NL-DFT gradient (VV10), updates on ESD,
                                                   ML-optimized integration grids
   S Lehtola, MJT Oliveira, MAL Marques          : LibXC Library
   Liviu Ungur et al                             : ANISO software


 Your calculation uses the libint2 library for the computation of 2-el integrals
 For citations please refer to: http://libint.valeyev.net

 Your ORCA version has been built with support for libXC version: 5.1.0
 For citations please refer to: https://tddft.org/programs/libxc/

 This ORCA versions uses:
   CBLAS   interface :  Fast vector & matrix operations
   LAPACKE interface :  Fast linear algebra routines
   SCALAPACK package :  Parallel linear algebra routines
   Shared memory     :  Shared parallel matrices
   BLAS/LAPACK       :  OpenBLAS 0.3.15  USE64BITINT DYNAMIC_ARCH NO_AFFINITY Haswell SINGLE_THREADED
        Core in use  :  Haswell
   Copyright (c) 2011-2014, The OpenBLAS Project


Your calculation utilizes the atom-pairwise dispersion correction
with the Becke-Johnson damping scheme (D3BJ)
Cite in your paper:
S.Grimme, S.Ehrlich, L.Goerigk, J Comput Chem, (2011), 32, 1456–1465 
S.Grimme, J.Antony, S.Ehrlich and H.Krieg, J.Chem.Phys., 132, (2010), 154104 
   

Your calculation utilizes the SMD solvation module
Please cite in your paper:
A.V. Marenich, C.J. Cramer, D.G. Truhlar J. Phys. Chem. B, 113, (2009), 6378 

================================================================================

----- Orbital basis set information -----
Your calculation utilizes the basis: aug-cc-pVTZ 
    H, B-Ne : Obtained from the ccRepo (grant-hill.group.shef.ac.uk/ccrepo) Feb. 2017
              R. A. Kendall, T. H. Dunning, Jr., R. J. Harrison, J. Chem. Phys. 96, 6796 (1992)
         He : Obtained from the ccRepo (grant-hill.group.shef.ac.uk/ccrepo) Feb. 2017
              D. E. Woon, T. H. Dunning, Jr., J. Chem. Phys. 100, 2975 (1994)
  Li-Be, Na : Obtained from the ccRepo (grant-hill.group.shef.ac.uk/ccrepo) Feb. 2017
              B. P. Prascher, D. E. Woon, K. A. Peterson, T. H. Dunning, Jr., A. K. Wilson, Theor. Chem. Acc. 128, 69 (2011)
         Mg : Obtained from the Peterson Research Group Website (tyr0.chem.wsu.edu/~kipeters) Feb. 2017
              B. P. Prascher, D. E. Woon, K. A. Peterson, T. H. Dunning, Jr., A. K. Wilson, Theor. Chem. Acc. 128, 69 (2011)
      Al-Ar : Obtained from the ccRepo (grant-hill.group.shef.ac.uk/ccrepo) Feb. 2017
              D. E. Woon, T. H. Dunning, Jr., J. Chem. Phys. 98, 1358 (1993)
      Sc-Zn : Obtained from the ccRepo (grant-hill.group.shef.ac.uk/ccrepo) Feb. 2017
              N. B. Balabanov, K. A. Peterson, J. Chem. Phys. 123, 064107 (2005)
              N. B. Balabanov, K. A. Peterson, J. Chem. Phys. 125, 074110 (2006)
      Ga-Kr : Obtained from the ccRepo (grant-hill.group.shef.ac.uk/ccrepo) Feb. 2017
              A. K. Wilson, D. E. Woon, K. A. Peterson, T. H. Dunning, Jr., J. Chem. Phys. 110, 7667 (1999)
     Ag, Au : Obtained from the Peterson Research Group Website (tyr0.chem.wsu.edu/~kipeters) Feb. 2017
              K. A. Peterson, C. Puzzarini, Theor. Chem. Acc. 114, 283 (2005)

The basis set includes element-specific modifications.

Your calculation utilizes the basis: cc-pVTZ 
       H, B-Ne : Obtained from the ccRepo (grant-hill.group.shef.ac.uk/ccrepo) Feb. 2017
                 T. H. Dunning, Jr., J. Chem. Phys. 90, 1007 (1989)
            He : Obtained from the ccRepo (grant-hill.group.shef.ac.uk/ccrepo) Feb. 2017
                 D. E. Woon, T. H. Dunning, Jr., J. Chem. Phys. 100, 2975 (1994)
  Li-Be, Na-Mg : Obtained from the ccRepo (grant-hill.group.shef.ac.uk/ccrepo) Feb. 2017
                 B. P. Prascher, D. E. Woon, K. A. Peterson, T. H. Dunning, Jr., A. K. Wilson, Theor. Chem. Acc. 128, 69 (2011)
         Al-Ar : Obtained from the ccRepo (grant-hill.group.shef.ac.uk/ccrepo) Feb. 2017
                 D. E. Woon, T. H. Dunning, Jr., J. Chem. Phys. 98, 1358 (1993)
            Ca : Obtained from the Peterson Research Group Website (tyr0.chem.wsu.edu/~kipeters) Feb. 2017
                 J. Koput, K. A. Peterson, J. Phys. Chem. 106, 9595 (2002)
         Sc-Zn : Obtained from the ccRepo (grant-hill.group.shef.ac.uk/ccrepo) Feb. 2017
                 N. B. Balabanov, K. A. Peterson, J. Chem. Phys. 123, 064107 (2005)
                 N. B. Balabanov, K. A. Peterson, J. Chem. Phys. 125, 074110 (2006)
         Ga-Kr : Obtained from the ccRepo (grant-hill.group.shef.ac.uk/ccrepo) Feb. 2017
                 A. K. Wilson, D. E. Woon, K. A. Peterson, T. H. Dunning, Jr., J. Chem. Phys. 110, 7667 (1999)
             Y : Obtained from the ccRepo (grant-hill.group.shef.ac.uk/ccrepo) Feb. 2017
                 K. A. Peterson, D. Figgen, M. Dolg, H. Stoll, J. Chem. Phys. 126, 124101 (2007)
        Ag, Au : Obtained from the Peterson Research Group Website (tyr0.chem.wsu.edu/~kipeters) Feb. 2017
                 K. A. Peterson, C. Puzzarini, Theor. Chem. Acc. 114, 283 (2005)

----- AuxJ basis set information -----
Your calculation utilizes the auxiliary basis: aug-cc-pVTZ/JK 
  H, B-F, Al-Cl, Ga-Br : Obtained from the TURBOMOLE 7.0 basis set library

The basis set includes element-specific modifications.

Your calculation utilizes the auxiliary basis: cc-pVTZ/JK 
  H, B-F, Al-Cl, Ga-Br : Obtained from the TURBOMOLE 7.0 basis set library

----- AuxC basis set information -----
Your calculation utilizes the auxiliary basis: aug-cc-pVTZ/C 
  H-He, B-F, Al-Ar, Ga-Kr : Obtained from the EMSL Basis Set Exchange (bse.pnl.gov) Feb. 2017
                            F. Weigend, A. Kohn, C. Hattig, J. Chem. Phys. 116, 3175 (2002)
                   Be, Mg : Obtained from the TURBOMOLE 7.0 basis set library
                            C. Haettig, Phys. Chem. Chem. Phys. 7, 59 (2005)
                       Ne : Obtained from the EMSL Basis Set Exchange (bse.pnl.gov) Feb. 2017
                            C. Haettig, Phys. Chem. Chem. Phys. 7, 59 (2005)
                            F. Weigend, A. Kohn, C. Hattig, J. Chem. Phys. 116, 3175 (2002)
                    Sc-Zn : Obtained from the EMSL Basis Set Exchange (bse.pnl.gov) Feb. 2017
                            J. G. Hill, J. A. Platts, J. Chem. Phys. 128, 044104 (2008)

The basis set includes element-specific modifications.

Your calculation utilizes the auxiliary basis: cc-pVTZ/C 
  Obtained from the EMSL Basis Set Exchange (bse.pnl.gov) Feb. 2017
  H-He, B-F, Al-Ar, Ga-Kr : F. Weigend, A. Kohn, C. Hattig, J. Chem. Phys. 116, 3175 (2002)
             Li-Be, Na-Mg : C. Haettig, Phys. Chem. Chem. Phys. 7, 59 (2005)
                       Ne : C. Haettig, Phys. Chem. Chem. Phys. 7, 59 (2005)
                            F. Weigend, A. Kohn, C. Hattig, J. Chem. Phys. 116, 3175 (2002)
                    Sc-Zn : J. G. Hill, J. A. Platts, J. Chem. Phys. 128, 044104 (2008)

================================================================================
                                        WARNINGS
                       Please study these warnings very carefully!
================================================================================


WARNING: Geometry Optimization
  ===> : Switching off AutoStart
         For restart on a previous wavefunction, please use MOREAD

INFO   : the flag for use of the SHARK integral package has been found!



***************************************
The coordinates will be read from file: 
***************************************


Your calculation utilizes the atom-pairwise dispersion correction
with the Becke-Johnson damping scheme (D3BJ)
Cite in your paper:
S.Grimme, S.Ehrlich, L.Goerigk, J Comput Chem, (2011), 32, 1456–1465 
S.Grimme, J.Antony, S.Ehrlich and H.Krieg, J.Chem.Phys., 132, (2010), 154104 
   

Your calculation utilizes the SMD solvation module
Please cite in your paper:
A.V. Marenich, C.J. Cramer, D.G. Truhlar J. Phys. Chem. B, 113, (2009), 6378 

================================================================================

----- Orbital basis set information -----
Your calculation utilizes the basis: aug-cc-pVTZ 
    H, B-Ne : Obtained from the ccRepo (grant-hill.group.shef.ac.uk/ccrepo) Feb. 2017
              R. A. Kendall, T. H. Dunning, Jr., R. J. Harrison, J. Chem. Phys. 96, 6796 (1992)
         He : Obtained from the ccRepo (grant-hill.group.shef.ac.uk/ccrepo) Feb. 2017
              D. E. Woon, T. H. Dunning, Jr., J. Chem. Phys. 100, 2975 (1994)
  Li-Be, Na : Obtained from the ccRepo (grant-hill.group.shef.ac.uk/ccrepo) Feb. 2017
              B. P. Prascher, D. E. Woon, K. A. Peterson, T. H. Dunning, Jr., A. K. Wilson, Theor. Chem. Acc. 128, 69 (2011)
         Mg : Obtained from the Peterson Research Group Website (tyr0.chem.wsu.edu/~kipeters) Feb. 2017
              B. P. Prascher, D. E. Woon, K. A. Peterson, T. H. Dunning, Jr., A. K. Wilson, Theor. Chem. Acc. 128, 69 (2011)
      Al-Ar : Obtained from the ccRepo (grant-hill.group.shef.ac.uk/ccrepo) Feb. 2017
              D. E. Woon, T. H. Dunning, Jr., J. Chem. Phys. 98, 1358 (1993)
      Sc-Zn : Obtained from the ccRepo (grant-hill.group.shef.ac.uk/ccrepo) Feb. 2017
              N. B. Balabanov, K. A. Peterson, J. Chem. Phys. 123, 064107 (2005)
              N. B. Balabanov, K. A. Peterson, J. Chem. Phys. 125, 074110 (2006)
      Ga-Kr : Obtained from the ccRepo (grant-hill.group.shef.ac.uk/ccrepo) Feb. 2017
              A. K. Wilson, D. E. Woon, K. A. Peterson, T. H. Dunning, Jr., J. Chem. Phys. 110, 7667 (1999)
     Ag, Au : Obtained from the Peterson Research Group Website (tyr0.chem.wsu.edu/~kipeters) Feb. 2017
              K. A. Peterson, C. Puzzarini, Theor. Chem. Acc. 114, 283 (2005)

The basis set includes element-specific modifications.

Your calculation utilizes the basis: cc-pVTZ 
       H, B-Ne : Obtained from the ccRepo (grant-hill.group.shef.ac.uk/ccrepo) Feb. 2017
                 T. H. Dunning, Jr., J. Chem. Phys. 90, 1007 (1989)
            He : Obtained from the ccRepo (grant-hill.group.shef.ac.uk/ccrepo) Feb. 2017
                 D. E. Woon, T. H. Dunning, Jr., J. Chem. Phys. 100, 2975 (1994)
  Li-Be, Na-Mg : Obtained from the ccRepo (grant-hill.group.shef.ac.uk/ccrepo) Feb. 2017
                 B. P. Prascher, D. E. Woon, K. A. Peterson, T. H. Dunning, Jr., A. K. Wilson, Theor. Chem. Acc. 128, 69 (2011)
         Al-Ar : Obtained from the ccRepo (grant-hill.group.shef.ac.uk/ccrepo) Feb. 2017
                 D. E. Woon, T. H. Dunning, Jr., J. Chem. Phys. 98, 1358 (1993)
            Ca : Obtained from the Peterson Research Group Website (tyr0.chem.wsu.edu/~kipeters) Feb. 2017
                 J. Koput, K. A. Peterson, J. Phys. Chem. 106, 9595 (2002)
         Sc-Zn : Obtained from the ccRepo (grant-hill.group.shef.ac.uk/ccrepo) Feb. 2017
                 N. B. Balabanov, K. A. Peterson, J. Chem. Phys. 123, 064107 (2005)
                 N. B. Balabanov, K. A. Peterson, J. Chem. Phys. 125, 074110 (2006)
         Ga-Kr : Obtained from the ccRepo (grant-hill.group.shef.ac.uk/ccrepo) Feb. 2017
                 A. K. Wilson, D. E. Woon, K. A. Peterson, T. H. Dunning, Jr., J. Chem. Phys. 110, 7667 (1999)
             Y : Obtained from the ccRepo (grant-hill.group.shef.ac.uk/ccrepo) Feb. 2017
                 K. A. Peterson, D. Figgen, M. Dolg, H. Stoll, J. Chem. Phys. 126, 124101 (2007)
        Ag, Au : Obtained from the Peterson Research Group Website (tyr0.chem.wsu.edu/~kipeters) Feb. 2017
                 K. A. Peterson, C. Puzzarini, Theor. Chem. Acc. 114, 283 (2005)

----- AuxJ basis set information -----
Your calculation utilizes the auxiliary basis: aug-cc-pVTZ/JK 
  H, B-F, Al-Cl, Ga-Br : Obtained from the TURBOMOLE 7.0 basis set library

The basis set includes element-specific modifications.

Your calculation utilizes the auxiliary basis: cc-pVTZ/JK 
  H, B-F, Al-Cl, Ga-Br : Obtained from the TURBOMOLE 7.0 basis set library

----- AuxC basis set information -----
Your calculation utilizes the auxiliary basis: aug-cc-pVTZ/C 
  H-He, B-F, Al-Ar, Ga-Kr : Obtained from the EMSL Basis Set Exchange (bse.pnl.gov) Feb. 2017
                            F. Weigend, A. Kohn, C. Hattig, J. Chem. Phys. 116, 3175 (2002)
                   Be, Mg : Obtained from the TURBOMOLE 7.0 basis set library
                            C. Haettig, Phys. Chem. Chem. Phys. 7, 59 (2005)
                       Ne : Obtained from the EMSL Basis Set Exchange (bse.pnl.gov) Feb. 2017
                            C. Haettig, Phys. Chem. Chem. Phys. 7, 59 (2005)
                            F. Weigend, A. Kohn, C. Hattig, J. Chem. Phys. 116, 3175 (2002)
                    Sc-Zn : Obtained from the EMSL Basis Set Exchange (bse.pnl.gov) Feb. 2017
                            J. G. Hill, J. A. Platts, J. Chem. Phys. 128, 044104 (2008)

The basis set includes element-specific modifications.

Your calculation utilizes the auxiliary basis: cc-pVTZ/C 
  Obtained from the EMSL Basis Set Exchange (bse.pnl.gov) Feb. 2017
  H-He, B-F, Al-Ar, Ga-Kr : F. Weigend, A. Kohn, C. Hattig, J. Chem. Phys. 116, 3175 (2002)
             Li-Be, Na-Mg : C. Haettig, Phys. Chem. Chem. Phys. 7, 59 (2005)
                       Ne : C. Haettig, Phys. Chem. Chem. Phys. 7, 59 (2005)
                            F. Weigend, A. Kohn, C. Hattig, J. Chem. Phys. 116, 3175 (2002)
                    Sc-Zn : J. G. Hill, J. A. Platts, J. Chem. Phys. 128, 044104 (2008)

================================================================================
                                        WARNINGS
                       Please study these warnings very carefully!
================================================================================

INFO   : Checking CIS options ...
  ===> : (D) CORRECTION FOUND - SETTING MODE=3
  ===> : JK MODE FOUND - ACTIVATING RI-MP2 CODE
  ===> : MP2 AND CIS FOUND - CHECKING
WARNING: CIS(D) and MP2 runs must have the same orbital window
  ===> : adjusting orbital windows

WARNING: No MP2 level density has been requested!
         To caclulate MP2 level properties use
         %mp2 Density relaxed end
         or
         %mp2 Density unrelaxed end
         Otherwise for double-hybrid DFT only the energy is correct!

WARNING: The frozen-core approximation is turned on by default for 
         the MP2 part of double-hybrid DFT.

INFO   : the flag for use of the SHARK integral package has been found!

================================================================================
                                       INPUT FILE
================================================================================
NAME = optpbed3-b2plyp-test-308.inp
|  1> ! pbe0 d3bj aug-cc-PVTZ RIJCOSX Opt
|  2> %maxcore 4000
|  3> %basis
|  4>  AuxJ "aug-cc-PVTZ/JK"
|  5>  AuxC "aug-cc-PVTZ/C"
|  6>  newGTO H "cc-PVTZ" end
|  7>  newAuxJGTO H "cc-PVTZ/JK" end
|  8>  newAuxCGTO H "cc-PVTZ/C" end
|  9> end
| 10> %cpcm
| 11>  SMD true
| 12>  SMDsolvent "acetonitrile"
| 13> end
| 14> %pal nprocs 4 end
| 15> * xyz 0 1
| 16> C         -2.64290        0.89140       -2.01610
| 17> C         -2.75020        0.93280       -0.48950
| 18> S         -4.14580        2.04590       -0.05800
| 19> C         -3.06210        3.35040        0.54430
| 20> O         -3.47350        4.41930        0.89500
| 21> C         -1.69830        2.85020        0.55080
| 22> C         -1.52630        1.60260        0.09020
| 23> C         -0.34850        0.79010        0.11860
| 24> N          0.93830        1.15980        0.28390
| 25> C          1.64870        0.04710        0.22730
| 26> C          3.08710        0.00110        0.35940
| 27> C          3.77120        1.19980        0.57660
| 28> C          5.14290        1.22560        0.71160
| 29> C          5.86330        0.04400        0.63050
| 30> C          5.20590       -1.15310        0.41540
| 31> C          3.82510       -1.19070        0.27900
| 32> O          3.17970       -2.37800        0.06700
| 33> N          0.85390       -1.04460        0.02730
| 34> C         -0.43090       -0.60090       -0.03550
| 35> C         -1.65520       -1.29130       -0.23370
| 36> C         -1.87750       -2.52680       -0.71780
| 37> C         -3.26290       -2.87130       -0.97490
| 38> O         -3.71040       -3.90050       -1.39720
| 39> S         -4.28870       -1.44470       -0.59710
| 40> C         -2.88790       -0.48310        0.10180
| 41> C         -3.07000       -0.43310        1.62150
| 42> H         -2.51540        1.89920       -2.40450
| 43> H         -3.55200        0.46780       -2.43610
| 44> H         -1.79260        0.28590       -2.32570
| 45> H         -0.91020        3.46470        0.94980
| 46> H          3.18330        2.10140        0.63350
| 47> H          5.65300        2.16080        0.87930
| 48> H          6.93730        0.05010        0.73400
| 49> H          5.76690       -2.07650        0.35120
| 50> H          3.82890       -3.09220        0.03370
| 51> H          1.18720       -1.99390       -0.03590
| 52> H         -1.11430       -3.24450       -0.96770
| 53> H         -3.99140        0.09220        1.86090
| 54> H         -3.13060       -1.44270        2.02210
| 55> H         -2.23510        0.08520        2.09020
| 56> *
| 57> 
| 58> 
| 59> $new_job
| 60> ! b2plyp aug-cc-PVTZ RIJCOSX SP
| 61> %maxcore 4000
| 62> %basis
| 63>  AuxJ "aug-cc-PVTZ/JK"
| 64>  AuxC "aug-cc-PVTZ/C"
| 65>  newGTO H "cc-PVTZ" end
| 66>  newAuxJGTO H "cc-PVTZ/JK" end
| 67>  newAuxCGTO H "cc-PVTZ/C" end
| 68> end
| 69> %cpcm
| 70>  SMD true
| 71>  SMDsolvent "acetonitrile"
| 72> end
| 73> %pal nprocs 4 end
| 74> %tddft
| 75>  nroots 10
| 76>  maxdim 7
| 77> end
| 78> * xyzfile 0 1
| 79> 
| 80>                          ****END OF INPUT****
================================================================================


                 $$$$$$$$$$$$$$$$$$$$$$$$$$$$$$$$$$$$$$$$$$$$$$ 
                 $ THERE ARE  2 JOBS TO BE PROCESSED THIS RUN $
                 $$$$$$$$$$$$$$$$$$$$$$$$$$$$$$$$$$$$$$$$$$$$$$ 




                 $$$$$$$$$$$$$$$$  JOB NUMBER  1 $$$$$$$$$$$$$$


                       *****************************
                       * Geometry Optimization Run *
                       *****************************

Geometry optimization settings:
Update method            Update   .... BFGS
Choice of coordinates    CoordSys .... Z-matrix Internals
Initial Hessian          InHess   .... Almoef's Model

Convergence Tolerances:
Energy Change            TolE     ....  5.0000e-06 Eh
Max. Gradient            TolMAXG  ....  3.0000e-04 Eh/bohr
RMS Gradient             TolRMSG  ....  1.0000e-04 Eh/bohr
Max. Displacement        TolMAXD  ....  4.0000e-03 bohr
RMS Displacement         TolRMSD  ....  2.0000e-03 bohr
Strict Convergence                ....  False
------------------------------------------------------------------------------
                        ORCA OPTIMIZATION COORDINATE SETUP
------------------------------------------------------------------------------

The optimization will be done in new redundant internal coordinates
Making redundant internal coordinates   ...  (new redundants) done
Evaluating the initial hessian          ...  (Almloef) done
Evaluating the coordinates              ...  done
Calculating the B-matrix                .... done
Calculating the G-matrix                .... done
Diagonalizing the G-matrix              .... done
Small eigenvalue found = 4.577e-03
Small eigenvalue found = 1.804e-02
Small eigenvalue found = 2.395e-02
Small eigenvalue found = 2.786e-02
The first mode is                       ....  125
The number of degrees of freedom        ....  114

    -----------------------------------------------------------------
                    Redundant Internal Coordinates


    -----------------------------------------------------------------
         Definition                    Initial Value    Approx d2E/dq
    -----------------------------------------------------------------
      1. B(C   1,C   0)                  1.5309         0.372306   
      2. B(S   2,C   1)                  1.8365         0.326647   
      3. B(C   3,S   2)                  1.7997         0.373998   
      4. B(O   4,C   3)                  1.1978         1.133643   
      5. B(C   5,C   3)                  1.4527         0.496345   
      6. B(C   6,C   1)                  1.5108         0.400828   
      7. B(C   6,C   5)                  1.3410         0.748063   
      8. B(C   7,C   6)                  1.4311         0.537149   
      9. B(N   8,C   7)                  1.3490         0.650512   
     10. B(C   9,N   8)                  1.3214         0.720108   
     11. B(C  10,C   9)                  1.4452         0.510145   
     12. B(C  11,C  10)                  1.3972         0.608581   
     13. B(C  12,C  11)                  1.3786         0.651593   
     14. B(C  13,C  12)                  1.3863         0.633427   
     15. B(C  14,C  13)                  1.3826         0.642093   
     16. B(C  15,C  14)                  1.3880         0.629334   
     17. B(C  15,C  10)                  1.4041         0.593258   
     18. B(O  16,C  15)                  1.3679         0.606911   
     19. B(N  17,C   9)                  1.3651         0.613185   
     20. B(C  18,N  17)                  1.3607         0.623175   
     21. B(C  18,C   7)                  1.4019         0.597998   
     22. B(C  19,C  18)                  1.4195         0.560723   
     23. B(C  20,C  19)                  1.3454         0.735899   
     24. B(C  21,C  20)                  1.4506         0.500178   
     25. B(O  22,C  21)                  1.1991         1.128342   
     26. B(S  23,C  21)                  1.7973         0.377338   
     27. B(C  24,S  23)                  1.8372         0.325834   
     28. B(C  24,C  19)                  1.5117         0.399524   
     29. B(C  24,C   1)                  1.5406         0.359341   
     30. B(C  25,C  24)                  1.5314         0.371675   
     31. B(H  26,C   0)                  1.0876         0.363352   
     32. B(H  27,C   0)                  1.0873         0.363641   
     33. B(H  28,C   0)                  1.0888         0.361687   
     34. B(H  29,C   5)                  1.0761         0.379016   
     35. B(H  30,C  11)                  1.0778         0.376546   
     36. B(H  31,C  12)                  1.0784         0.375791   
     37. B(H  32,C  13)                  1.0790         0.374960   
     38. B(H  33,C  14)                  1.0824         0.370346   
     39. B(H  34,O  16)                  0.9657         0.509109   
     40. B(H  35,N  17)                  1.0081         0.435748   
     41. B(H  36,C  20)                  1.0770         0.377658   
     42. B(H  37,C  25)                  1.0873         0.363684   
     43. B(H  38,C  25)                  1.0879         0.362939   
     44. B(H  39,C  25)                  1.0887         0.361760   
     45. A(C   1,C   0,H  26)          109.8330         0.324617   
     46. A(C   1,C   0,H  27)          109.7009         0.324659   
     47. A(H  26,C   0,H  28)          108.7978         0.291452   
     48. A(H  26,C   0,H  27)          108.7281         0.291699   
     49. A(H  27,C   0,H  28)          109.0536         0.291488   
     50. A(C   1,C   0,H  28)          110.6905         0.324372   
     51. A(C   6,C   1,C  24)          109.4262         0.365319   
     52. A(S   2,C   1,C   6)          104.8768         0.378401   
     53. A(C   0,C   1,C  24)          111.3549         0.360740   
     54. A(C   0,C   1,S   2)          107.6944         0.373606   
     55. A(S   2,C   1,C  24)          113.5116         0.371332   
     56. A(C   0,C   1,C   6)          109.7443         0.367544   
     57. A(C   1,S   2,C   3)           93.4608         0.393899   
     58. A(S   2,C   3,O   4)          122.5475         0.463467   
     59. A(S   2,C   3,C   5)          108.4958         0.402196   
     60. A(O   4,C   3,C   5)          128.9331         0.462050   
     61. A(C   6,C   5,H  29)          124.3825         0.367576   
     62. A(C   3,C   5,H  29)          119.5127         0.342875   
     63. A(C   3,C   5,C   6)          116.0553         0.431368   
     64. A(C   1,C   6,C   5)          116.1259         0.415199   
     65. A(C   5,C   6,C   7)          128.8242         0.437545   
     66. A(C   1,C   6,C   7)          114.9990         0.391640   
     67. A(N   8,C   7,C  18)          109.9651         0.432150   
     68. A(C   6,C   7,C  18)          120.8470         0.420322   
     69. A(C   6,C   7,N   8)          129.1879         0.423916   
     70. A(C   7,N   8,C   9)          106.0699         0.443945   
     71. A(C  10,C   9,N  17)          124.5711         0.415631   
     72. A(N   8,C   9,N  17)          111.5116         0.439229   
     73. A(N   8,C   9,C  10)          123.9172         0.427732   
     74. A(C  11,C  10,C  15)          118.6710         0.429205   
     75. A(C   9,C  10,C  15)          123.0191         0.415887   
     76. A(C   9,C  10,C  11)          118.3098         0.417779   
     77. A(C  10,C  11,H  30)          117.3101         0.354471   
     78. A(C  10,C  11,C  12)          121.2302         0.436504   
     79. A(C  12,C  11,H  30)          121.4597         0.358606   
     80. A(C  11,C  12,H  31)          120.1405         0.358483   
     81. A(C  11,C  12,C  13)          119.6961         0.439666   
     82. A(C  13,C  12,H  31)          120.1634         0.356764   
     83. A(C  12,C  13,H  32)          120.4532         0.356630   
     84. A(C  12,C  13,C  14)          120.0015         0.438502   
     85. A(C  14,C  13,H  32)          119.5453         0.357454   
     86. A(C  13,C  14,C  15)          120.7811         0.437990   
     87. A(C  15,C  14,H  33)          119.1220         0.355490   
     88. A(C  13,C  14,H  33)          120.0969         0.356703   
     89. A(C  14,C  15,O  16)          120.5374         0.430732   
     90. A(C  10,C  15,O  16)          119.8426         0.426196   
     91. A(C  10,C  15,C  14)          119.6200         0.431797   
     92. A(C  15,O  16,H  34)          109.2730         0.367430   
     93. A(C   9,N  17,C  18)          107.2016         0.427954   
     94. A(C  18,N  17,H  35)          128.0500         0.359409   
     95. A(C   9,N  17,H  35)          124.7338         0.358421   
     96. A(C   7,C  18,C  19)          123.2734         0.423559   
     97. A(C   7,C  18,N  17)          105.2462         0.428832   
     98. A(N  17,C  18,C  19)          131.4712         0.423917   
     99. A(C  20,C  19,C  24)          115.8527         0.413752   
    100. A(C  18,C  19,C  24)          114.3493         0.394371   
    101. A(C  18,C  19,C  20)          129.7461         0.439647   
    102. A(C  21,C  20,H  36)          118.5155         0.343111   
    103. A(C  19,C  20,H  36)          125.3320         0.366319   
    104. A(C  19,C  20,C  21)          116.0823         0.430694   
    105. A(O  22,C  21,S  23)          122.8416         0.463823   
    106. A(C  20,C  21,S  23)          108.6233         0.403374   
    107. A(C  20,C  21,O  22)          128.5134         0.462304   
    108. A(C  21,S  23,C  24)           93.4538         0.394341   
    109. A(S  23,C  24,C  25)          107.6939         0.373336   
    110. A(C  19,C  24,C  25)          109.5518         0.367232   
    111. A(C   1,C  24,C  25)          111.1929         0.360636   
    112. A(C  19,C  24,S  23)          104.9207         0.378024   
    113. A(C   1,C  24,S  23)          113.7773         0.371173   
    114. A(C   1,C  24,C  19)          109.4686         0.365115   
    115. A(H  38,C  25,H  39)          109.0258         0.291409   
    116. A(H  37,C  25,H  39)          108.9693         0.291503   
    117. A(C  24,C  25,H  39)          110.5831         0.324292   
    118. A(H  37,C  25,H  38)          108.6678         0.291652   
    119. A(C  24,C  25,H  38)          109.9840         0.324466   
    120. A(C  24,C  25,H  37)          109.5749         0.324575   
    121. D(C  24,C   1,C   0,H  27)     62.3226         0.011072   
    122. D(S   2,C   1,C   0,H  28)    176.8778         0.011072   
    123. D(S   2,C   1,C   0,H  26)     56.7201         0.011072   
    124. D(S   2,C   1,C   0,H  27)    -62.7317         0.011072   
    125. D(C  24,C   1,C   0,H  26)   -178.2256         0.011072   
    126. D(C  24,C   1,C   0,H  28)    -58.0679         0.011072   
    127. D(C   6,C   1,C   0,H  26)    -56.9101         0.011072   
    128. D(C   6,C   1,C   0,H  27)   -176.3619         0.011072   
    129. D(C   6,C   1,C   0,H  28)     63.2476         0.011072   
    130. D(C   3,S   2,C   1,C  24)    128.3149         0.003197   
    131. D(C   3,S   2,C   1,C   0)   -107.9311         0.003197   
    132. D(C   3,S   2,C   1,C   6)      8.9183         0.003197   
    133. D(C   5,C   3,S   2,C   1)     -6.6634         0.003523   
    134. D(O   4,C   3,S   2,C   1)    174.9613         0.003523   
    135. D(C   6,C   5,C   3,S   2)      2.0412         0.016778   
    136. D(C   6,C   5,C   3,O   4)   -179.7194         0.016778   
    137. D(H  29,C   5,C   3,S   2)   -175.5141         0.016778   
    138. D(H  29,C   5,C   3,O   4)      2.7254         0.016778   
    139. D(C   7,C   6,C   5,H  29)      5.5617         0.039888   
    140. D(C   7,C   6,C   1,C  24)     45.7520         0.011921   
    141. D(C   1,C   6,C   5,H  29)   -177.1858         0.039888   
    142. D(C   1,C   6,C   5,C   3)      5.3922         0.039888   
    143. D(C   7,C   6,C   5,C   3)   -171.8603         0.039888   
    144. D(C   7,C   6,C   1,C   0)    -76.7158         0.011921   
    145. D(C   7,C   6,C   1,S   2)    167.8502         0.011921   
    146. D(C   5,C   6,C   1,S   2)     -9.7882         0.011921   
    147. D(C   5,C   6,C   1,C  24)   -131.8865         0.011921   
    148. D(C   5,C   6,C   1,C   0)    105.6457         0.011921   
    149. D(C  18,C   7,C   6,C   1)    -16.4255         0.019709   
    150. D(N   8,C   7,C   6,C   5)    -19.0296         0.019709   
    151. D(N   8,C   7,C   6,C   1)    163.6921         0.019709   
    152. D(C  18,C   7,C   6,C   5)    160.8528         0.019709   
    153. D(C   9,N   8,C   7,C  18)      0.4308         0.031278   
    154. D(C   9,N   8,C   7,C   6)   -179.6766         0.031278   
    155. D(N  17,C   9,N   8,C   7)      0.0428         0.039050   
    156. D(C  10,C   9,N   8,C   7)    179.9477         0.039050   
    157. D(C  15,C  10,C   9,N  17)      0.7395         0.017736   
    158. D(C  11,C  10,C   9,N  17)   -179.2810         0.017736   
    159. D(C  11,C  10,C   9,N   8)      0.8265         0.017736   
    160. D(C  15,C  10,C   9,N   8)   -179.1530         0.017736   
    161. D(H  30,C  11,C  10,C  15)    179.9354         0.025573   
    162. D(H  30,C  11,C  10,C   9)     -0.0450         0.025573   
    163. D(C  12,C  11,C  10,C  15)     -0.0299         0.025573   
    164. D(C  12,C  11,C  10,C   9)    179.9897         0.025573   
    165. D(H  31,C  12,C  11,H  30)      0.0673         0.029572   
    166. D(H  31,C  12,C  11,C  10)   -179.9688         0.029572   
    167. D(C  13,C  12,C  11,H  30)   -179.9192         0.029572   
    168. D(C  13,C  12,C  11,C  10)      0.0447         0.029572   
    169. D(H  32,C  13,C  12,H  31)     -0.0113         0.027839   
    170. D(H  32,C  13,C  12,C  11)    179.9752         0.027839   
    171. D(C  14,C  13,C  12,H  31)   -179.9995         0.027839   
    172. D(C  14,C  13,C  12,C  11)     -0.0130         0.027839   
    173. D(H  33,C  14,C  13,H  32)     -0.0265         0.028658   
    174. D(C  15,C  14,C  13,C  12)     -0.0330         0.028658   
    175. D(C  15,C  14,C  13,H  32)    179.9787         0.028658   
    176. D(H  33,C  14,C  13,C  12)    179.9618         0.028658   
    177. D(C  10,C  15,C  14,H  33)   -179.9475         0.027457   
    178. D(C  10,C  15,C  14,C  13)      0.0474         0.027457   
    179. D(O  16,C  15,C  10,C  11)    179.9973         0.024234   
    180. D(C  14,C  15,C  10,C  11)     -0.0160         0.024234   
    181. D(C  14,C  15,C  10,C   9)    179.9634         0.024234   
    182. D(O  16,C  15,C  14,C  13)   -179.9660         0.027457   
    183. D(O  16,C  15,C  10,C   9)     -0.0234         0.024234   
    184. D(O  16,C  15,C  14,H  33)      0.0392         0.027457   
    185. D(H  34,O  16,C  15,C  14)     -0.2902         0.026943   
    186. D(H  34,O  16,C  15,C  10)    179.6964         0.026943   
    187. D(H  35,N  17,C   9,C  10)      0.8829         0.030394   
    188. D(H  35,N  17,C   9,N   8)   -179.2130         0.030394   
    189. D(C  18,N  17,C   9,C  10)    179.5893         0.030394   
    190. D(C  18,N  17,C   9,N   8)     -0.5066         0.030394   
    191. D(C  19,C  18,N  17,H  35)     -1.7256         0.031472   
    192. D(C  19,C  18,N  17,C   9)    179.6245         0.031472   
    193. D(C   7,C  18,N  17,H  35)    179.3775         0.031472   
    194. D(C   7,C  18,N  17,C   9)      0.7276         0.031472   
    195. D(C  19,C  18,C   7,N   8)   -179.7427         0.024643   
    196. D(C  19,C  18,C   7,C   6)      0.3542         0.024643   
    197. D(N  17,C  18,C   7,N   8)     -0.7313         0.024643   
    198. D(N  17,C  18,C   7,C   6)    179.3656         0.024643   
    199. D(C  24,C  19,C  18,N  17)    165.5303         0.021539   
    200. D(C  24,C  19,C  18,C   7)    -15.7427         0.021539   
    201. D(C  20,C  19,C  18,N  17)    -17.2342         0.021539   
    202. D(C  20,C  19,C  18,C   7)    161.4928         0.021539   
    203. D(H  36,C  20,C  19,C  24)   -177.3602         0.038482   
    204. D(H  36,C  20,C  19,C  18)      5.4385         0.038482   
    205. D(C  21,C  20,C  19,C  24)      5.7449         0.038482   
    206. D(C  21,C  20,C  19,C  18)   -171.4564         0.038482   
    207. D(S  23,C  21,C  20,H  36)   -175.1450         0.017041   
    208. D(S  23,C  21,C  20,C  19)      1.9722         0.017041   
    209. D(O  22,C  21,C  20,H  36)      3.1774         0.017041   
    210. D(O  22,C  21,C  20,C  19)   -179.7054         0.017041   
    211. D(C  24,S  23,C  21,O  22)    174.7182         0.003560   
    212. D(C  24,S  23,C  21,C  20)     -6.8442         0.003560   
    213. D(C  25,C  24,S  23,C  21)   -107.3812         0.003188   
    214. D(C  19,C  24,S  23,C  21)      9.2690         0.003188   
    215. D(C   1,C  24,S  23,C  21)    128.8935         0.003188   
    216. D(C  25,C  24,C  19,C  18)    -77.2233         0.011847   
    217. D(S  23,C  24,C  19,C  20)    -10.2286         0.011847   
    218. D(S  23,C  24,C  19,C  18)    167.4096         0.011847   
    219. D(C   1,C  24,C  19,C  20)   -132.6914         0.011847   
    220. D(C   1,C  24,C  19,C  18)     44.9468         0.011847   
    221. D(C  25,C  24,C   1,C   6)     61.5305         0.010362   
    222. D(C  25,C  24,C   1,S   2)    -55.2335         0.010362   
    223. D(C  25,C  24,C   1,C   0)   -176.9685         0.010362   
    224. D(S  23,C  24,C   1,C   6)   -176.6637         0.010362   
    225. D(S  23,C  24,C   1,S   2)     66.5723         0.010362   
    226. D(C  25,C  24,C  19,C  20)    105.1384         0.011847   
    227. D(S  23,C  24,C   1,C   0)    -55.1627         0.010362   
    228. D(C  19,C  24,C   1,C   6)    -59.6519         0.010362   
    229. D(C  19,C  24,C   1,S   2)   -176.4159         0.010362   
    230. D(C  19,C  24,C   1,C   0)     61.8490         0.010362   
    231. D(H  39,C  25,C  24,C  19)     63.5520         0.011037   
    232. D(H  39,C  25,C  24,C   1)    -57.5818         0.011037   
    233. D(H  38,C  25,C  24,S  23)     56.6657         0.011037   
    234. D(H  38,C  25,C  24,C  19)    -56.9188         0.011037   
    235. D(H  38,C  25,C  24,C   1)   -178.0526         0.011037   
    236. D(H  37,C  25,C  24,S  23)    -62.7269         0.011037   
    237. D(H  37,C  25,C  24,C  19)   -176.3114         0.011037   
    238. D(H  39,C  25,C  24,S  23)    177.1365         0.011037   
    239. D(H  37,C  25,C  24,C   1)     62.5549         0.011037   
    -----------------------------------------------------------------

Number of atoms                         .... 40
Number of degrees of freedom            .... 239

         *************************************************************
         *                GEOMETRY OPTIMIZATION CYCLE   1            *
         *************************************************************
---------------------------------
CARTESIAN COORDINATES (ANGSTROEM)
---------------------------------
  C     -2.642900    0.891400   -2.016100
  C     -2.750200    0.932800   -0.489500
  S     -4.145800    2.045900   -0.058000
  C     -3.062100    3.350400    0.544300
  O     -3.473500    4.419300    0.895000
  C     -1.698300    2.850200    0.550800
  C     -1.526300    1.602600    0.090200
  C     -0.348500    0.790100    0.118600
  N      0.938300    1.159800    0.283900
  C      1.648700    0.047100    0.227300
  C      3.087100    0.001100    0.359400
  C      3.771200    1.199800    0.576600
  C      5.142900    1.225600    0.711600
  C      5.863300    0.044000    0.630500
  C      5.205900   -1.153100    0.415400
  C      3.825100   -1.190700    0.279000
  O      3.179700   -2.378000    0.067000
  N      0.853900   -1.044600    0.027300
  C     -0.430900   -0.600900   -0.035500
  C     -1.655200   -1.291300   -0.233700
  C     -1.877500   -2.526800   -0.717800
  C     -3.262900   -2.871300   -0.974900
  O     -3.710400   -3.900500   -1.397200
  S     -4.288700   -1.444700   -0.597100
  C     -2.887900   -0.483100    0.101800
  C     -3.070000   -0.433100    1.621500
  H     -2.515400    1.899200   -2.404500
  H     -3.552000    0.467800   -2.436100
  H     -1.792600    0.285900   -2.325700
  H     -0.910200    3.464700    0.949800
  H      3.183300    2.101400    0.633500
  H      5.653000    2.160800    0.879300
  H      6.937300    0.050100    0.734000
  H      5.766900   -2.076500    0.351200
  H      3.828900   -3.092200    0.033700
  H      1.187200   -1.993900   -0.035900
  H     -1.114300   -3.244500   -0.967700
  H     -3.991400    0.092200    1.860900
  H     -3.130600   -1.442700    2.022100
  H     -2.235100    0.085200    2.090200

----------------------------
CARTESIAN COORDINATES (A.U.)
----------------------------
  NO LB      ZA    FRAG     MASS         X           Y           Z
   0 C     6.0000    0    12.011   -4.994357    1.684502   -3.809877
   1 C     6.0000    0    12.011   -5.197125    1.762737   -0.925021
   2 S    16.0000    0    32.060   -7.834427    3.866191   -0.109604
   3 C     6.0000    0    12.011   -5.786530    6.331338    1.028578
   4 O     8.0000    0    15.999   -6.563964    8.351267    1.691305
   5 C     6.0000    0    12.011   -3.209322    5.386097    1.040861
   6 C     6.0000    0    12.011   -2.884289    3.028475    0.170453
   7 C     6.0000    0    12.011   -0.658570    1.493073    0.224122
   8 N     7.0000    0    14.007    1.773130    2.191704    0.536493
   9 C     6.0000    0    12.011    3.115591    0.089006    0.429535
  10 C     6.0000    0    12.011    5.833774    0.002079    0.679168
  11 C     6.0000    0    12.011    7.126535    2.267293    1.089616
  12 C     6.0000    0    12.011    9.718673    2.316048    1.344729
  13 C     6.0000    0    12.011   11.080031    0.083148    1.191472
  14 C     6.0000    0    12.011    9.837725   -2.179043    0.784992
  15 C     6.0000    0    12.011    7.228391   -2.250097    0.527234
  16 O     8.0000    0    15.999    6.008762   -4.493769    0.126612
  17 N     7.0000    0    14.007    1.613637   -1.974008    0.051590
  18 C     6.0000    0    12.011   -0.814283   -1.135536   -0.067085
  19 C     6.0000    0    12.011   -3.127875   -2.440203   -0.441629
  20 C     6.0000    0    12.011   -3.547961   -4.774960   -1.356445
  21 C     6.0000    0    12.011   -6.165987   -5.425971   -1.842294
  22 O     8.0000    0    15.999   -7.011640   -7.370877   -2.640325
  23 S    16.0000    0    32.060   -8.104468   -2.730087   -1.128355
  24 C     6.0000    0    12.011   -5.457340   -0.912927    0.192374
  25 C     6.0000    0    12.011   -5.801459   -0.818440    3.064191
  26 H     1.0000    0     1.008   -4.753417    3.588968   -4.543846
  27 H     1.0000    0     1.008   -6.712307    0.884014   -4.603562
  28 H     1.0000    0     1.008   -3.387523    0.540273   -4.394936
  29 H     1.0000    0     1.008   -1.720029    6.547334    1.794862
  30 H     1.0000    0     1.008    6.015565    3.971070    1.197142
  31 H     1.0000    0     1.008   10.682622    4.083320    1.661636
  32 H     1.0000    0     1.008   13.109597    0.094675    1.387059
  33 H     1.0000    0     1.008   10.897862   -3.924016    0.663672
  34 H     1.0000    0     1.008    7.235572   -5.843411    0.063684
  35 H     1.0000    0     1.008    2.243483   -3.767925   -0.067841
  36 H     1.0000    0     1.008   -2.105722   -6.131216   -1.828688
  37 H     1.0000    0     1.008   -7.542653    0.174233    3.516591
  38 H     1.0000    0     1.008   -5.915977   -2.726308    3.821215
  39 H     1.0000    0     1.008   -4.223727    0.161005    3.949906

--------------------------------
INTERNAL COORDINATES (ANGSTROEM)
--------------------------------
 C      0   0   0     0.000000000000     0.00000000     0.00000000
 C      1   0   0     1.530926128198     0.00000000     0.00000000
 S      2   1   0     1.836541102181   107.69435509     0.00000000
 C      3   2   1     1.799691981979    93.46077727   252.06893248
 O      4   3   2     1.197826222789   122.54746953   174.96127825
 C      4   3   2     1.452650243520   108.49577663   353.33664570
 C      6   4   3     1.340985503277   116.05530863     2.04120447
 C      7   6   4     1.431144873868   128.82422562   188.13969100
 N      8   7   6     1.349020540985   129.18785500   340.97038412
 C      9   8   7     1.321352719754   106.06986990   180.32338960
 C     10   9   8     1.445185444848   123.91723746   179.94768855
 C     11  10   9     1.397157950985   118.30983151     0.82647969
 C     12  11  10     1.378568652625   121.23018900   179.98970677
 C     13  12  11     1.386265461591   119.69608645     0.04466951
 C     14  13  12     1.382566880842   120.00154137     0.00000000
 C     15  14  13     1.388030028494   120.78107760   359.96699856
 O     16  15  14     1.367905862989   120.53738829   180.03401639
 N     10   9   8     1.365106563606   111.51155410     0.04284204
 C     18  10   9     1.360707378535   107.20164420   359.49337862
 C     19  18  10     1.419452672688   131.47121879   179.62449577
 C     20  19  18     1.345448010887   129.74606867   342.76579050
 C     21  20  19     1.450556382910   116.08234123   188.54364092
 O     22  21  20     1.199102239177   128.51342005   180.29458436
 S     22  21  20     1.797271832528   108.62333489     1.97223769
 C     20  19  18     1.511719808695   114.34933543   165.53029968
 C     25  20  19     1.531387769313   109.55176791   282.77666618
 H      1   2   3     1.087553056177   109.83303183    56.72005929
 H      1   2   3     1.087336088797   109.70085241   297.26828120
 H      1   2   3     1.088803242097   110.69048495   176.87777240
 H      6   4   3     1.076063594775   119.51273715   184.48593776
 H     12  11  10     1.077843485855   117.31009543   359.95503161
 H     13  12  11     1.078389697651   120.14049336   180.03117145
 H     14  13  12     1.078992798864   120.45320297   179.97520363
 H     15  14  13     1.082363247713   120.09688636   179.96181194
 H     17  16  15     0.965738665478   109.27302633   359.70976720
 H     18  10   9     1.008094053152   124.73376694   180.78703762
 H     21  20  19     1.077041104137   125.33200371     5.43848013
 H     26  25  20     1.087304193867   109.57490685   183.68858377
 H     26  25  20     1.087862528080   109.98397958   303.08116325
 H     26  25  20     1.088748175659   110.58307873    63.55196223

---------------------------
INTERNAL COORDINATES (A.U.)
---------------------------
 C      0   0   0     0.000000000000     0.00000000     0.00000000
 C      1   0   0     2.893031113559     0.00000000     0.00000000
 S      2   1   0     3.470559716812   107.69435509     0.00000000
 C      3   2   1     3.400924971355    93.46077727   252.06893248
 O      4   3   2     2.263563517100   122.54746953   174.96127825
 C      4   3   2     2.745111128628   108.49577663   353.33664570
 C      6   4   3     2.534095350753   116.05530863     2.04120447
 C      7   6   4     2.704471869577   128.82422562   188.13969100
 N      8   7   6     2.549279371496   129.18785500   340.97038412
 C      9   8   7     2.496994766646   106.06986990   180.32338960
 C     10   9   8     2.731004703492   123.91723746   179.94768855
 C     11  10   9     2.640245893192   118.30983151     0.82647969
 C     12  11  10     2.605117210270   121.23018900   179.98970677
 C     13  12  11     2.619662071321   119.69608645     0.04466951
 C     14  13  12     2.612672766620   120.00154137     0.00000000
 C     15  14  13     2.622996619512   120.78107760   359.96699856
 O     16  15  14     2.584967458035   120.53738829   180.03401639
 N     10   9   8     2.579677548834   111.51155410     0.04284204
 C     18  10   9     2.571364293837   107.20164420   359.49337862
 C     19  18  10     2.682376811442   131.47121879   179.62449577
 C     20  19  18     2.542528268006   129.74606867   342.76579050
 C     21  20  19     2.741154305511   116.08234123   188.54364092
 O     22  21  20     2.265974838617   128.51342005   180.29458436
 S     22  21  20     3.396351551689   108.62333489     1.97223769
 C     20  19  18     2.856736429657   114.34933543   165.53029968
 C     25  20  19     2.893903488837   109.55176791   282.77666618
 H      1   2   3     2.055177432284   109.83303183    56.72005929
 H      1   2   3     2.054767423355   109.70085241   297.26828120
 H      1   2   3     2.057539941288   110.69048495   176.87777240
 H      6   4   3     2.033465496807   119.51273715   184.48593776
 H     12  11  10     2.036829003497   117.31009543   359.95503161
 H     13  12  11     2.037861194203   120.14049336   180.03117145
 H     14  13  12     2.039000890326   120.45320297   179.97520363
 H     15  14  13     2.045370115599   120.09688636   179.96181194
 H     17  16  15     1.824981594693   109.27302633   359.70976720
 H     18  10   9     1.905021677692   124.73376694   180.78703762
 H     21  20  19     2.035312721795   125.33200371     5.43848013
 H     26  25  20     2.054707150672   109.57490685   183.68858377
 H     26  25  20     2.055762249426   109.98397958   303.08116325
 H     26  25  20     2.057435880801   110.58307873    63.55196223

---------------------
BASIS SET INFORMATION
---------------------
There are 5 groups of distinct atoms

 Group   1 Type C   : 19s6p3d2f contracted to 5s4p3d2f pattern {88111/3111/111/11}
 Group   2 Type S   : 42s17p3d2f contracted to 6s5p3d2f pattern {131313111/77111/111/11}
 Group   3 Type O   : 19s6p3d2f contracted to 5s4p3d2f pattern {88111/3111/111/11}
 Group   4 Type N   : 19s6p3d2f contracted to 5s4p3d2f pattern {88111/3111/111/11}
 Group   5 Type H   : 5s2p1d contracted to 3s2p1d pattern {311/11/1}

Atom   0C    basis set group =>   1
Atom   1C    basis set group =>   1
Atom   2S    basis set group =>   2
Atom   3C    basis set group =>   1
Atom   4O    basis set group =>   3
Atom   5C    basis set group =>   1
Atom   6C    basis set group =>   1
Atom   7C    basis set group =>   1
Atom   8N    basis set group =>   4
Atom   9C    basis set group =>   1
Atom  10C    basis set group =>   1
Atom  11C    basis set group =>   1
Atom  12C    basis set group =>   1
Atom  13C    basis set group =>   1
Atom  14C    basis set group =>   1
Atom  15C    basis set group =>   1
Atom  16O    basis set group =>   3
Atom  17N    basis set group =>   4
Atom  18C    basis set group =>   1
Atom  19C    basis set group =>   1
Atom  20C    basis set group =>   1
Atom  21C    basis set group =>   1
Atom  22O    basis set group =>   3
Atom  23S    basis set group =>   2
Atom  24C    basis set group =>   1
Atom  25C    basis set group =>   1
Atom  26H    basis set group =>   5
Atom  27H    basis set group =>   5
Atom  28H    basis set group =>   5
Atom  29H    basis set group =>   5
Atom  30H    basis set group =>   5
Atom  31H    basis set group =>   5
Atom  32H    basis set group =>   5
Atom  33H    basis set group =>   5
Atom  34H    basis set group =>   5
Atom  35H    basis set group =>   5
Atom  36H    basis set group =>   5
Atom  37H    basis set group =>   5
Atom  38H    basis set group =>   5
Atom  39H    basis set group =>   5
---------------------------------
AUXILIARY/J BASIS SET INFORMATION
---------------------------------
There are 5 groups of distinct atoms

 Group   1 Type C   : 10s7p5d2f1g contracted to 10s7p5d2f1g pattern {1111111111/1111111/11111/11/1}
 Group   2 Type S   : 13s11p9d3f1g contracted to 13s11p9d3f1g pattern {1111111111111/11111111111/111111111/111/1}
 Group   3 Type O   : 10s7p5d2f1g contracted to 10s7p5d2f1g pattern {1111111111/1111111/11111/11/1}
 Group   4 Type N   : 10s7p5d2f1g contracted to 10s7p5d2f1g pattern {1111111111/1111111/11111/11/1}
 Group   5 Type H   : 4s3p2d1f contracted to 4s3p2d1f pattern {1111/111/11/1}

Atom   0C    basis set group =>   1
Atom   1C    basis set group =>   1
Atom   2S    basis set group =>   2
Atom   3C    basis set group =>   1
Atom   4O    basis set group =>   3
Atom   5C    basis set group =>   1
Atom   6C    basis set group =>   1
Atom   7C    basis set group =>   1
Atom   8N    basis set group =>   4
Atom   9C    basis set group =>   1
Atom  10C    basis set group =>   1
Atom  11C    basis set group =>   1
Atom  12C    basis set group =>   1
Atom  13C    basis set group =>   1
Atom  14C    basis set group =>   1
Atom  15C    basis set group =>   1
Atom  16O    basis set group =>   3
Atom  17N    basis set group =>   4
Atom  18C    basis set group =>   1
Atom  19C    basis set group =>   1
Atom  20C    basis set group =>   1
Atom  21C    basis set group =>   1
Atom  22O    basis set group =>   3
Atom  23S    basis set group =>   2
Atom  24C    basis set group =>   1
Atom  25C    basis set group =>   1
Atom  26H    basis set group =>   5
Atom  27H    basis set group =>   5
Atom  28H    basis set group =>   5
Atom  29H    basis set group =>   5
Atom  30H    basis set group =>   5
Atom  31H    basis set group =>   5
Atom  32H    basis set group =>   5
Atom  33H    basis set group =>   5
Atom  34H    basis set group =>   5
Atom  35H    basis set group =>   5
Atom  36H    basis set group =>   5
Atom  37H    basis set group =>   5
Atom  38H    basis set group =>   5
Atom  39H    basis set group =>   5
---------------------------------
AUXILIARY/C BASIS SET INFORMATION
---------------------------------
There are 5 groups of distinct atoms

 Group   1 Type C   : 9s7p6d4f2g contracted to 9s7p6d4f2g pattern {111111111/1111111/111111/1111/11}
 Group   2 Type S   : 11s9p8d6f3g contracted to 11s9p8d6f3g pattern {11111111111/111111111/11111111/111111/111}
 Group   3 Type O   : 9s7p6d4f2g contracted to 9s7p6d4f2g pattern {111111111/1111111/111111/1111/11}
 Group   4 Type N   : 9s7p6d4f2g contracted to 9s7p6d4f2g pattern {111111111/1111111/111111/1111/11}
 Group   5 Type H   : 4s3p2d1f contracted to 4s3p2d1f pattern {1111/111/11/1}

Atom   0C    basis set group =>   1
Atom   1C    basis set group =>   1
Atom   2S    basis set group =>   2
Atom   3C    basis set group =>   1
Atom   4O    basis set group =>   3
Atom   5C    basis set group =>   1
Atom   6C    basis set group =>   1
Atom   7C    basis set group =>   1
Atom   8N    basis set group =>   4
Atom   9C    basis set group =>   1
Atom  10C    basis set group =>   1
Atom  11C    basis set group =>   1
Atom  12C    basis set group =>   1
Atom  13C    basis set group =>   1
Atom  14C    basis set group =>   1
Atom  15C    basis set group =>   1
Atom  16O    basis set group =>   3
Atom  17N    basis set group =>   4
Atom  18C    basis set group =>   1
Atom  19C    basis set group =>   1
Atom  20C    basis set group =>   1
Atom  21C    basis set group =>   1
Atom  22O    basis set group =>   3
Atom  23S    basis set group =>   2
Atom  24C    basis set group =>   1
Atom  25C    basis set group =>   1
Atom  26H    basis set group =>   5
Atom  27H    basis set group =>   5
Atom  28H    basis set group =>   5
Atom  29H    basis set group =>   5
Atom  30H    basis set group =>   5
Atom  31H    basis set group =>   5
Atom  32H    basis set group =>   5
Atom  33H    basis set group =>   5
Atom  34H    basis set group =>   5
Atom  35H    basis set group =>   5
Atom  36H    basis set group =>   5
Atom  37H    basis set group =>   5
Atom  38H    basis set group =>   5
Atom  39H    basis set group =>   5


           ************************************************************
           *        Program running with 4 parallel MPI-processes     *
           *              working on a common directory               *
           ************************************************************
------------------------------------------------------------------------------
                           ORCA GTO INTEGRAL CALCULATION
                           -- RI-GTO INTEGRALS CHOSEN --
------------------------------------------------------------------------------
------------------------------------------------------------------------------
                   ___                                                        
                  /   \      - P O W E R E D   B Y -                         
                 /     \                                                     
                 |  |  |   _    _      __       _____    __    __             
                 |  |  |  | |  | |    /  \     |  _  \  |  |  /  |          
                  \  \/   | |  | |   /    \    | | | |  |  | /  /          
                 / \  \   | |__| |  /  /\  \   | |_| |  |  |/  /          
                |  |  |   |  __  | /  /__\  \  |    /   |      \           
                |  |  |   | |  | | |   __   |  |    \   |  |\   \          
                \     /   | |  | | |  |  |  |  | |\  \  |  | \   \       
                 \___/    |_|  |_| |__|  |__|  |_| \__\ |__|  \__/        
                                                                              
                      - O R C A' S   B I G   F R I E N D -                    
                                      &                                       
                       - I N T E G R A L  F E E D E R -                       
                                                                              
 v1 FN, 2020, v2 2021                                                         
------------------------------------------------------------------------------


Reading SHARK input file optpbed3-b2plyp-test-308.SHARKINP.tmp ... ok
----------------------
SHARK INTEGRAL PACKAGE
----------------------

Number of atoms                             ...     40
Number of basis functions                   ...   1594
Number of shells                            ...    626
Maximum angular momentum                    ...      3
Integral batch strategy                     ... SHARK/LIBINT Hybrid
RI-J (if used) integral strategy            ... SPLIT-RIJ (Revised 2003 algorithm where possible)
Printlevel                                  ...      1
Contraction scheme used                     ... PARTIAL GENERAL contraction
Coulomb Range Separation                    ... NOT USED
Exchange Range Separation                   ... NOT USED
Finite Nucleus Model                        ... NOT USED
Auxiliary Coulomb fitting basis             ... AVAILABLE
   # of basis functions in Aux-J            ...   2558
   # of shells in Aux-J                     ...    814
   Maximum angular momentum in Aux-J        ...      4
Auxiliary J/K fitting basis                 ... NOT available
Auxiliary Correlation fitting basis         ... AVAILABLE
   # of basis functions in Aux-C            ...   3258
   # of shells in Aux-C                     ...    886
   Maximum angular momentum in Aux-C        ...      4
Auxiliary 'external' fitting basis          ... NOT available
Integral threshold                          ...     2.500000e-11
Primitive cut-off                           ...     2.500000e-12
Primitive pair pre-selection threshold      ...     2.500000e-12

Calculating pre-screening integrals         ... done (  0.3 sec) Dimension = 626
Calculating pre-screening integrals (ORCA)  ... done (  1.0 sec) Dimension = 452
Organizing shell pair data                  ... done (  2.5 sec)
Shell pair information
Total number of shell pairs                 ...    196251
Shell pairs after pre-screening             ...    118638
Total number of primitive shell pairs       ...    246867
Primitive shell pairs kept                  ...    135925
          la=0 lb=0:  26103 shell pairs
          la=1 lb=0:  30787 shell pairs
          la=1 lb=1:   7961 shell pairs
          la=2 lb=0:  19492 shell pairs
          la=2 lb=1:  10051 shell pairs
          la=2 lb=2:   3265 shell pairs
          la=3 lb=0:  10709 shell pairs
          la=3 lb=1:   5630 shell pairs
          la=3 lb=2:   3605 shell pairs
          la=3 lb=3:   1035 shell pairs

Calculating one electron integrals          ... done (  0.4 sec)
Calculating RI/J V-Matrix + Cholesky decomp.... done (  0.7 sec)
Calculating RI/C V-Matrix + Cholesky decomp.... done (  0.9 sec)
Calculating Nuclear repulsion               ... done (  0.0 sec) ENN=   2597.619607970963 Eh

SHARK setup successfully completed in   8.3 seconds

Maximum memory used throughout the entire GTOINT-calculation: 185.7 MB


           ************************************************************
           *        Program running with 4 parallel MPI-processes     *
           *              working on a common directory               *
           ************************************************************
-------------------------------------------------------------------------------
                                 ORCA SCF
-------------------------------------------------------------------------------

------------
SCF SETTINGS
------------
Hamiltonian:
 Density Functional     Method          .... DFT(GTOs)
 Exchange Functional    Exchange        .... PBE
   PBE kappa parameter   XKappa         ....  0.804000
   PBE mue parameter    XMuePBE         ....  0.219520
 Correlation Functional Correlation     .... PBE
   PBE beta parameter  CBetaPBE         ....  0.066725
 LDA part of GGA corr.  LDAOpt          .... PW91-LDA
 Gradients option       PostSCFGGA      .... off
 Hybrid DFT is turned on
   Fraction HF Exchange ScalHFX         ....  0.250000
   Scaling of DF-GGA-X  ScalDFX         ....  0.750000
   Scaling of DF-GGA-C  ScalDFC         ....  1.000000
   Scaling of DF-LDA-C  ScalLDAC        ....  1.000000
   Perturbative correction              ....  0.000000
   Density functional embedding theory  .... OFF
   NL short-range parameter             ....  6.900000
 RI-approximation to the Coulomb term is turned on
   Number of AuxJ basis functions       .... 2558
   RIJ-COSX (HFX calculated with COS-X)).... on


General Settings:
 Integral files         IntName         .... optpbed3-b2plyp-test-308
 Hartree-Fock type      HFTyp           .... RHF
 Total Charge           Charge          ....    0
 Multiplicity           Mult            ....    1
 Number of Electrons    NEL             ....  198
 Basis Dimension        Dim             .... 1400
 Nuclear Repulsion      ENuc            ....   2597.6196079710 Eh

Convergence Acceleration:
 DIIS                   CNVDIIS         .... on
   Start iteration      DIISMaxIt       ....    12
   Startup error        DIISStart       ....  0.200000
   # of expansion vecs  DIISMaxEq       ....     5
   Bias factor          DIISBfac        ....   1.050
   Max. coefficient     DIISMaxC        ....  10.000
 Trust-Rad. Augm. Hess. CNVTRAH         .... auto
   Auto Start mean grad. ratio tolernc. ....  1.125000
   Auto Start start iteration           ....    20
   Auto Start num. interpolation iter.  ....    10
   Max. Number of Micro iterations      ....    16
   Max. Number of Macro iterations      .... Maxiter - #DIIS iter
   Number of Davidson start vectors     ....     2
   Converg. threshold I  (grad. norm)   ....   1.000e-05
   Converg. threshold II (energy diff.) ....   1.000e-08
   Grad. Scal. Fac. for Micro threshold ....   0.100
   Minimum threshold for Micro iter.    ....   0.010
   NR start threshold (gradient norm)   ....   0.001
   Initial trust radius                 ....   0.400
   Minimum AH scaling param. (alpha)    ....   1.000
   Maximum AH scaling param. (alpha)    .... 1000.000
   Orbital update algorithm             .... Taylor
   White noise on init. David. guess    .... on
   Maximum white noise                  ....   0.010
   Quad. conv. algorithm                .... NR
 SOSCF                  CNVSOSCF        .... on
   Start iteration      SOSCFMaxIt      ....   150
   Startup grad/error   SOSCFStart      ....  0.003300
 Level Shifting         CNVShift        .... on
   Level shift para.    LevelShift      ....    0.2500
   Turn off err/grad.   ShiftErr        ....    0.0010
 Zerner damping         CNVZerner       .... off
 Static damping         CNVDamp         .... on
   Fraction old density DampFac         ....    0.7000
   Max. Damping (<1)    DampMax         ....    0.9800
   Min. Damping (>=0)   DampMin         ....    0.0000
   Turn off err/grad.   DampErr         ....    0.1000
 Fernandez-Rico         CNVRico         .... off

SCF Procedure:
 Maximum # iterations   MaxIter         ....   125
 SCF integral mode      SCFMode         .... Direct
   Integral package                     .... SHARK and LIBINT hybrid scheme
 Reset frequency        DirectResetFreq ....    20
 Integral Threshold     Thresh          ....  2.500e-11 Eh
 Primitive CutOff       TCut            ....  2.500e-12 Eh

Convergence Tolerance:
 Convergence Check Mode ConvCheckMode   .... Total+1el-Energy
 Convergence forced     ConvForced      .... 0
 Energy Change          TolE            ....  1.000e-08 Eh
 1-El. energy change                    ....  1.000e-05 Eh
 Orbital Gradient       TolG            ....  1.000e-05
 Orbital Rotation angle TolX            ....  1.000e-05
 DIIS Error             TolErr          ....  5.000e-07


Diagonalization of the overlap matrix:
Smallest eigenvalue                        ... 1.847e-07
Time for diagonalization                   ...    0.514 sec
Threshold for overlap eigenvalues          ... 1.000e-08
Number of eigenvalues below threshold      ... 0
Time for construction of square roots      ...    0.363 sec
Total time needed                          ...    0.889 sec

Time for model grid setup =    1.619 sec

------------------------------
INITIAL GUESS: MODEL POTENTIAL
------------------------------
Loading Hartree-Fock densities                     ... done
Calculating cut-offs                               ... done
Initializing the effective Hamiltonian             ... done
Setting up the integral package (SHARK)            ... done
Starting the Coulomb interaction                   ... done (   5.6 sec)
Reading the grid                                   ... done
Mapping shells                                     ... done
Starting the XC term evaluation                    ... done (   4.5 sec)
  promolecular density results
     # of electrons  =    197.986408812
     EX              =   -188.840166649
     EC              =     -6.917685006
     EX+EC           =   -195.757851655
Transforming the Hamiltonian                       ... done (   0.3 sec)
Diagonalizing the Hamiltonian                      ... done (   0.5 sec)
Back transforming the eigenvectors                 ... done (   0.1 sec)
Now organizing SCF variables                       ... done
                      ------------------
                      INITIAL GUESS DONE (  12.8 sec)
                      ------------------
-------------------
DFT GRID GENERATION
-------------------

General Integration Accuracy     IntAcc      ... 4.388
Radial Grid Type                 RadialGrid  ... OptM3 with GC (2021)
Angular Grid (max. ang.)         AngularGrid ... 4 (Lebedev-302)
Angular grid pruning method      GridPruning ... 4 (adaptive)
Weight generation scheme         WeightScheme... Becke
Basis function cutoff            BFCut       ... 1.0000e-11
Integration weight cutoff        WCut        ... 1.0000e-14
Angular grids for H and He will be reduced by one unit
Partially contracted basis set               ... off
Rotationally invariant grid construction     ... off

Total number of grid points                  ...   207682
Total number of batches                      ...     3272
Average number of points per batch           ...       63
Average number of grid points per atom       ...     5192
Time for grid setup =    5.113 sec

--------------------
COSX GRID GENERATION
--------------------

GRIDX 1
-------
General Integration Accuracy     IntAcc      ... 3.816
Radial Grid Type                 RadialGrid  ... OptM3 with GC (2021)
Angular Grid (max. ang.)         AngularGrid ... 1 (Lebedev-50)
Angular grid pruning method      GridPruning ... 4 (adaptive)
Weight generation scheme         WeightScheme... Becke
Basis function cutoff            BFCut       ... 1.0000e-11
Integration weight cutoff        WCut        ... 1.0000e-14
Angular grids for H and He will be reduced by one unit
Partially contracted basis set               ... on
Rotationally invariant grid construction     ... off

Total number of grid points                  ...    26185
Total number of batches                      ...      432
Average number of points per batch           ...       60
Average number of grid points per atom       ...      655
UseSFitting                                  ... on

GRIDX 2
-------
General Integration Accuracy     IntAcc      ... 4.020
Radial Grid Type                 RadialGrid  ... OptM3 with GC (2021)
Angular Grid (max. ang.)         AngularGrid ... 2 (Lebedev-110)
Angular grid pruning method      GridPruning ... 4 (adaptive)
Weight generation scheme         WeightScheme... Becke
Basis function cutoff            BFCut       ... 1.0000e-11
Integration weight cutoff        WCut        ... 1.0000e-14
Angular grids for H and He will be reduced by one unit
Partially contracted basis set               ... on
Rotationally invariant grid construction     ... off

Total number of grid points                  ...    62151
Total number of batches                      ...      993
Average number of points per batch           ...       62
Average number of grid points per atom       ...     1554
UseSFitting                                  ... on

GRIDX 3
-------
General Integration Accuracy     IntAcc      ... 4.338
Radial Grid Type                 RadialGrid  ... OptM3 with GC (2021)
Angular Grid (max. ang.)         AngularGrid ... 3 (Lebedev-194)
Angular grid pruning method      GridPruning ... 4 (adaptive)
Weight generation scheme         WeightScheme... Becke
Basis function cutoff            BFCut       ... 1.0000e-11
Integration weight cutoff        WCut        ... 1.0000e-14
Angular grids for H and He will be reduced by one unit
Partially contracted basis set               ... on
Rotationally invariant grid construction     ... off

Total number of grid points                  ...   135395
Total number of batches                      ...     2137
Average number of points per batch           ...       63
Average number of grid points per atom       ...     3385
UseSFitting                                  ... on

Time for X-Grid setup             =   13.598 sec


--------------------
CPCM SOLVATION MODEL
--------------------
CPCM parameters:
  Epsilon                                         ...      35.6880
  Refrac                                          ...       1.3442
  Rsolv                                           ...       1.3000
  Surface type                                    ... GAUSSIAN VDW
  Epsilon function type                           ...         CPCM
Solvent:                                     ... ACETONITRILE
SMD-CDS solvent descriptors:
  Soln                                       ...    1.3442
  Soln25                                     ...    1.3416
  Sola                                       ...    0.0700
  Solb                                       ...    0.3200
  Solg                                       ...   41.2500
  Solc                                       ...    0.0000
  Solh                                       ...    0.0000
Radii:
 Radius for C  used is    3.4960 Bohr (=   1.8500 Ang.)
 Radius for S  used is    4.7054 Bohr (=   2.4900 Ang.)
 Radius for O  used is    4.0969 Bohr (=   2.1680 Ang.)
 Radius for N  used is    3.5716 Bohr (=   1.8900 Ang.)
 Radius for H  used is    2.2677 Bohr (=   1.2000 Ang.)
Calculating surface                               ...        done! (  0.0s)
GEPOL surface points                              ...         2018
GEPOL Volume                                      ...    2816.0465
GEPOL Surface-area                                ...    1374.3165
Calculating surface distance matrix               ...        done! (  0.1s)
Performing Cholesky decomposition & store         ...        done! (  0.3s)
Overall time for CPCM initialization              ...                 0.3s
 re-compute Schwartz prescreening matrix in partically contracted basis (1) ...done (   0.326 sec)
--------------
SCF ITERATIONS
--------------
ITER       Energy         Delta-E        Max-DP      RMS-DP      [F,P]     Damp
               ***  Starting incremental Fock matrix formation  ***
  0  -1862.4146255171   0.000000000000 0.65250994  0.00210081  0.2953231 0.7000
  1  -1862.6835735865  -0.268948069423 0.48272394  0.00157194  0.1128771 0.7000
                               ***Turning on DIIS***
  2  -1862.7892359862  -0.105662399708 0.73541445  0.00321228  0.0404263 0.0000
  3  -1862.9594412851  -0.170205298921 0.43836912  0.00091641  0.0573618 0.0000
  4  -1862.9951211276  -0.035679842443 0.13827106  0.00028891  0.0194801 0.0000
  5  -1862.9973900761  -0.002268948575 0.08498999  0.00021250  0.0101991 0.0000
                      *** Initiating the SOSCF procedure ***
                           *** Shutting down DIIS ***
                      *** Re-Reading the Fockian *** 
                      *** Removing any level shift *** 
ITER      Energy       Delta-E        Grad      Rot      Max-DP    RMS-DP
  6  -1862.99767275  -0.0002826696  0.000618  0.000618  0.070482  0.000188
               *** Restarting incremental Fock matrix formation ***
  7  -1862.99771899  -0.0000462398  0.000440  0.002481  0.190992  0.000690
  8  -1862.99772750  -0.0000085171  0.000154  0.001521  0.140501  0.000373
  9  -1862.99772892  -0.0000014190  0.000127  0.000751  0.126376  0.000378
 10  -1862.99773086  -0.0000019358  0.000045  0.000169  0.050663  0.000186
 11  -1862.99773085   0.0000000056  0.000048  0.000128  0.073233  0.000191
 12  -1862.99773108  -0.0000002268  0.000009  0.000061  0.307687  0.000510
 13  -1862.99773108   0.0000000024  0.000008  0.000034  0.054634  0.000164
 14  -1862.99773114  -0.0000000656  0.000004  0.000039  0.170321  0.000520
 15  -1862.99773111   0.0000000273  0.000006  0.000020  0.206775  0.000340
 16  -1862.99773115  -0.0000000370  0.000005  0.000052  0.807886  0.001201
 17  -1862.99773107   0.0000000814  0.000010  0.000029  0.648734  0.000921
 18  -1862.99773118  -0.0000001060  0.000004  0.000024  0.169596  0.000422
 19  -1862.99773118  -0.0000000085  0.000005  0.000005  0.182321  0.000449
 20  -1862.99773119  -0.0000000072  0.000003  0.000014  0.149555  0.000231

 WARNING: the maximum gradient error descreased on average only by a factor   1.1
          during the last 20 iterations

                      *** Initiating the TRAH-SCF procedure ***

              ***Rediagonalizing the Fockian in SOSCF/NRSCF***

TRAH GRIDX
----------

General Integration Accuracy     IntAcc      ... 3.067
Radial Grid Type                 RadialGrid  ... OptM3 with GC (2021)
Angular Grid (max. ang.)         AngularGrid ... 1 (Lebedev-50)
Angular grid pruning method      GridPruning ... 4 (adaptive)
Weight generation scheme         WeightScheme... Becke
Basis function cutoff            BFCut       ... 1.0000e-11
Integration weight cutoff        WCut        ... 1.0000e-14
[...]
   Maximum residual norm  :     0.000014263489
   Rebuilding the expansion space

                       ****Iteration    5****
              <<< Entering MO-section for Build Sigma(Double) >>>
   Forming the XC and CPCM contribution:
   Time for densities:            0.853
   Time for XC-Integration:      75.829
   Time for LR-CPCM terms:       30.493
   Time for Sigma-Completion:     0.714
   Time for building 20 sigma-vectors
   Data Preparation Phase         ...     0.03 sec
   Transformed RI Coulomb         ...     2.42 sec
   Transformed RI-exchange        ...  2609.86 sec
   (ab|v) reading and digestion   ...  2481.06 sec
   Final sigma-completion         ...     0.03 sec
   Done building sigma-vectors             Size of expansion space: 20
   Lowest Energy          :     0.133199151634
   Maximum Energy change  :     0.000017612679 (vector 7)
   Maximum residual norm  :     0.000003560239

                       ****Iteration    6****
              <<< Entering MO-section for Build Sigma(Double) >>>
   Forming the XC and CPCM contribution:
   Time for densities:            0.365
   Time for XC-Integration:      39.612
   Time for LR-CPCM terms:       19.668
   Time for Sigma-Completion:     0.323
   Time for building 10 sigma-vectors
   Data Preparation Phase         ...     0.02 sec
   Transformed RI Coulomb         ...     1.85 sec
   Transformed RI-exchange        ...  1314.83 sec
   (ab|v) reading and digestion   ...  1255.33 sec
   Final sigma-completion         ...     0.01 sec
   Done building sigma-vectors             Size of expansion space: 30
   Lowest Energy          :     0.133199114232
   Maximum Energy change  :     0.000010377344 (vector 7)
   Maximum residual norm  :     0.000002379321

                       ****Iteration    7****
              <<< Entering MO-section for Build Sigma(Double) >>>
   Forming the XC and CPCM contribution:
   Time for densities:            0.394
   Time for XC-Integration:      38.326
   Time for LR-CPCM terms:       19.623
   Time for Sigma-Completion:     0.350
   Time for building 10 sigma-vectors
   Data Preparation Phase         ...     0.02 sec
   Transformed RI Coulomb         ...     1.85 sec
   Transformed RI-exchange        ...  1295.78 sec
   (ab|v) reading and digestion   ...  1231.81 sec
   Final sigma-completion         ...     0.01 sec
   Done building sigma-vectors             Size of expansion space: 40
   Lowest Energy          :     0.133199110403
   Maximum Energy change  :     0.000006858696 (vector 7)
   Maximum residual norm  :     0.000001672061

                       ****Iteration    8****
              <<< Entering MO-section for Build Sigma(Double) >>>
   Forming the XC and CPCM contribution:
   Time for densities:            0.439
   Time for XC-Integration:      40.263
   Time for LR-CPCM terms:       19.774
   Time for Sigma-Completion:     0.317
   Time for building 10 sigma-vectors
   Data Preparation Phase         ...     0.01 sec
   Transformed RI Coulomb         ...     1.74 sec
   Transformed RI-exchange        ...  1310.22 sec
   (ab|v) reading and digestion   ...  1245.86 sec
   Final sigma-completion         ...     0.01 sec
   Done building sigma-vectors             Size of expansion space: 50
   Lowest Energy          :     0.133199110057
   Maximum Energy change  :     0.000004886187 (vector 7)
   Maximum residual norm  :     0.000000726901

      *** CONVERGENCE OF RESIDUAL NORM REACHED ***

Storing the converged CI vectors               ... optpbed3-b2plyp-test-308_job2.cis1

                 *** DAVIDSON DONE ***

Total time for solving the CIS problem: 12867.553sec

------------------
DOUBLES CORRECTION (Double precision version)
------------------

The (D) correction will be scaled by  0.2700
Doing v(i,a)*T(i,a) terms (RI)                    ... ok
Doing u(i,j,a,b) terms for state   0              ... ok
Doing u(i,j,a,b) terms for state   1              ... ok
Doing u(i,j,a,b) terms for state   2              ... ok
Doing u(i,j,a,b) terms for state   3              ... ok
Doing u(i,j,a,b) terms for state   4              ... ok
Doing u(i,j,a,b) terms for state   5              ... ok
Doing u(i,j,a,b) terms for state   6              ... ok
Doing u(i,j,a,b) terms for state   7              ... ok
Doing u(i,j,a,b) terms for state   8              ... ok
Doing u(i,j,a,b) terms for state   9              ... ok

Contributions to the (D) correction(s) (in eV)

STATE  Final   Init.   Total   v(ext)   v(int)  v(3)    u
       omega   omega     (D)                             
-----------------------------------------------------------------------------
   0   3.277   3.625  -0.348   0.707   1.030  -0.059  -2.025
   1   3.855   4.318  -0.462   0.618   1.039  -0.038  -2.081
   2   3.936   4.589  -0.653   0.720   0.812  -0.031  -2.154
   3   3.999   4.620  -0.621   0.711   0.814  -0.031  -2.114
   4   4.201   4.982  -0.781   0.668   0.865  -0.026  -2.289
   5   4.158   5.032  -0.874   0.681   0.742  -0.030  -2.266
   6   4.309   5.055  -0.746   0.650   0.818  -0.034  -2.180
   7   4.431   5.347  -0.916   0.680   0.888  -0.019  -2.464
   8   5.033   5.450  -0.417   0.272   1.020  -0.010  -1.699
   9   4.867   5.458  -0.592   0.447   0.992  -0.016  -2.014

(D)-timings
 V(i,a)*T(i,a) terms           ...  2806.482 sec
 U(i,j,a,b) 3-internal         ...    38.358 sec
 U(i,j,a,b) 3-external         ...  1000.099 sec
 U(i,j,a,b) pair terms         ...   959.275 sec
 Total measured time           ...  8940.326 sec

 Time for (ab|v) I/O           ...   247.858 sec


------------------------------------
TD-DFT/TDA EXCITED STATES (SINGLETS)
------------------------------------

the weight of the individual excitations are printed if larger than 1.0e-02

STATE  1:  E=   0.120419 au      3.277 eV    26428.9 cm**-1 <S**2> =   0.000000
    96a ->  99a  :     0.012913 (c=  0.11363525)
    97a ->  99a  :     0.013407 (c= -0.11579075)
    98a ->  99a  :     0.916356 (c=  0.95726474)

STATE  2:  E=   0.141681 au      3.855 eV    31095.4 cm**-1 <S**2> =   0.000000
    96a -> 102a  :     0.011202 (c= -0.10583781)
    98a -> 100a  :     0.923312 (c= -0.96089119)

STATE  3:  E=   0.144636 au      3.936 eV    31743.9 cm**-1 <S**2> =   0.000000
    91a ->  99a  :     0.097410 (c= -0.31210636)
    91a -> 100a  :     0.088422 (c= -0.29735789)
    91a -> 102a  :     0.068698 (c= -0.26210284)
    92a ->  99a  :     0.528726 (c= -0.72713556)
    92a -> 100a  :     0.011293 (c= -0.10626745)
    92a -> 102a  :     0.026721 (c= -0.16346436)
    92a -> 126a  :     0.020877 (c=  0.14448864)
    94a ->  99a  :     0.021144 (c= -0.14540983)

STATE  4:  E=   0.146965 au      3.999 eV    32255.2 cm**-1 <S**2> =   0.000000
    91a ->  99a  :     0.395271 (c= -0.62870583)
    91a -> 100a  :     0.067293 (c=  0.25940971)
    91a -> 102a  :     0.016008 (c=  0.12652326)
    91a -> 126a  :     0.014315 (c=  0.11964610)
    92a ->  99a  :     0.048123 (c=  0.21936914)
    92a -> 100a  :     0.151758 (c= -0.38956092)
    92a -> 102a  :     0.073326 (c= -0.27078804)
    93a ->  99a  :     0.076146 (c= -0.27594589)
    93a -> 100a  :     0.026020 (c=  0.16130632)

STATE  5:  E=   0.154381 au      4.201 eV    33882.8 cm**-1 <S**2> =   0.000000
    94a ->  99a  :     0.021557 (c= -0.14682283)
    95a ->  99a  :     0.048561 (c=  0.22036658)
    95a -> 100a  :     0.012184 (c=  0.11038283)
    96a ->  99a  :     0.193721 (c= -0.44013754)
    96a -> 109a  :     0.010972 (c=  0.10474732)
    97a ->  99a  :     0.312053 (c=  0.55861662)
    97a -> 100a  :     0.183915 (c=  0.42885303)
    97a -> 102a  :     0.038071 (c= -0.19511670)
    98a ->  99a  :     0.015154 (c=  0.12310149)
    98a -> 100a  :     0.015592 (c= -0.12486780)
    98a -> 102a  :     0.035420 (c= -0.18820199)
    98a -> 109a  :     0.028943 (c= -0.17012650)

STATE  6:  E=   0.152815 au      4.158 eV    33539.0 cm**-1 <S**2> =   0.000000
    93a ->  99a  :     0.010014 (c=  0.10006999)
    94a -> 100a  :     0.018934 (c=  0.13760212)
    95a ->  99a  :     0.409325 (c= -0.63978521)
    96a ->  99a  :     0.313114 (c= -0.55956631)
    96a -> 100a  :     0.040534 (c=  0.20133139)
    96a -> 102a  :     0.015058 (c=  0.12271262)
    97a -> 100a  :     0.073017 (c= -0.27021644)
    98a -> 102a  :     0.017447 (c=  0.13208798)
    98a -> 109a  :     0.011929 (c=  0.10921933)

STATE  7:  E=   0.158351 au      4.309 eV    34754.0 cm**-1 <S**2> =   0.000000
    94a ->  99a  :     0.045412 (c= -0.21310092)
    95a ->  99a  :     0.387309 (c=  0.62234169)
    95a -> 100a  :     0.015601 (c=  0.12490593)
    96a ->  99a  :     0.122543 (c= -0.35006141)
    96a -> 109a  :     0.012338 (c= -0.11107470)
    97a -> 100a  :     0.189222 (c= -0.43499629)
    97a -> 102a  :     0.049256 (c=  0.22193649)
    98a -> 102a  :     0.028379 (c=  0.16846088)
    98a -> 109a  :     0.048779 (c=  0.22085880)

STATE  8:  E=   0.162851 au      4.431 eV    35741.6 cm**-1 <S**2> =   0.000000
    92a ->  99a  :     0.011462 (c=  0.10706261)
    94a ->  99a  :     0.262616 (c= -0.51246047)
    95a -> 100a  :     0.023511 (c=  0.15333384)
    96a ->  99a  :     0.043061 (c= -0.20751154)
    97a ->  99a  :     0.472569 (c= -0.68743684)
    97a -> 100a  :     0.057107 (c=  0.23897043)
    97a -> 102a  :     0.012000 (c= -0.10954565)
    98a -> 102a  :     0.021208 (c= -0.14562992)
    98a -> 109a  :     0.015248 (c= -0.12348239)

STATE  9:  E=   0.184955 au      5.033 eV    40592.9 cm**-1 <S**2> =   0.000000
    91a ->  99a  :     0.010723 (c= -0.10355013)
    93a ->  99a  :     0.066492 (c=  0.25786049)
    94a ->  99a  :     0.107054 (c=  0.32719064)
    96a ->  99a  :     0.020732 (c= -0.14398727)
    97a ->  99a  :     0.021104 (c= -0.14527195)
    98a -> 101a  :     0.536480 (c= -0.73244778)
    98a -> 102a  :     0.081895 (c= -0.28617318)
    98a -> 105a  :     0.013863 (c= -0.11774140)
    98a -> 106a  :     0.013807 (c=  0.11750474)
    98a -> 110a  :     0.014961 (c=  0.12231548)

STATE 10:  E=   0.178848 au      4.867 eV    39252.6 cm**-1 <S**2> =   0.000000
    91a ->  99a  :     0.017570 (c=  0.13255218)
    93a ->  99a  :     0.113580 (c= -0.33701690)
    94a ->  99a  :     0.184359 (c= -0.42936990)
    96a ->  99a  :     0.036014 (c=  0.18977258)
    97a ->  99a  :     0.074444 (c=  0.27284375)
    98a -> 101a  :     0.283719 (c= -0.53265264)
    98a -> 102a  :     0.155927 (c=  0.39487576)
    98a -> 106a  :     0.031335 (c=  0.17701600)


-----------------------------
TD-DFT/TDA-EXCITATION SPECTRA
-----------------------------

Center of mass = ( -1.3111,  0.0949, -0.0142)
Calculating the Dipole integrals                  ... done
Transforming integrals                            ... done
Calculating the Linear Momentum integrals         ... done
Transforming integrals                            ... done
Calculating angular momentum integrals            ... done
Transforming integrals                            ... done

-----------------------------------------------------------------------------
         ABSORPTION SPECTRUM VIA TRANSITION ELECTRIC DIPOLE MOMENTS
-----------------------------------------------------------------------------
State   Energy    Wavelength  fosc         T2        TX        TY        TZ  
        (cm-1)      (nm)                 (au**2)    (au)      (au)      (au) 
-----------------------------------------------------------------------------
   1   26428.9    378.4   0.494217655   6.15623   1.07598   2.17479   0.51843
   2   31095.4    321.6   1.053131738  11.14966  -3.28745   0.53954  -0.22634
   3   31743.9    315.0   0.002450908   0.02542  -0.12761  -0.07575   0.05826
   4   32255.2    310.0   0.006075520   0.06201  -0.23075   0.07397  -0.05737
   5   33882.8    295.1   0.008282120   0.08047   0.07321  -0.27320   0.02181
   6   33539.0    298.2   0.057721012   0.56658   0.73913   0.07426   0.12142
   7   34754.0    287.7   0.047335224   0.44839   0.26434   0.58045   0.20394
   8   35741.6    279.8   0.117352758   1.08092  -0.28586   0.96028   0.27761
   9   40592.9    246.3   0.066864788   0.54228   0.71222  -0.17401  -0.06883
  10   39252.6    254.8   0.120787806   1.01305  -0.93390   0.37325  -0.03956

-----------------------------------------------------------------------------
         ABSORPTION SPECTRUM VIA TRANSITION VELOCITY DIPOLE MOMENTS
-----------------------------------------------------------------------------
State   Energy    Wavelength   fosc        P2         PX        PY        PZ  
        (cm-1)      (nm)                 (au**2)     (au)      (au)      (au) 
-----------------------------------------------------------------------------
   1   26428.9    378.4   0.042757684   0.00772  -0.08664  -0.01462  -0.00180
   2   31095.4    321.6   0.626305854   0.13310   0.36261  -0.02287   0.03311
   3   31743.9    315.0   0.001883088   0.00041   0.01486   0.01014  -0.00920
   4   32255.2    310.0   0.003971851   0.00088   0.02821  -0.00628   0.00636
   5   33882.8    295.1   0.002617170   0.00061  -0.00877   0.02236  -0.00538
   6   33539.0    298.2   0.003842804   0.00088  -0.02398   0.01700  -0.00410
   7   34754.0    287.7   0.030378958   0.00722  -0.08363   0.00373  -0.01442
   8   35741.6    279.8   0.028844561   0.00705   0.05046  -0.06642  -0.00939
   9   40592.9    246.3   0.041499670   0.01151  -0.10502   0.01483   0.01626
  10   39252.6    254.8   0.072483363   0.01945   0.13313  -0.03445   0.02312

-------------------------------------------------------------------
                             CD SPECTRUM
-------------------------------------------------------------------
State  Energy     Wavelength     R         MX        MY        MZ   
       (cm-1)       (nm)     (1e40*cgs)   (au)      (au)      (au)  
-------------------------------------------------------------------
   1   26428.9    378.4    -21.68407  -0.07406  -0.14665   0.68016
   2   31095.4    321.6     22.71397  -0.03274  -0.02920   0.19300
   3   31743.9    315.0    -19.41711   0.12847   0.45413   0.16493
   4   32255.2    310.0    -35.15156   0.25596  -0.23456  -0.03229
   5   33882.8    295.1    -16.03915   0.05041   0.10387  -0.42806
   6   33539.0    298.2     11.69800   0.04539   0.03270  -0.09194
   7   34754.0    287.7      0.43795  -0.02185   0.01462  -0.00874
   8   35741.6    279.8      5.42029  -0.01722  -0.03495   0.14458
   9   40592.9    246.3      3.43074   0.05047   0.15622   0.02153
  10   39252.6    254.8     12.89426   0.00091   0.08969   0.13348

-------------------------------------------------------------------
         CD SPECTRUM VIA TRANSITION VELOCITY DIPOLE MOMENTS        
-------------------------------------------------------------------
State  Energy     Wavelength     R         MX        MY        MZ   
       (cm-1)       (nm)     (1e40*cgs)   (au)      (au)      (au)  
-------------------------------------------------------------------
   1   26428.9    378.4     28.70988  -0.07406  -0.14665   0.68016
   2   31095.4    321.6    -16.00947  -0.03274  -0.02920   0.19300
   3   31743.9    315.0     16.28955   0.12847   0.45413   0.16493
   4   32255.2    310.0     27.22882   0.25596  -0.23456  -0.03229
   5   33882.8    295.1     12.77838   0.05041   0.10387  -0.42806
   6   33539.0    298.2     -0.47942   0.04539   0.03270  -0.09194
   7   34754.0    287.7      5.97820  -0.02185   0.01462  -0.00874
   8   35741.6    279.8      0.27359  -0.01722  -0.03495   0.14458
   9   40592.9    246.3     -6.71113   0.05047   0.15622   0.02153
  10   39252.6    254.8      0.30722   0.00091   0.08969   0.13348

Total run time:    21822.248 sec

           *** ORCA-CIS/TD-DFT FINISHED WITHOUT ERROR ***

Maximum memory used throughout the entire CIS-calculation: 2717.0 MB

-----------------------
CIS/TD-DFT TOTAL ENERGY
-----------------------

    E(SCF)  =  -1861.926741180 Eh
    DE(CIS) =      0.120418837 Eh (Root  1)
    ----------------------------- ---------
    E(tot)  =  -1861.806322342 Eh



-------------------------------------------------------------------------------
                          DFT DISPERSION CORRECTION                            
                                                                               
                              DFTD3 V3.1  Rev 1                                
                          USING Becke-Johnson damping                          
-------------------------------------------------------------------------------
The B2PLYP functional is recognized
Active option DFTDOPT                   ...         4   

molecular C6(AA) [au] = 24310.826073 


            DFT-D V3
 parameters
 s6 scaling factor         :     0.6400 
 a1 scaling factor         :     0.3065 
 s8 scaling factor         :     0.9147 
 a2 scaling factor         :     5.0570 
 ad hoc parameters k1-k3   :    16.0000     1.3333    -4.0000 

 Edisp/kcal,au: -33.829687249718  -0.053911032485 
 E6   /kcal   : -18.358835172 
 E8   /kcal   : -15.470852078 
 % E8         :  45.731584698 

-------------------------   ----------------
Dispersion correction           -0.053911032
-------------------------   ----------------


-------------------------   --------------------
FINAL SINGLE POINT ENERGY     -1861.860233374938
-------------------------   --------------------


                            ***************************************
                            *     ORCA property calculations      *
                            ***************************************


  WARNING: The energy has been calculated at the MP2 level but the densities
           used in the property calculations are still SCF densities
           MP2 response densities have not been calculated 
           use %mp2 Density relaxed end
           or  %mp2 Density unrelaxed end

                                    ---------------------
                                    Active property flags
                                    ---------------------
   (+) Dipole Moment


------------------------------------------------------------------------------
                       ORCA ELECTRIC PROPERTIES CALCULATION
------------------------------------------------------------------------------

Dipole Moment Calculation                       ... on
Quadrupole Moment Calculation                   ... off
Polarizability Calculation                      ... off
GBWName                                         ... optpbed3-b2plyp-test-308_job2.gbw
Electron density                                ... optpbed3-b2plyp-test-308_job2.scfp
The origin for moment calculation is the CENTER OF MASS  = (-1.311121,  0.094869 -0.014187)

-------------
DIPOLE MOMENT
-------------
                                X             Y             Z
Electronic contribution:    -10.99762      -0.51059      -1.22375
Nuclear contribution   :     16.37758      -1.92876       1.51348
                        -----------------------------------------
Total Dipole Moment    :      5.37997      -2.43935       0.28972
                        -----------------------------------------
Magnitude (a.u.)       :      5.91425
Magnitude (Debye)      :     15.03284



--------------------
Rotational spectrum 
--------------------
 
Rotational constants in cm-1:     0.010197     0.003948     0.002982 
Rotational constants in MHz :   305.711976   118.370495    89.406363 

 Dipole components along the rotational axes: 
x,y,z [a.u.] :     5.565444     1.987753     0.230381 
x,y,z [Debye]:    14.146235     5.052466     0.585582 

 

Timings for individual modules:

Sum of individual times         ...    27006.705 sec (= 450.112 min)
GTO integral calculation        ...        8.392 sec (=   0.140 min)   0.0 %
SCF iterations                  ...     2298.683 sec (=  38.311 min)   8.5 %
MP2 module                      ...     2875.712 sec (=  47.929 min)  10.6 %
CIS module                      ...    21823.918 sec (= 363.732 min)  80.8 %



                             ****ORCA TERMINATED NORMALLY****
TOTAL RUN TIME: 0 days 16 hours 12 minutes 46 seconds 322 msec
