
                                 *****************
                                 * O   R   C   A *
                                 *****************

                                            #,                                       
                                            ###                                      
                                            ####                                     
                                            #####                                    
                                            ######                                   
                                           ########,                                 
                                     ,,################,,,,,                         
                               ,,#################################,,                 
                          ,,##########################################,,             
                       ,#########################################, ''#####,          
                    ,#############################################,,   '####,        
                  ,##################################################,,,,####,       
                ,###########''''           ''''###############################       
              ,#####''   ,,,,##########,,,,          '''####'''          '####       
            ,##' ,,,,###########################,,,                        '##       
           ' ,,###''''                  '''############,,,                           
         ,,##''                                '''############,,,,        ,,,,,,###''
      ,#''                                            '''#######################'''  
     '                                                          ''''####''''         
             ,#######,   #######,   ,#######,      ##                                
            ,#'     '#,  ##    ##  ,#'     '#,    #''#        ######   ,####,        
            ##       ##  ##   ,#'  ##            #'  '#       #        #'  '#        
            ##       ##  #######   ##           ,######,      #####,   #    #        
            '#,     ,#'  ##    ##  '#,     ,#' ,#      #,         ##   #,  ,#        
             '#######'   ##     ##  '#######'  #'      '#     #####' # '####'        



                  #######################################################
                  #                        -***-                        #
                  #          Department of theory and spectroscopy      #
                  #    Directorship and core code : Frank Neese         #
                  #        Max Planck Institute fuer Kohlenforschung    #
                  #                Kaiser Wilhelm Platz 1               #
                  #                 D-45470 Muelheim/Ruhr               #
                  #                      Germany                        #
                  #                                                     #
                  #                  All rights reserved                #
                  #                        -***-                        #
                  #######################################################


                         Program Version 5.0.2 -  RELEASE  -


 With contributions from (in alphabetic order):
   Daniel Aravena         : Magnetic Suceptibility
   Michael Atanasov       : Ab Initio Ligand Field Theory (pilot matlab implementation)
   Alexander A. Auer      : GIAO ZORA, VPT2 properties, NMR spectrum
   Ute Becker             : Parallelization
   Giovanni Bistoni       : ED, misc. LED, open-shell LED, HFLD
   Martin Brehm           : Molecular dynamics
   Dmytro Bykov           : SCF Hessian
   Vijay G. Chilkuri      : MRCI spin determinant printing, contributions to CSF-ICE
   Dipayan Datta          : RHF DLPNO-CCSD density
   Achintya Kumar Dutta   : EOM-CC, STEOM-CC
   Dmitry Ganyushin       : Spin-Orbit,Spin-Spin,Magnetic field MRCI
   Miquel Garcia          : C-PCM and meta-GGA Hessian, CC/C-PCM, Gaussian charge scheme
   Yang Guo               : DLPNO-NEVPT2, F12-NEVPT2, CIM, IAO-localization
   Andreas Hansen         : Spin unrestricted coupled pair/coupled cluster methods
   Benjamin Helmich-Paris : MC-RPA, TRAH-SCF, COSX integrals
   Lee Huntington         : MR-EOM, pCC
   Robert Izsak           : Overlap fitted RIJCOSX, COSX-SCS-MP3, EOM
   Marcus Kettner         : VPT2
   Christian Kollmar      : KDIIS, OOCD, Brueckner-CCSD(T), CCSD density, CASPT2, CASPT2-K
   Simone Kossmann        : Meta GGA functionals, TD-DFT gradient, OOMP2, MP2 Hessian
   Martin Krupicka        : Initial AUTO-CI
   Lucas Lang             : DCDCAS
   Marvin Lechner         : AUTO-CI (C++ implementation), FIC-MRCC
   Dagmar Lenk            : GEPOL surface, SMD
   Dimitrios Liakos       : Extrapolation schemes; Compound Job, initial MDCI parallelization
   Dimitrios Manganas     : Further ROCIS development; embedding schemes
   Dimitrios Pantazis     : SARC Basis sets
   Anastasios Papadopoulos: AUTO-CI, single reference methods and gradients
   Taras Petrenko         : DFT Hessian,TD-DFT gradient, ASA, ECA, R-Raman, ABS, FL, XAS/XES, NRVS
   Peter Pinski           : DLPNO-MP2, DLPNO-MP2 Gradient
   Christoph Reimann      : Effective Core Potentials
   Marius Retegan         : Local ZFS, SOC
   Christoph Riplinger    : Optimizer, TS searches, QM/MM, DLPNO-CCSD(T), (RO)-DLPNO pert. Triples
   Tobias Risthaus        : Range-separated hybrids, TD-DFT gradient, RPA, STAB
   Michael Roemelt        : Original ROCIS implementation
   Masaaki Saitow         : Open-shell DLPNO-CCSD energy and density
   Barbara Sandhoefer     : DKH picture change effects
   Avijit Sen             : IP-ROCIS
   Kantharuban Sivalingam : CASSCF convergence, NEVPT2, FIC-MRCI
   Bernardo de Souza      : ESD, SOC TD-DFT
   Georgi Stoychev        : AutoAux, RI-MP2 NMR, DLPNO-MP2 response
   Willem Van den Heuvel  : Paramagnetic NMR
   Boris Wezisla          : Elementary symmetry handling
   Frank Wennmohs         : Technical directorship


 We gratefully acknowledge several colleagues who have allowed us to
 interface, adapt or use parts of their codes:
   Stefan Grimme, W. Hujo, H. Kruse, P. Pracht,  : VdW corrections, initial TS optimization,
                  C. Bannwarth, S. Ehlert          DFT functionals, gCP, sTDA/sTD-DF
   Ed Valeev, F. Pavosevic, A. Kumar             : LibInt (2-el integral package), F12 methods
   Garnet Chan, S. Sharma, J. Yang, R. Olivares  : DMRG
   Ulf Ekstrom                                   : XCFun DFT Library
   Mihaly Kallay                                 : mrcc  (arbitrary order and MRCC methods)
   Jiri Pittner, Ondrej Demel                    : Mk-CCSD
   Frank Weinhold                                : gennbo (NPA and NBO analysis)
   Christopher J. Cramer and Donald G. Truhlar   : smd solvation model
   Lars Goerigk                                  : TD-DFT with DH, B97 family of functionals
   V. Asgeirsson, H. Jonsson                     : NEB implementation
   FAccTs GmbH                                   : IRC, NEB, NEB-TS, DLPNO-Multilevel, CI-OPT
                                                   MM, QMMM, 2- and 3-layer-ONIOM, Crystal-QMMM,
                                                   LR-CPCM, SF, NACMEs, symmetry and pop. for TD-DFT,
                                                   nearIR, NL-DFT gradient (VV10), updates on ESD,
                                                   ML-optimized integration grids
   S Lehtola, MJT Oliveira, MAL Marques          : LibXC Library
   Liviu Ungur et al                             : ANISO software


 Your calculation uses the libint2 library for the computation of 2-el integrals
 For citations please refer to: http://libint.valeyev.net

 Your ORCA version has been built with support for libXC version: 5.1.0
 For citations please refer to: https://tddft.org/programs/libxc/

 This ORCA versions uses:
   CBLAS   interface :  Fast vector & matrix operations
   LAPACKE interface :  Fast linear algebra routines
   SCALAPACK package :  Parallel linear algebra routines
   Shared memory     :  Shared parallel matrices
   BLAS/LAPACK       :  OpenBLAS 0.3.15  USE64BITINT DYNAMIC_ARCH NO_AFFINITY SkylakeX SINGLE_THREADED
        Core in use  :  SkylakeX
   Copyright (c) 2011-2014, The OpenBLAS Project


Your calculation utilizes the atom-pairwise dispersion correction
with the Becke-Johnson damping scheme (D3BJ)
Cite in your paper:
S.Grimme, S.Ehrlich, L.Goerigk, J Comput Chem, (2011), 32, 1456–1465 
S.Grimme, J.Antony, S.Ehrlich and H.Krieg, J.Chem.Phys., 132, (2010), 154104 
   

Your calculation utilizes the SMD solvation module
Please cite in your paper:
A.V. Marenich, C.J. Cramer, D.G. Truhlar J. Phys. Chem. B, 113, (2009), 6378 

================================================================================

----- Orbital basis set information -----
Your calculation utilizes the basis: aug-cc-pVTZ 
    H, B-Ne : Obtained from the ccRepo (grant-hill.group.shef.ac.uk/ccrepo) Feb. 2017
              R. A. Kendall, T. H. Dunning, Jr., R. J. Harrison, J. Chem. Phys. 96, 6796 (1992)
         He : Obtained from the ccRepo (grant-hill.group.shef.ac.uk/ccrepo) Feb. 2017
              D. E. Woon, T. H. Dunning, Jr., J. Chem. Phys. 100, 2975 (1994)
  Li-Be, Na : Obtained from the ccRepo (grant-hill.group.shef.ac.uk/ccrepo) Feb. 2017
              B. P. Prascher, D. E. Woon, K. A. Peterson, T. H. Dunning, Jr., A. K. Wilson, Theor. Chem. Acc. 128, 69 (2011)
         Mg : Obtained from the Peterson Research Group Website (tyr0.chem.wsu.edu/~kipeters) Feb. 2017
              B. P. Prascher, D. E. Woon, K. A. Peterson, T. H. Dunning, Jr., A. K. Wilson, Theor. Chem. Acc. 128, 69 (2011)
      Al-Ar : Obtained from the ccRepo (grant-hill.group.shef.ac.uk/ccrepo) Feb. 2017
              D. E. Woon, T. H. Dunning, Jr., J. Chem. Phys. 98, 1358 (1993)
      Sc-Zn : Obtained from the ccRepo (grant-hill.group.shef.ac.uk/ccrepo) Feb. 2017
              N. B. Balabanov, K. A. Peterson, J. Chem. Phys. 123, 064107 (2005)
              N. B. Balabanov, K. A. Peterson, J. Chem. Phys. 125, 074110 (2006)
      Ga-Kr : Obtained from the ccRepo (grant-hill.group.shef.ac.uk/ccrepo) Feb. 2017
              A. K. Wilson, D. E. Woon, K. A. Peterson, T. H. Dunning, Jr., J. Chem. Phys. 110, 7667 (1999)
     Ag, Au : Obtained from the Peterson Research Group Website (tyr0.chem.wsu.edu/~kipeters) Feb. 2017
              K. A. Peterson, C. Puzzarini, Theor. Chem. Acc. 114, 283 (2005)

The basis set includes element-specific modifications.

Your calculation utilizes the basis: cc-pVTZ 
       H, B-Ne : Obtained from the ccRepo (grant-hill.group.shef.ac.uk/ccrepo) Feb. 2017
                 T. H. Dunning, Jr., J. Chem. Phys. 90, 1007 (1989)
            He : Obtained from the ccRepo (grant-hill.group.shef.ac.uk/ccrepo) Feb. 2017
                 D. E. Woon, T. H. Dunning, Jr., J. Chem. Phys. 100, 2975 (1994)
  Li-Be, Na-Mg : Obtained from the ccRepo (grant-hill.group.shef.ac.uk/ccrepo) Feb. 2017
                 B. P. Prascher, D. E. Woon, K. A. Peterson, T. H. Dunning, Jr., A. K. Wilson, Theor. Chem. Acc. 128, 69 (2011)
         Al-Ar : Obtained from the ccRepo (grant-hill.group.shef.ac.uk/ccrepo) Feb. 2017
                 D. E. Woon, T. H. Dunning, Jr., J. Chem. Phys. 98, 1358 (1993)
            Ca : Obtained from the Peterson Research Group Website (tyr0.chem.wsu.edu/~kipeters) Feb. 2017
                 J. Koput, K. A. Peterson, J. Phys. Chem. 106, 9595 (2002)
         Sc-Zn : Obtained from the ccRepo (grant-hill.group.shef.ac.uk/ccrepo) Feb. 2017
                 N. B. Balabanov, K. A. Peterson, J. Chem. Phys. 123, 064107 (2005)
                 N. B. Balabanov, K. A. Peterson, J. Chem. Phys. 125, 074110 (2006)
         Ga-Kr : Obtained from the ccRepo (grant-hill.group.shef.ac.uk/ccrepo) Feb. 2017
                 A. K. Wilson, D. E. Woon, K. A. Peterson, T. H. Dunning, Jr., J. Chem. Phys. 110, 7667 (1999)
             Y : Obtained from the ccRepo (grant-hill.group.shef.ac.uk/ccrepo) Feb. 2017
                 K. A. Peterson, D. Figgen, M. Dolg, H. Stoll, J. Chem. Phys. 126, 124101 (2007)
        Ag, Au : Obtained from the Peterson Research Group Website (tyr0.chem.wsu.edu/~kipeters) Feb. 2017
                 K. A. Peterson, C. Puzzarini, Theor. Chem. Acc. 114, 283 (2005)

----- AuxJ basis set information -----
Your calculation utilizes the auxiliary basis: aug-cc-pVTZ/JK 
  H, B-F, Al-Cl, Ga-Br : Obtained from the TURBOMOLE 7.0 basis set library

The basis set includes element-specific modifications.

Your calculation utilizes the auxiliary basis: cc-pVTZ/JK 
  H, B-F, Al-Cl, Ga-Br : Obtained from the TURBOMOLE 7.0 basis set library

----- AuxC basis set information -----
Your calculation utilizes the auxiliary basis: aug-cc-pVTZ/C 
  H-He, B-F, Al-Ar, Ga-Kr : Obtained from the EMSL Basis Set Exchange (bse.pnl.gov) Feb. 2017
                            F. Weigend, A. Kohn, C. Hattig, J. Chem. Phys. 116, 3175 (2002)
                   Be, Mg : Obtained from the TURBOMOLE 7.0 basis set library
                            C. Haettig, Phys. Chem. Chem. Phys. 7, 59 (2005)
                       Ne : Obtained from the EMSL Basis Set Exchange (bse.pnl.gov) Feb. 2017
                            C. Haettig, Phys. Chem. Chem. Phys. 7, 59 (2005)
                            F. Weigend, A. Kohn, C. Hattig, J. Chem. Phys. 116, 3175 (2002)
                    Sc-Zn : Obtained from the EMSL Basis Set Exchange (bse.pnl.gov) Feb. 2017
                            J. G. Hill, J. A. Platts, J. Chem. Phys. 128, 044104 (2008)

The basis set includes element-specific modifications.

Your calculation utilizes the auxiliary basis: cc-pVTZ/C 
  Obtained from the EMSL Basis Set Exchange (bse.pnl.gov) Feb. 2017
  H-He, B-F, Al-Ar, Ga-Kr : F. Weigend, A. Kohn, C. Hattig, J. Chem. Phys. 116, 3175 (2002)
             Li-Be, Na-Mg : C. Haettig, Phys. Chem. Chem. Phys. 7, 59 (2005)
                       Ne : C. Haettig, Phys. Chem. Chem. Phys. 7, 59 (2005)
                            F. Weigend, A. Kohn, C. Hattig, J. Chem. Phys. 116, 3175 (2002)
                    Sc-Zn : J. G. Hill, J. A. Platts, J. Chem. Phys. 128, 044104 (2008)

================================================================================
                                        WARNINGS
                       Please study these warnings very carefully!
================================================================================


WARNING: Geometry Optimization
  ===> : Switching off AutoStart
         For restart on a previous wavefunction, please use MOREAD

INFO   : the flag for use of the SHARK integral package has been found!



***************************************
The coordinates will be read from file: 
***************************************


Your calculation utilizes the atom-pairwise dispersion correction
with the Becke-Johnson damping scheme (D3BJ)
Cite in your paper:
S.Grimme, S.Ehrlich, L.Goerigk, J Comput Chem, (2011), 32, 1456–1465 
S.Grimme, J.Antony, S.Ehrlich and H.Krieg, J.Chem.Phys., 132, (2010), 154104 
   

Your calculation utilizes the SMD solvation module
Please cite in your paper:
A.V. Marenich, C.J. Cramer, D.G. Truhlar J. Phys. Chem. B, 113, (2009), 6378 

================================================================================

----- Orbital basis set information -----
Your calculation utilizes the basis: aug-cc-pVTZ 
    H, B-Ne : Obtained from the ccRepo (grant-hill.group.shef.ac.uk/ccrepo) Feb. 2017
              R. A. Kendall, T. H. Dunning, Jr., R. J. Harrison, J. Chem. Phys. 96, 6796 (1992)
         He : Obtained from the ccRepo (grant-hill.group.shef.ac.uk/ccrepo) Feb. 2017
              D. E. Woon, T. H. Dunning, Jr., J. Chem. Phys. 100, 2975 (1994)
  Li-Be, Na : Obtained from the ccRepo (grant-hill.group.shef.ac.uk/ccrepo) Feb. 2017
              B. P. Prascher, D. E. Woon, K. A. Peterson, T. H. Dunning, Jr., A. K. Wilson, Theor. Chem. Acc. 128, 69 (2011)
         Mg : Obtained from the Peterson Research Group Website (tyr0.chem.wsu.edu/~kipeters) Feb. 2017
              B. P. Prascher, D. E. Woon, K. A. Peterson, T. H. Dunning, Jr., A. K. Wilson, Theor. Chem. Acc. 128, 69 (2011)
      Al-Ar : Obtained from the ccRepo (grant-hill.group.shef.ac.uk/ccrepo) Feb. 2017
              D. E. Woon, T. H. Dunning, Jr., J. Chem. Phys. 98, 1358 (1993)
      Sc-Zn : Obtained from the ccRepo (grant-hill.group.shef.ac.uk/ccrepo) Feb. 2017
              N. B. Balabanov, K. A. Peterson, J. Chem. Phys. 123, 064107 (2005)
              N. B. Balabanov, K. A. Peterson, J. Chem. Phys. 125, 074110 (2006)
      Ga-Kr : Obtained from the ccRepo (grant-hill.group.shef.ac.uk/ccrepo) Feb. 2017
              A. K. Wilson, D. E. Woon, K. A. Peterson, T. H. Dunning, Jr., J. Chem. Phys. 110, 7667 (1999)
     Ag, Au : Obtained from the Peterson Research Group Website (tyr0.chem.wsu.edu/~kipeters) Feb. 2017
              K. A. Peterson, C. Puzzarini, Theor. Chem. Acc. 114, 283 (2005)

The basis set includes element-specific modifications.

Your calculation utilizes the basis: cc-pVTZ 
       H, B-Ne : Obtained from the ccRepo (grant-hill.group.shef.ac.uk/ccrepo) Feb. 2017
                 T. H. Dunning, Jr., J. Chem. Phys. 90, 1007 (1989)
            He : Obtained from the ccRepo (grant-hill.group.shef.ac.uk/ccrepo) Feb. 2017
                 D. E. Woon, T. H. Dunning, Jr., J. Chem. Phys. 100, 2975 (1994)
  Li-Be, Na-Mg : Obtained from the ccRepo (grant-hill.group.shef.ac.uk/ccrepo) Feb. 2017
                 B. P. Prascher, D. E. Woon, K. A. Peterson, T. H. Dunning, Jr., A. K. Wilson, Theor. Chem. Acc. 128, 69 (2011)
         Al-Ar : Obtained from the ccRepo (grant-hill.group.shef.ac.uk/ccrepo) Feb. 2017
                 D. E. Woon, T. H. Dunning, Jr., J. Chem. Phys. 98, 1358 (1993)
            Ca : Obtained from the Peterson Research Group Website (tyr0.chem.wsu.edu/~kipeters) Feb. 2017
                 J. Koput, K. A. Peterson, J. Phys. Chem. 106, 9595 (2002)
         Sc-Zn : Obtained from the ccRepo (grant-hill.group.shef.ac.uk/ccrepo) Feb. 2017
                 N. B. Balabanov, K. A. Peterson, J. Chem. Phys. 123, 064107 (2005)
                 N. B. Balabanov, K. A. Peterson, J. Chem. Phys. 125, 074110 (2006)
         Ga-Kr : Obtained from the ccRepo (grant-hill.group.shef.ac.uk/ccrepo) Feb. 2017
                 A. K. Wilson, D. E. Woon, K. A. Peterson, T. H. Dunning, Jr., J. Chem. Phys. 110, 7667 (1999)
             Y : Obtained from the ccRepo (grant-hill.group.shef.ac.uk/ccrepo) Feb. 2017
                 K. A. Peterson, D. Figgen, M. Dolg, H. Stoll, J. Chem. Phys. 126, 124101 (2007)
        Ag, Au : Obtained from the Peterson Research Group Website (tyr0.chem.wsu.edu/~kipeters) Feb. 2017
                 K. A. Peterson, C. Puzzarini, Theor. Chem. Acc. 114, 283 (2005)

----- AuxJ basis set information -----
Your calculation utilizes the auxiliary basis: aug-cc-pVTZ/JK 
  H, B-F, Al-Cl, Ga-Br : Obtained from the TURBOMOLE 7.0 basis set library

The basis set includes element-specific modifications.

Your calculation utilizes the auxiliary basis: cc-pVTZ/JK 
  H, B-F, Al-Cl, Ga-Br : Obtained from the TURBOMOLE 7.0 basis set library

----- AuxC basis set information -----
Your calculation utilizes the auxiliary basis: aug-cc-pVTZ/C 
  H-He, B-F, Al-Ar, Ga-Kr : Obtained from the EMSL Basis Set Exchange (bse.pnl.gov) Feb. 2017
                            F. Weigend, A. Kohn, C. Hattig, J. Chem. Phys. 116, 3175 (2002)
                   Be, Mg : Obtained from the TURBOMOLE 7.0 basis set library
                            C. Haettig, Phys. Chem. Chem. Phys. 7, 59 (2005)
                       Ne : Obtained from the EMSL Basis Set Exchange (bse.pnl.gov) Feb. 2017
                            C. Haettig, Phys. Chem. Chem. Phys. 7, 59 (2005)
                            F. Weigend, A. Kohn, C. Hattig, J. Chem. Phys. 116, 3175 (2002)
                    Sc-Zn : Obtained from the EMSL Basis Set Exchange (bse.pnl.gov) Feb. 2017
                            J. G. Hill, J. A. Platts, J. Chem. Phys. 128, 044104 (2008)

The basis set includes element-specific modifications.

Your calculation utilizes the auxiliary basis: cc-pVTZ/C 
  Obtained from the EMSL Basis Set Exchange (bse.pnl.gov) Feb. 2017
  H-He, B-F, Al-Ar, Ga-Kr : F. Weigend, A. Kohn, C. Hattig, J. Chem. Phys. 116, 3175 (2002)
             Li-Be, Na-Mg : C. Haettig, Phys. Chem. Chem. Phys. 7, 59 (2005)
                       Ne : C. Haettig, Phys. Chem. Chem. Phys. 7, 59 (2005)
                            F. Weigend, A. Kohn, C. Hattig, J. Chem. Phys. 116, 3175 (2002)
                    Sc-Zn : J. G. Hill, J. A. Platts, J. Chem. Phys. 128, 044104 (2008)

================================================================================
                                        WARNINGS
                       Please study these warnings very carefully!
================================================================================

INFO   : Checking CIS options ...
  ===> : (D) CORRECTION FOUND - SETTING MODE=3
  ===> : JK MODE FOUND - ACTIVATING RI-MP2 CODE
  ===> : MP2 AND CIS FOUND - CHECKING
WARNING: CIS(D) and MP2 runs must have the same orbital window
  ===> : adjusting orbital windows

WARNING: No MP2 level density has been requested!
         To caclulate MP2 level properties use
         %mp2 Density relaxed end
         or
         %mp2 Density unrelaxed end
         Otherwise for double-hybrid DFT only the energy is correct!

WARNING: The frozen-core approximation is turned on by default for 
         the MP2 part of double-hybrid DFT.

INFO   : the flag for use of the SHARK integral package has been found!

================================================================================
                                       INPUT FILE
================================================================================
NAME = optpbed3-b2plyp-test-179.inp
|  1> ! pbe0 d3bj aug-cc-PVTZ RIJCOSX Opt
|  2> %maxcore 4000
|  3> %basis
|  4>  AuxJ "aug-cc-PVTZ/JK"
|  5>  AuxC "aug-cc-PVTZ/C"
|  6>  newGTO H "cc-PVTZ" end
|  7>  newAuxJGTO H "cc-PVTZ/JK" end
|  8>  newAuxCGTO H "cc-PVTZ/C" end
|  9> end
| 10> %cpcm
| 11>  SMD true
| 12>  SMDsolvent "n-hexane"
| 13> end
| 14> %pal nprocs 4 end
| 15> * xyz 0 1
| 16> C          4.94310       -1.40700       -1.22790
| 17> C          3.84310       -0.51870       -0.73670
| 18> C          3.86230        0.84460       -1.01790
| 19> C          2.86170        1.67270       -0.55780
| 20> C          1.80340        1.15450        0.18870
| 21> C          0.74860        2.07650        0.65100
| 22> O          0.87570        3.28230        0.66200
| 23> C         -0.50710        1.45040        1.15670
| 24> C         -1.36370        0.76750        0.38930
| 25> C         -1.17750        0.50770       -1.07480
| 26> O         -0.27510        0.85460       -1.79930
| 27> N         -2.27160       -0.22290       -1.46700
| 28> C         -3.14670       -0.44810       -0.41760
| 29> C         -4.34480       -1.13120       -0.40770
| 30> C         -5.03010       -1.21280        0.79840
| 31> C         -4.53000       -0.62940        1.95230
| 32> C         -3.32420        0.05800        1.93890
| 33> C         -2.62990        0.14830        0.74700
| 34> C          1.78380       -0.20800        0.47970
| 35> C          2.79530       -1.02860        0.02210
| 36> H          4.66370       -2.45490       -1.15340
| 37> H          5.84260       -1.24900       -0.63210
| 38> H          5.18690       -1.17830       -2.26350
| 39> H          4.67140        1.25270       -1.60660
| 40> H          2.86700        2.72960       -0.77700
| 41> H         -0.74280        1.65220        2.19420
| 42> H         -2.42200       -0.52890       -2.41470
| 43> H         -4.73830       -1.58660       -1.30350
| 44> H         -5.97080       -1.74130        0.83440
| 45> H         -5.08710       -0.71020        2.87310
| 46> H         -2.93990        0.51330        2.83870
| 47> H          0.98150       -0.62490        1.07190
| 48> H          2.77140       -2.08440        0.25320
| 49> *
| 50> 
| 51> 
| 52> $new_job
| 53> ! b2plyp aug-cc-PVTZ RIJCOSX SP
| 54> %maxcore 4000
| 55> %basis
| 56>  AuxJ "aug-cc-PVTZ/JK"
| 57>  AuxC "aug-cc-PVTZ/C"
| 58>  newGTO H "cc-PVTZ" end
| 59>  newAuxJGTO H "cc-PVTZ/JK" end
| 60>  newAuxCGTO H "cc-PVTZ/C" end
| 61> end
| 62> %cpcm
| 63>  SMD true
| 64>  SMDsolvent "n-hexane"
| 65> end
| 66> %pal nprocs 4 end
| 67> %tddft
| 68>  nroots 10
| 69>  maxdim 7
| 70> end
| 71> * xyzfile 0 1
| 72> 
| 73>                          ****END OF INPUT****
================================================================================


                 $$$$$$$$$$$$$$$$$$$$$$$$$$$$$$$$$$$$$$$$$$$$$$ 
                 $ THERE ARE  2 JOBS TO BE PROCESSED THIS RUN $
                 $$$$$$$$$$$$$$$$$$$$$$$$$$$$$$$$$$$$$$$$$$$$$$ 




                 $$$$$$$$$$$$$$$$  JOB NUMBER  1 $$$$$$$$$$$$$$


                       *****************************
                       * Geometry Optimization Run *
                       *****************************

Geometry optimization settings:
Update method            Update   .... BFGS
Choice of coordinates    CoordSys .... Z-matrix Internals
Initial Hessian          InHess   .... Almoef's Model

Convergence Tolerances:
Energy Change            TolE     ....  5.0000e-06 Eh
Max. Gradient            TolMAXG  ....  3.0000e-04 Eh/bohr
RMS Gradient             TolRMSG  ....  1.0000e-04 Eh/bohr
Max. Displacement        TolMAXD  ....  4.0000e-03 bohr
RMS Displacement         TolRMSD  ....  2.0000e-03 bohr
Strict Convergence                ....  False
------------------------------------------------------------------------------
                        ORCA OPTIMIZATION COORDINATE SETUP
------------------------------------------------------------------------------

The optimization will be done in new redundant internal coordinates
Making redundant internal coordinates   ...  (new redundants) done
Evaluating the initial hessian          ...  (Almloef) done
Evaluating the coordinates              ...  done
Calculating the B-matrix                .... done
Calculating the G-matrix                .... done
Diagonalizing the G-matrix              .... done
Small eigenvalue found = 2.463e-03
Small eigenvalue found = 6.758e-03
Small eigenvalue found = 1.596e-02
The first mode is                       ....   81
The number of degrees of freedom        ....   93

    -----------------------------------------------------------------
                    Redundant Internal Coordinates


    -----------------------------------------------------------------
         Definition                    Initial Value    Approx d2E/dq
    -----------------------------------------------------------------
      1. B(C   1,C   0)                  1.4968         0.422062   
      2. B(C   2,C   1)                  1.3921         0.619924   
      3. B(C   3,C   2)                  1.3779         0.653166   
      4. B(C   4,C   3)                  1.3949         0.613613   
      5. B(C   5,C   4)                  1.4753         0.456776   
      6. B(O   6,C   5)                  1.2125         1.074033   
      7. B(C   7,C   5)                  1.4915         0.430360   
      8. B(C   8,C   7)                  1.3375         0.757586   
      9. B(C   9,C   8)                  1.4986         0.419275   
     10. B(O  10,C   9)                  1.2081         1.091555   
     11. B(N  11,C   9)                  1.3728         0.596039   
     12. B(C  12,N  11)                  1.3848         0.570326   
     13. B(C  13,C  12)                  1.3792         0.650106   
     14. B(C  14,C  13)                  1.3896         0.625729   
     15. B(C  15,C  14)                  1.3863         0.633252   
     16. B(C  16,C  15)                  1.3880         0.629314   
     17. B(C  17,C  16)                  1.3823         0.642655   
     18. B(C  17,C  12)                  1.4068         0.587415   
     19. B(C  17,C   8)                  1.4542         0.493576   
     20. B(C  18,C   4)                  1.3934         0.617116   
     21. B(C  19,C  18)                  1.3805         0.646871   
     22. B(C  19,C   1)                  1.3906         0.623510   
     23. B(H  20,C   0)                  1.0871         0.364004   
     24. B(H  21,C   0)                  1.0904         0.359529   
     25. B(H  22,C   0)                  1.0882         0.362471   
     26. B(H  23,C   2)                  1.0806         0.372714   
     27. B(H  24,C   3)                  1.0794         0.374393   
     28. B(H  25,C   7)                  1.0829         0.369609   
     29. B(H  26,N  11)                  1.0072         0.437230   
     30. B(H  27,C  13)                  1.0792         0.374664   
     31. B(H  28,C  14)                  1.0796         0.374131   
     32. B(H  29,C  15)                  1.0792         0.374617   
     33. B(H  30,C  16)                  1.0792         0.374705   
     34. B(H  31,C  18)                  1.0808         0.372438   
     35. B(H  32,C  19)                  1.0811         0.372122   
     36. A(H  20,C   0,H  22)          108.9893         0.291633   
     37. A(H  21,C   0,H  22)          107.7408         0.291067   
     38. A(H  20,C   0,H  21)          108.3155         0.291260   
     39. A(C   1,C   0,H  22)          110.6235         0.331269   
     40. A(C   1,C   0,H  20)          111.1440         0.331500   
     41. A(C   1,C   0,H  21)          109.9334         0.330822   
     42. A(C   2,C   1,C  19)          118.6663         0.434498   
     43. A(C   0,C   1,C   2)          120.3153         0.405292   
     44. A(C   0,C   1,C  19)          121.0121         0.405705   
     45. A(C   1,C   2,C   3)          120.7353         0.438151   
     46. A(C   3,C   2,H  23)          119.9109         0.358129   
     47. A(C   1,C   2,H  23)          119.3535         0.354966   
     48. A(C   4,C   3,H  24)          118.4342         0.354621   
     49. A(C   2,C   3,H  24)          121.1364         0.358403   
     50. A(C   2,C   3,C   4)          120.4223         0.437343   
     51. A(C   5,C   4,C  18)          122.3863         0.410671   
     52. A(C   3,C   4,C  18)          119.0584         0.432895   
     53. A(C   3,C   4,C   5)          118.5535         0.410256   
     54. A(O   6,C   5,C   7)          120.1741         0.445809   
     55. A(C   4,C   5,C   7)          116.4782         0.385471   
     56. A(C   4,C   5,O   6)          123.3258         0.450652   
     57. A(C   5,C   7,H  25)          115.4588         0.333415   
     58. A(C   8,C   7,H  25)          120.3601         0.366790   
     59. A(C   5,C   7,C   8)          123.9854         0.421441   
     60. A(C   9,C   8,C  17)          105.9436         0.388939   
     61. A(C   7,C   8,C  17)          129.3397         0.431915   
     62. A(C   7,C   8,C   9)          124.7137         0.419483   
     63. A(O  10,C   9,N  11)          125.2242         0.471342   
     64. A(C   8,C   9,N  11)          105.8043         0.399446   
     65. A(C   8,C   9,O  10)          128.9704         0.445009   
     66. A(C   9,N  11,C  12)          111.9424         0.419098   
     67. A(C  12,N  11,H  26)          124.6991         0.354243   
     68. A(C   9,N  11,H  26)          123.3341         0.356903   
     69. A(N  11,C  12,C  13)          129.4147         0.428442   
     70. A(C  13,C  12,C  17)          121.5443         0.433553   
     71. A(N  11,C  12,C  17)          109.0407         0.420740   
     72. A(C  12,C  13,C  14)          117.6278         0.438516   
     73. A(C  14,C  13,H  27)          121.0542         0.355843   
     74. A(C  12,C  13,H  27)          121.3179         0.358161   
     75. A(C  13,C  14,H  28)          119.1703         0.355757   
     76. A(C  13,C  14,C  15)          121.3197         0.436444   
     77. A(C  15,C  14,H  28)          119.5100         0.356479   
     78. A(C  16,C  15,H  29)          119.5865         0.356181   
     79. A(C  14,C  15,H  29)          119.5002         0.356558   
     80. A(C  14,C  15,C  16)          120.9133         0.436894   
     81. A(C  17,C  16,H  30)          120.8306         0.357466   
     82. A(C  15,C  16,H  30)          120.6796         0.356195   
     83. A(C  15,C  16,C  17)          118.4896         0.438056   
     84. A(C  12,C  17,C  16)          120.1053         0.432655   
     85. A(C   8,C  17,C  16)          132.6294         0.419380   
     86. A(C   8,C  17,C  12)          107.2630         0.412727   
     87. A(C   4,C  18,C  19)          120.1127         0.437028   
     88. A(C  19,C  18,H  31)          119.7494         0.357495   
     89. A(C   4,C  18,H  31)          120.1357         0.354649   
     90. A(C   1,C  19,C  18)          120.9970         0.437841   
     91. A(C  18,C  19,H  32)          119.5681         0.357443   
     92. A(C   1,C  19,H  32)          119.4344         0.355218   
     93. D(C   2,C   1,C   0,H  21)     74.6379         0.013168   
     94. D(C   2,C   1,C   0,H  22)    -44.2311         0.013168   
     95. D(C   2,C   1,C   0,H  20)   -165.4506         0.013168   
     96. D(C  19,C   1,C   0,H  22)    136.6925         0.013168   
     97. D(C  19,C   1,C   0,H  21)   -104.4386         0.013168   
     98. D(C  19,C   1,C   0,H  20)     15.4729         0.013168   
     99. D(H  23,C   2,C   1,C  19)    179.9963         0.026592   
    100. D(C   3,C   2,C   1,C  19)     -0.1983         0.026592   
    101. D(H  23,C   2,C   1,C   0)      0.8985         0.026592   
    102. D(C   3,C   2,C   1,C   0)   -179.2962         0.026592   
    103. D(C   4,C   3,C   2,H  23)    179.1888         0.029725   
    104. D(C   4,C   3,C   2,C   1)     -0.6155         0.029725   
    105. D(H  24,C   3,C   2,C   1)   -179.6277         0.029725   
    106. D(H  24,C   3,C   2,H  23)      0.1766         0.029725   
    107. D(C   5,C   4,C   3,C   2)   -179.4947         0.026022   
    108. D(C  18,C   4,C   3,H  24)   -179.9726         0.026022   
    109. D(C  18,C   4,C   3,C   2)      0.9889         0.026022   
    110. D(C   5,C   4,C   3,H  24)     -0.4562         0.026022   
    111. D(C   7,C   5,C   4,C  18)    -14.4543         0.014215   
    112. D(C   7,C   5,C   4,C   3)    166.0463         0.014215   
    113. D(O   6,C   5,C   4,C   3)    -15.6555         0.014215   
    114. D(O   6,C   5,C   4,C  18)    163.8439         0.014215   
    115. D(H  25,C   7,C   5,O   6)    -60.2559         0.012654   
    116. D(H  25,C   7,C   5,C   4)    118.0993         0.012654   
    117. D(C   8,C   7,C   5,O   6)    114.6619         0.012654   
    118. D(C   8,C   7,C   5,C   4)    -66.9830         0.012654   
    119. D(C  17,C   8,C   7,H  25)     -3.2903         0.041011   
    120. D(C  17,C   8,C   7,C   5)   -177.9716         0.041011   
    121. D(C   9,C   8,C   7,H  25)    175.9857         0.041011   
    122. D(C   9,C   8,C   7,C   5)      1.3044         0.041011   
    123. D(O  10,C   9,C   8,C   7)     -0.5795         0.012033   
    124. D(N  11,C   9,C   8,C  17)     -0.7860         0.012033   
    125. D(N  11,C   9,C   8,C   7)    179.7963         0.012033   
    126. D(O  10,C   9,C   8,C  17)    178.8382         0.012033   
    127. D(H  26,N  11,C   9,O  10)     -0.7203         0.028599   
    128. D(H  26,N  11,C   9,C   8)    178.9220         0.028599   
    129. D(C  12,N  11,C   9,O  10)   -178.9963         0.028599   
    130. D(C  12,N  11,C   9,C   8)      0.6460         0.028599   
    131. D(C  17,C  12,N  11,H  26)   -178.4938         0.026033   
    132. D(C  17,C  12,N  11,C   9)     -0.2458         0.026033   
    133. D(C  13,C  12,N  11,H  26)      1.6985         0.026033   
    134. D(C  13,C  12,N  11,C   9)    179.9465         0.026033   
    135. D(H  27,C  13,C  12,C  17)    179.9449         0.029428   
    136. D(H  27,C  13,C  12,N  11)     -0.2684         0.029428   
    137. D(C  14,C  13,C  12,C  17)     -0.0303         0.029428   
    138. D(C  14,C  13,C  12,N  11)    179.7564         0.029428   
    139. D(H  28,C  14,C  13,H  27)     -0.0048         0.027124   
    140. D(H  28,C  14,C  13,C  12)    179.9705         0.027124   
    141. D(C  15,C  14,C  13,H  27)   -179.9728         0.027124   
    142. D(C  15,C  14,C  13,C  12)      0.0025         0.027124   
    143. D(H  29,C  15,C  14,H  28)     -0.0145         0.027823   
    144. D(H  29,C  15,C  14,C  13)    179.9533         0.027823   
    145. D(C  16,C  15,C  14,H  28)   -179.9380         0.027823   
    146. D(C  16,C  15,C  14,C  13)      0.0298         0.027823   
    147. D(H  30,C  16,C  15,H  29)     -0.1127         0.027455   
    148. D(H  30,C  16,C  15,C  14)    179.8107         0.027455   
    149. D(C  17,C  16,C  15,H  29)   -179.9570         0.027455   
    150. D(C  17,C  16,C  15,C  14)     -0.0335         0.027455   
    151. D(C   8,C  17,C  12,N  11)     -0.2830         0.023736   
    152. D(C  16,C  17,C   8,C   9)   -179.9177         0.016590   
    153. D(C  16,C  17,C   8,C   7)     -0.5366         0.016590   
    154. D(C  12,C  17,C   8,C   9)      0.6511         0.016590   
    155. D(C  12,C  17,C   8,C   7)   -179.9678         0.016590   
    156. D(C  12,C  17,C  16,H  30)   -179.8380         0.028711   
    157. D(C  12,C  17,C  16,C  15)      0.0060         0.028711   
    158. D(C   8,C  17,C  16,H  30)      0.7899         0.028711   
    159. D(C   8,C  17,C  16,C  15)   -179.3661         0.028711   
    160. D(C  16,C  17,C  12,C  13)      0.0265         0.023736   
    161. D(C  16,C  17,C  12,N  11)   -179.7992         0.023736   
    162. D(C   8,C  17,C  12,C  13)    179.5427         0.023736   
    163. D(H  31,C  18,C   4,C   5)     -0.5999         0.026338   
    164. D(H  31,C  18,C   4,C   3)    178.8971         0.026338   
    165. D(C  19,C  18,C   4,C   5)    179.9490         0.026338   
    166. D(C  19,C  18,C   4,C   3)     -0.5540         0.026338   
    167. D(H  32,C  19,C  18,H  31)      0.5357         0.029115   
    168. D(H  32,C  19,C  18,C   4)    179.9889         0.029115   
    169. D(C   1,C  19,C  18,H  31)   -179.7119         0.029115   
    170. D(C   1,C  19,C  18,C   4)     -0.2586         0.029115   
    171. D(H  32,C  19,C   1,C   2)   -179.6110         0.026920   
    172. D(H  32,C  19,C   1,C   0)     -0.5196         0.026920   
    173. D(C  18,C  19,C   1,C   2)      0.6363         0.026920   
    174. D(C  18,C  19,C   1,C   0)    179.7276         0.026920   
    -----------------------------------------------------------------

Number of atoms                         .... 33
Number of degrees of freedom            .... 174

         *************************************************************
         *                GEOMETRY OPTIMIZATION CYCLE   1            *
         *************************************************************
---------------------------------
CARTESIAN COORDINATES (ANGSTROEM)
---------------------------------
  C      4.943100   -1.407000   -1.227900
  C      3.843100   -0.518700   -0.736700
  C      3.862300    0.844600   -1.017900
  C      2.861700    1.672700   -0.557800
  C      1.803400    1.154500    0.188700
  C      0.748600    2.076500    0.651000
  O      0.875700    3.282300    0.662000
  C     -0.507100    1.450400    1.156700
  C     -1.363700    0.767500    0.389300
  C     -1.177500    0.507700   -1.074800
  O     -0.275100    0.854600   -1.799300
  N     -2.271600   -0.222900   -1.467000
  C     -3.146700   -0.448100   -0.417600
  C     -4.344800   -1.131200   -0.407700
  C     -5.030100   -1.212800    0.798400
  C     -4.530000   -0.629400    1.952300
  C     -3.324200    0.058000    1.938900
  C     -2.629900    0.148300    0.747000
  C      1.783800   -0.208000    0.479700
  C      2.795300   -1.028600    0.022100
  H      4.663700   -2.454900   -1.153400
  H      5.842600   -1.249000   -0.632100
  H      5.186900   -1.178300   -2.263500
  H      4.671400    1.252700   -1.606600
  H      2.867000    2.729600   -0.777000
  H     -0.742800    1.652200    2.194200
  H     -2.422000   -0.528900   -2.414700
  H     -4.738300   -1.586600   -1.303500
  H     -5.970800   -1.741300    0.834400
  H     -5.087100   -0.710200    2.873100
  H     -2.939900    0.513300    2.838700
  H      0.981500   -0.624900    1.071900
  H      2.771400   -2.084400    0.253200

----------------------------
CARTESIAN COORDINATES (A.U.)
----------------------------
  NO LB      ZA    FRAG     MASS         X           Y           Z
   0 C     6.0000    0    12.011    9.341105   -2.658845   -2.320395
   1 C     6.0000    0    12.011    7.262407   -0.980201   -1.392161
   2 C     6.0000    0    12.011    7.298689    1.596063   -1.923552
   3 C     6.0000    0    12.011    5.407829    3.160945   -1.054089
   4 C     6.0000    0    12.011    3.407932    2.181689    0.356591
   5 C     6.0000    0    12.011    1.414649    3.924016    1.230212
   6 O     8.0000    0    15.999    1.654833    6.202648    1.250999
   7 C     6.0000    0    12.011   -0.958280    2.740859    2.185846
   8 C     6.0000    0    12.011   -2.577020    1.450365    0.735670
   9 C     6.0000    0    12.011   -2.225153    0.959414   -2.031078
  10 O     8.0000    0    15.999   -0.519864    1.614960   -3.400184
  11 N     7.0000    0    14.007   -4.292702   -0.421220   -2.772228
  12 C     6.0000    0    12.011   -5.946401   -0.846786   -0.789150
  13 C     6.0000    0    12.011   -8.210482   -2.137658   -0.770441
  14 C     6.0000    0    12.011   -9.505511   -2.291860    1.508757
  15 C     6.0000    0    12.011   -8.560459   -1.189394    3.689312
  16 C     6.0000    0    12.011   -6.281828    0.109604    3.663990
  17 C     6.0000    0    12.011   -4.969791    0.280246    1.411625
  18 C     6.0000    0    12.011    3.370893   -0.393063    0.906502
  19 C     6.0000    0    12.011    5.282351   -1.943772    0.041763
  20 H     1.0000    0     1.008    8.813116   -4.639089   -2.179610
  21 H     1.0000    0     1.008   11.040914   -2.360268   -1.194496
  22 H     1.0000    0     1.008    9.801820   -2.226664   -4.277395
  23 H     1.0000    0     1.008    8.827667    2.367260   -3.036034
  24 H     1.0000    0     1.008    5.417845    5.158196   -1.468317
  25 H     1.0000    0     1.008   -1.403689    3.122206    4.146437
  26 H     1.0000    0     1.008   -4.576917   -0.999476   -4.563122
  27 H     1.0000    0     1.008   -8.954089   -2.998239   -2.463258
  28 H     1.0000    0     1.008  -11.283177   -3.290580    1.576787
  29 H     1.0000    0     1.008   -9.613226   -1.342084    5.429372
  30 H     1.0000    0     1.008   -5.555606    0.969996    5.364366
  31 H     1.0000    0     1.008    1.854766   -1.180890    2.025597
  32 H     1.0000    0     1.008    5.237187   -3.938945    0.478479

--------------------------------
INTERNAL COORDINATES (ANGSTROEM)
--------------------------------
 C      0   0   0     0.000000000000     0.00000000     0.00000000
 C      1   0   0     1.496781323374     0.00000000     0.00000000
 C      2   1   0     1.392131089373   120.31534407     0.00000000
 C      3   2   1     1.377912181527   120.73530344   180.70384521
 C      4   3   2     1.394916621164   120.42227973   359.38448773
 C      5   4   3     1.475265511696   118.55354122   180.50534278
 O      6   5   4     1.212530020247   123.32582400   344.34445110
 C      6   5   4     1.491481206720   116.47819368   166.04625409
 C      8   6   5     1.337542047937   123.98537052   293.01703850
 C      9   8   6     1.498584428719   124.71369146     1.30444889
 O     10   9   8     1.208124836265   128.97038409   359.42050270
 N     10   9   8     1.372826285442   105.80426607   179.79633571
 C     12  10   9     1.384830462548   111.94237767     0.64599788
 C     13  12  10     1.379190788107   129.41474810   179.94653301
 C     14  13  12     1.389594134991   117.62784411   179.75637254
 C     15  14  13     1.386340787830   121.31972726     0.00000000
 C     16  15  14     1.388038889945   120.91327903     0.02982319
 C     17  16  15     1.382328539096   118.48959646   359.96647519
 C      5   4   3     1.393366933008   119.05835318     0.98890280
 C     19   5   4     1.380548575748   120.11270694   359.44599153
 H      1   2   3     1.087064404716   111.14398564   194.54935630
 H      1   2   3     1.090431974036   109.93342379    74.63787016
 H      1   2   3     1.088213899011   110.62354196   315.76893023
 H      3   2   1     1.080627646324   119.35351360     0.89846028
 H      4   3   2     1.079404622929   121.13640187   180.37233333
 H      8   6   5     1.082905342124   115.45884086   118.09931726
 H     12  10   9     1.007170020404   123.33407176   178.92197955
 H     14  13  12     1.079207602827   121.31794020   359.73159768
 H     15  14  13     1.079594710991   119.17027880   179.97045197
 H     16  15  14     1.079241256624   119.50019550   179.95333308
 H     17  16  15     1.079177751809   120.67962090   179.81071983
 H     19   5   4     1.080829190946   120.13565032   178.89713871
 H     20  19   5     1.081060618097   119.56805745   179.98894871

---------------------------
INTERNAL COORDINATES (A.U.)
---------------------------
 C      0   0   0     0.000000000000     0.00000000     0.00000000
 C      1   0   0     2.828506783544     0.00000000     0.00000000
 C      2   1   0     2.630746501433   120.31534407     0.00000000
 C      3   2   1     2.603876659680   120.73530344   180.70384521
 C      4   3   2     2.636010393655   120.42227973   359.38448773
 C      5   4   3     2.787847791925   118.55354122   180.50534278
 O      6   5   4     2.291349667425   123.32582400   344.34445110
 C      6   5   4     2.818491014592   116.47819368   166.04625409
 C      8   6   5     2.527588163205   123.98537052   293.01703850
 C      9   8   6     2.831914158838   124.71369146     1.30444889
 O     10   9   8     2.283025076129   128.97038409   359.42050270
 N     10   9   8     2.594265708933   105.80426607   179.79633571
 C     12  10   9     2.616950316127   111.94237767     0.64599788
 C     13  12  10     2.606292875950   129.41474810   179.94653301
 C     14  13  12     2.625952352435   117.62784411   179.75637254
 C     15  14  13     2.619804417283   121.31972726     0.00000000
 C     16  15  14     2.623013365228   120.91327903     0.02982319
 C     17  16  15     2.612222365995   118.48959646   359.96647519
 C      5   4   3     2.633081907447   119.05835318     0.98890280
 C     19   5   4     2.608858722739   120.11270694   359.44599153
 H      1   2   3     2.054254014847   111.14398564   194.54935630
 H      1   2   3     2.060617798599   109.93342379    74.63787016
 H      1   2   3     2.056426244257   110.62354196   315.76893023
 H      3   2   1     2.042090304296   119.35351360     0.89846028
 H      4   3   2     2.039779125024   121.13640187   180.37233333
 H      8   6   5     2.046394525574   115.45884086   118.09931726
 H     12  10   9     1.903275508859   123.33407176   178.92197955
 H     14  13  12     2.039406810989   121.31794020   359.73159768
 H     15  14  13     2.040138339403   119.17027880   179.97045197
 H     16  15  14     2.039470407449   119.50019550   179.95333308
 H     17  16  15     2.039350400740   120.67962090   179.81071983
 H     19   5   4     2.042471168435   120.13565032   178.89713871
 H     20  19   5     2.042908502371   119.56805745   179.98894871

---------------------
BASIS SET INFORMATION
---------------------
There are 4 groups of distinct atoms

 Group   1 Type C   : 19s6p3d2f contracted to 5s4p3d2f pattern {88111/3111/111/11}
 Group   2 Type O   : 19s6p3d2f contracted to 5s4p3d2f pattern {88111/3111/111/11}
 Group   3 Type N   : 19s6p3d2f contracted to 5s4p3d2f pattern {88111/3111/111/11}
 Group   4 Type H   : 5s2p1d contracted to 3s2p1d pattern {311/11/1}

Atom   0C    basis set group =>   1
Atom   1C    basis set group =>   1
Atom   2C    basis set group =>   1
Atom   3C    basis set group =>   1
Atom   4C    basis set group =>   1
Atom   5C    basis set group =>   1
Atom   6O    basis set group =>   2
Atom   7C    basis set group =>   1
Atom   8C    basis set group =>   1
Atom   9C    basis set group =>   1
Atom  10O    basis set group =>   2
Atom  11N    basis set group =>   3
Atom  12C    basis set group =>   1
Atom  13C    basis set group =>   1
Atom  14C    basis set group =>   1
Atom  15C    basis set group =>   1
Atom  16C    basis set group =>   1
Atom  17C    basis set group =>   1
Atom  18C    basis set group =>   1
Atom  19C    basis set group =>   1
Atom  20H    basis set group =>   4
Atom  21H    basis set group =>   4
Atom  22H    basis set group =>   4
Atom  23H    basis set group =>   4
Atom  24H    basis set group =>   4
Atom  25H    basis set group =>   4
Atom  26H    basis set group =>   4
Atom  27H    basis set group =>   4
Atom  28H    basis set group =>   4
Atom  29H    basis set group =>   4
Atom  30H    basis set group =>   4
Atom  31H    basis set group =>   4
Atom  32H    basis set group =>   4
---------------------------------
AUXILIARY/J BASIS SET INFORMATION
---------------------------------
There are 4 groups of distinct atoms

 Group   1 Type C   : 10s7p5d2f1g contracted to 10s7p5d2f1g pattern {1111111111/1111111/11111/11/1}
 Group   2 Type O   : 10s7p5d2f1g contracted to 10s7p5d2f1g pattern {1111111111/1111111/11111/11/1}
 Group   3 Type N   : 10s7p5d2f1g contracted to 10s7p5d2f1g pattern {1111111111/1111111/11111/11/1}
 Group   4 Type H   : 4s3p2d1f contracted to 4s3p2d1f pattern {1111/111/11/1}

Atom   0C    basis set group =>   1
Atom   1C    basis set group =>   1
Atom   2C    basis set group =>   1
Atom   3C    basis set group =>   1
Atom   4C    basis set group =>   1
Atom   5C    basis set group =>   1
Atom   6O    basis set group =>   2
Atom   7C    basis set group =>   1
Atom   8C    basis set group =>   1
Atom   9C    basis set group =>   1
Atom  10O    basis set group =>   2
Atom  11N    basis set group =>   3
Atom  12C    basis set group =>   1
Atom  13C    basis set group =>   1
Atom  14C    basis set group =>   1
Atom  15C    basis set group =>   1
Atom  16C    basis set group =>   1
Atom  17C    basis set group =>   1
Atom  18C    basis set group =>   1
Atom  19C    basis set group =>   1
Atom  20H    basis set group =>   4
Atom  21H    basis set group =>   4
Atom  22H    basis set group =>   4
Atom  23H    basis set group =>   4
Atom  24H    basis set group =>   4
Atom  25H    basis set group =>   4
Atom  26H    basis set group =>   4
Atom  27H    basis set group =>   4
Atom  28H    basis set group =>   4
Atom  29H    basis set group =>   4
Atom  30H    basis set group =>   4
Atom  31H    basis set group =>   4
Atom  32H    basis set group =>   4
---------------------------------
AUXILIARY/C BASIS SET INFORMATION
---------------------------------
There are 4 groups of distinct atoms

 Group   1 Type C   : 9s7p6d4f2g contracted to 9s7p6d4f2g pattern {111111111/1111111/111111/1111/11}
 Group   2 Type O   : 9s7p6d4f2g contracted to 9s7p6d4f2g pattern {111111111/1111111/111111/1111/11}
 Group   3 Type N   : 9s7p6d4f2g contracted to 9s7p6d4f2g pattern {111111111/1111111/111111/1111/11}
 Group   4 Type H   : 4s3p2d1f contracted to 4s3p2d1f pattern {1111/111/11/1}

Atom   0C    basis set group =>   1
Atom   1C    basis set group =>   1
Atom   2C    basis set group =>   1
Atom   3C    basis set group =>   1
Atom   4C    basis set group =>   1
Atom   5C    basis set group =>   1
Atom   6O    basis set group =>   2
Atom   7C    basis set group =>   1
Atom   8C    basis set group =>   1
Atom   9C    basis set group =>   1
Atom  10O    basis set group =>   2
Atom  11N    basis set group =>   3
Atom  12C    basis set group =>   1
Atom  13C    basis set group =>   1
Atom  14C    basis set group =>   1
Atom  15C    basis set group =>   1
Atom  16C    basis set group =>   1
Atom  17C    basis set group =>   1
Atom  18C    basis set group =>   1
Atom  19C    basis set group =>   1
Atom  20H    basis set group =>   4
Atom  21H    basis set group =>   4
Atom  22H    basis set group =>   4
Atom  23H    basis set group =>   4
Atom  24H    basis set group =>   4
Atom  25H    basis set group =>   4
Atom  26H    basis set group =>   4
Atom  27H    basis set group =>   4
Atom  28H    basis set group =>   4
Atom  29H    basis set group =>   4
Atom  30H    basis set group =>   4
Atom  31H    basis set group =>   4
Atom  32H    basis set group =>   4


           ************************************************************
           *        Program running with 4 parallel MPI-processes     *
           *              working on a common directory               *
           ************************************************************
------------------------------------------------------------------------------
                           ORCA GTO INTEGRAL CALCULATION
                           -- RI-GTO INTEGRALS CHOSEN --
------------------------------------------------------------------------------
------------------------------------------------------------------------------
                   ___                                                        
                  /   \      - P O W E R E D   B Y -                         
                 /     \                                                     
                 |  |  |   _    _      __       _____    __    __             
                 |  |  |  | |  | |    /  \     |  _  \  |  |  /  |          
                  \  \/   | |  | |   /    \    | | | |  |  | /  /          
                 / \  \   | |__| |  /  /\  \   | |_| |  |  |/  /          
                |  |  |   |  __  | /  /__\  \  |    /   |      \           
                |  |  |   | |  | | |   __   |  |    \   |  |\   \          
                \     /   | |  | | |  |  |  |  | |\  \  |  | \   \       
                 \___/    |_|  |_| |__|  |__|  |_| \__\ |__|  \__/        
                                                                              
                      - O R C A' S   B I G   F R I E N D -                    
                                      &                                       
                       - I N T E G R A L  F E E D E R -                       
                                                                              
 v1 FN, 2020, v2 2021                                                         
------------------------------------------------------------------------------


Reading SHARK input file optpbed3-b2plyp-test-179.SHARKINP.tmp ... ok
----------------------
SHARK INTEGRAL PACKAGE
----------------------

Number of atoms                             ...     33
Number of basis functions                   ...   1222
Number of shells                            ...    478
Maximum angular momentum                    ...      3
Integral batch strategy                     ... SHARK/LIBINT Hybrid
RI-J (if used) integral strategy            ... SPLIT-RIJ (Revised 2003 algorithm where possible)
Printlevel                                  ...      1
Contraction scheme used                     ... PARTIAL GENERAL contraction
Coulomb Range Separation                    ... NOT USED
Exchange Range Separation                   ... NOT USED
Finite Nucleus Model                        ... NOT USED
Auxiliary Coulomb fitting basis             ... AVAILABLE
   # of basis functions in Aux-J            ...   1970
   # of shells in Aux-J                     ...    630
   Maximum angular momentum in Aux-J        ...      4
Auxiliary J/K fitting basis                 ... NOT available
Auxiliary Correlation fitting basis         ... AVAILABLE
   # of basis functions in Aux-C            ...   2510
   # of shells in Aux-C                     ...    690
   Maximum angular momentum in Aux-C        ...      4
Auxiliary 'external' fitting basis          ... NOT available
Integral threshold                          ...     2.500000e-11
Primitive cut-off                           ...     2.500000e-12
Primitive pair pre-selection threshold      ...     2.500000e-12

Calculating pre-screening integrals         ... done (  0.2 sec) Dimension = 478
Calculating pre-screening integrals (ORCA)  ... done (  0.5 sec) Dimension = 358
Organizing shell pair data                  ... done (  1.4 sec)
Shell pair information
Total number of shell pairs                 ...    114481
Shell pairs after pre-screening             ...     74883
Total number of primitive shell pairs       ...    148339
Primitive shell pairs kept                  ...     87741
          la=0 lb=0:  16945 shell pairs
          la=1 lb=0:  19022 shell pairs
          la=1 lb=1:   4603 shell pairs
          la=2 lb=0:  12688 shell pairs
          la=2 lb=1:   6170 shell pairs
          la=2 lb=2:   2117 shell pairs
          la=3 lb=0:   6937 shell pairs
          la=3 lb=1:   3390 shell pairs
          la=3 lb=2:   2325 shell pairs
          la=3 lb=3:    686 shell pairs

Calculating one electron integrals          ... done (  0.3 sec)
Calculating RI/J V-Matrix + Cholesky decomp.... done (  0.3 sec)
Calculating RI/C V-Matrix + Cholesky decomp.... done (  0.5 sec)
Calculating Nuclear repulsion               ... done (  0.0 sec) ENN=   1412.392096947285 Eh

SHARK setup successfully completed in   4.4 seconds

Maximum memory used throughout the entire GTOINT-calculation: 116.4 MB


           ************************************************************
           *        Program running with 4 parallel MPI-processes     *
           *              working on a common directory               *
           ************************************************************
-------------------------------------------------------------------------------
                                 ORCA SCF
-------------------------------------------------------------------------------

------------
SCF SETTINGS
------------
Hamiltonian:
 Density Functional     Method          .... DFT(GTOs)
 Exchange Functional    Exchange        .... PBE
   PBE kappa parameter   XKappa         ....  0.804000
   PBE mue parameter    XMuePBE         ....  0.219520
 Correlation Functional Correlation     .... PBE
   PBE beta parameter  CBetaPBE         ....  0.066725
 LDA part of GGA corr.  LDAOpt          .... PW91-LDA
 Gradients option       PostSCFGGA      .... off
 Hybrid DFT is turned on
   Fraction HF Exchange ScalHFX         ....  0.250000
   Scaling of DF-GGA-X  ScalDFX         ....  0.750000
   Scaling of DF-GGA-C  ScalDFC         ....  1.000000
   Scaling of DF-LDA-C  ScalLDAC        ....  1.000000
   Perturbative correction              ....  0.000000
   Density functional embedding theory  .... OFF
   NL short-range parameter             ....  6.900000
 RI-approximation to the Coulomb term is turned on
   Number of AuxJ basis functions       .... 1970
   RIJ-COSX (HFX calculated with COS-X)).... on


General Settings:
 Integral files         IntName         .... optpbed3-b2plyp-test-179
 Hartree-Fock type      HFTyp           .... RHF
 Total Charge           Charge          ....    0
 Multiplicity           Mult            ....    1
 Number of Electrons    NEL             ....  138
 Basis Dimension        Dim             .... 1102
 Nuclear Repulsion      ENuc            ....   1412.3920969473 Eh

Convergence Acceleration:
 DIIS                   CNVDIIS         .... on
   Start iteration      DIISMaxIt       ....    12
   Startup error        DIISStart       ....  0.200000
   # of expansion vecs  DIISMaxEq       ....     5
   Bias factor          DIISBfac        ....   1.050
   Max. coefficient     DIISMaxC        ....  10.000
 Trust-Rad. Augm. Hess. CNVTRAH         .... auto
   Auto Start mean grad. ratio tolernc. ....  1.125000
   Auto Start start iteration           ....    20
   Auto Start num. interpolation iter.  ....    10
   Max. Number of Micro iterations      ....    16
   Max. Number of Macro iterations      .... Maxiter - #DIIS iter
   Number of Davidson start vectors     ....     2
   Converg. threshold I  (grad. norm)   ....   1.000e-05
   Converg. threshold II (energy diff.) ....   1.000e-08
   Grad. Scal. Fac. for Micro threshold ....   0.100
   Minimum threshold for Micro iter.    ....   0.010
   NR start threshold (gradient norm)   ....   0.001
   Initial trust radius                 ....   0.400
   Minimum AH scaling param. (alpha)    ....   1.000
   Maximum AH scaling param. (alpha)    .... 1000.000
   Orbital update algorithm             .... Taylor
   White noise on init. David. guess    .... on
   Maximum white noise                  ....   0.010
   Quad. conv. algorithm                .... NR
 SOSCF                  CNVSOSCF        .... on
   Start iteration      SOSCFMaxIt      ....   150
   Startup grad/error   SOSCFStart      ....  0.003300
 Level Shifting         CNVShift        .... on
   Level shift para.    LevelShift      ....    0.2500
   Turn off err/grad.   ShiftErr        ....    0.0010
 Zerner damping         CNVZerner       .... off
 Static damping         CNVDamp         .... on
   Fraction old density DampFac         ....    0.7000
   Max. Damping (<1)    DampMax         ....    0.9800
   Min. Damping (>=0)   DampMin         ....    0.0000
   Turn off err/grad.   DampErr         ....    0.1000
 Fernandez-Rico         CNVRico         .... off

SCF Procedure:
 Maximum # iterations   MaxIter         ....   125
 SCF integral mode      SCFMode         .... Direct
   Integral package                     .... SHARK and LIBINT hybrid scheme
 Reset frequency        DirectResetFreq ....    20
 Integral Threshold     Thresh          ....  2.500e-11 Eh
 Primitive CutOff       TCut            ....  2.500e-12 Eh

Convergence Tolerance:
 Convergence Check Mode ConvCheckMode   .... Total+1el-Energy
 Convergence forced     ConvForced      .... 0
 Energy Change          TolE            ....  1.000e-08 Eh
 1-El. energy change                    ....  1.000e-05 Eh
 Orbital Gradient       TolG            ....  1.000e-05
 Orbital Rotation angle TolX            ....  1.000e-05
 DIIS Error             TolErr          ....  5.000e-07


Diagonalization of the overlap matrix:
Smallest eigenvalue                        ... 7.856e-07
Time for diagonalization                   ...    0.318 sec
Threshold for overlap eigenvalues          ... 1.000e-08
Number of eigenvalues below threshold      ... 0
Time for construction of square roots      ...    0.218 sec
Total time needed                          ...    0.545 sec

Time for model grid setup =    0.634 sec

------------------------------
INITIAL GUESS: MODEL POTENTIAL
------------------------------
Loading Hartree-Fock densities                     ... done
Calculating cut-offs                               ... done
Initializing the effective Hamiltonian             ... done
Setting up the integral package (SHARK)            ... done
Starting the Coulomb interaction                   ... done (   2.9 sec)
Reading the grid                                   ... done
Mapping shells                                     ... done
Starting the XC term evaluation                    ... done (   2.4 sec)
  promolecular density results
     # of electrons  =    137.998762222
     EX              =   -113.708184536
     EC              =     -4.635712701
     EX+EC           =   -118.343897237
Transforming the Hamiltonian                       ... done (   0.1 sec)
Diagonalizing the Hamiltonian                      ... done (   0.3 sec)
Back transforming the eigenvectors                 ... done (   0.1 sec)
Now organizing SCF variables                       ... done
                      ------------------
                      INITIAL GUESS DONE (   6.5 sec)
                      ------------------
-------------------
DFT GRID GENERATION
-------------------

General Integration Accuracy     IntAcc      ... 4.388
Radial Grid Type                 RadialGrid  ... OptM3 with GC (2021)
Angular Grid (max. ang.)         AngularGrid ... 4 (Lebedev-302)
Angular grid pruning method      GridPruning ... 4 (adaptive)
Weight generation scheme         WeightScheme... Becke
Basis function cutoff            BFCut       ... 1.0000e-11
Integration weight cutoff        WCut        ... 1.0000e-14
Angular grids for H and He will be reduced by one unit
Partially contracted basis set               ... off
Rotationally invariant grid construction     ... off

Total number of grid points                  ...   166162
Total number of batches                      ...     2613
Average number of points per batch           ...       63
Average number of grid points per atom       ...     5035
Time for grid setup =    2.254 sec

--------------------
COSX GRID GENERATION
--------------------

GRIDX 1
-------
General Integration Accuracy     IntAcc      ... 3.816
Radial Grid Type                 RadialGrid  ... OptM3 with GC (2021)
Angular Grid (max. ang.)         AngularGrid ... 1 (Lebedev-50)
Angular grid pruning method      GridPruning ... 4 (adaptive)
Weight generation scheme         WeightScheme... Becke
Basis function cutoff            BFCut       ... 1.0000e-11
Integration weight cutoff        WCut        ... 1.0000e-14
Angular grids for H and He will be reduced by one unit
Partially contracted basis set               ... on
Rotationally invariant grid construction     ... off

Total number of grid points                  ...    21175
Total number of batches                      ...      350
Average number of points per batch           ...       60
Average number of grid points per atom       ...      642
UseSFitting                                  ... on

GRIDX 2
-------
General Integration Accuracy     IntAcc      ... 4.020
Radial Grid Type                 RadialGrid  ... OptM3 with GC (2021)
Angular Grid (max. ang.)         AngularGrid ... 2 (Lebedev-110)
Angular grid pruning method      GridPruning ... 4 (adaptive)
Weight generation scheme         WeightScheme... Becke
Basis function cutoff            BFCut       ... 1.0000e-11
Integration weight cutoff        WCut        ... 1.0000e-14
Angular grids for H and He will be reduced by one unit
Partially contracted basis set               ... on
Rotationally invariant grid construction     ... off

Total number of grid points                  ...    50307
Total number of batches                      ...      802
Average number of points per batch           ...       62
Average number of grid points per atom       ...     1524
UseSFitting                                  ... on

GRIDX 3
-------
General Integration Accuracy     IntAcc      ... 4.338
Radial Grid Type                 RadialGrid  ... OptM3 with GC (2021)
Angular Grid (max. ang.)         AngularGrid ... 3 (Lebedev-194)
Angular grid pruning method      GridPruning ... 4 (adaptive)
Weight generation scheme         WeightScheme... Becke
Basis function cutoff            BFCut       ... 1.0000e-11
Integration weight cutoff        WCut        ... 1.0000e-14
Angular grids for H and He will be reduced by one unit
Partially contracted basis set               ... on
Rotationally invariant grid construction     ... off

Total number of grid points                  ...   108669
Total number of batches                      ...     1716
Average number of points per batch           ...       63
Average number of grid points per atom       ...     3293
UseSFitting                                  ... on

Time for X-Grid setup             =    6.553 sec


--------------------
CPCM SOLVATION MODEL
--------------------
CPCM parameters:
  Epsilon                                         ...       1.8819
  Refrac                                          ...       1.3749
  Rsolv                                           ...       1.3000
  Surface type                                    ... GAUSSIAN VDW
  Epsilon function type                           ...         CPCM
Solvent:                                     ... N-HEXANE
SMD-CDS solvent descriptors:
  Soln                                       ...    1.3749
  Soln25                                     ...    1.3722
  Sola                                       ...    0.0000
  Solb                                       ...    0.0000
  Solg                                       ...   25.7500
  Solc                                       ...    0.0000
  Solh                                       ...    0.0000
Radii:
 Radius for C  used is    3.4960 Bohr (=   1.8500 Ang.)
 Radius for O  used is    4.3350 Bohr (=   2.2940 Ang.)
 Radius for N  used is    3.5716 Bohr (=   1.8900 Ang.)
 Radius for H  used is    2.2677 Bohr (=   1.2000 Ang.)
Calculating surface                               ...        done! (  0.0s)
GEPOL surface points                              ...         1815
GEPOL Volume                                      ...    2029.8239
GEPOL Surface-area                                ...    1079.5964
Calculating surface distance matrix               ...        done! (  0.0s)
Performing Cholesky decomposition & store         ...        done! (  0.2s)
Overall time for CPCM initialization              ...                 0.2s
 re-compute Schwartz prescreening matrix in partically contracted basis (1) ...done (   0.241 sec)
--------------
SCF ITERATIONS
--------------
ITER       Energy         Delta-E        Max-DP      RMS-DP      [F,P]     Damp
               ***  Starting incremental Fock matrix formation  ***
  0   -859.6884766460   0.000000000000 0.18126367  0.00102194  0.2901322 0.7000
  1   -859.8995731706  -0.211096524658 0.13987650  0.00076212  0.1156351 0.7000
                               ***Turning on DIIS***
  2   -859.9874477625  -0.087874591864 0.31664500  0.00161293  0.0446000 0.0000
  3   -860.1280692099  -0.140621447405 0.04590893  0.00039056  0.0531697 0.0000
  4   -860.1548191388  -0.026749928961 0.01681998  0.00014624  0.0201275 0.0000
  5   -860.1566847653  -0.001865626486 0.00723553  0.00005643  0.0077700 0.0000
                      *** Initiating the SOSCF procedure ***
                           *** Shutting down DIIS ***
                      *** Re-Reading the Fockian *** 
                      *** Removing any level shift *** 
ITER      Energy       Delta-E        Grad      Rot      Max-DP    RMS-DP
  6   -860.15684173  -0.0001569650  0.000215  0.000215  0.006085  0.000029
               *** Restarting incremental Fock matrix formation ***
  7   -860.15685045  -0.0000087177  0.000122  0.000566  0.021207  0.000294
  8   -860.15685221  -0.0000017585  0.000152  0.000432  0.007120  0.000100
  9   -860.15685329  -0.0000010881  0.000060  0.000125  0.007228  0.000101
 10   -860.15685355  -0.0000002506  0.000031  0.000092  0.006679  0.000033
 11   -860.15685360  -0.0000000543  0.000024  0.000081  0.005623  0.000035
 12   -860.15685364  -0.0000000407  0.000009  0.000022  0.008075  0.000033
 13   -860.15685361   0.0000000255  0.000008  0.000013  0.004192  0.000023
                  ***Gradient check signals convergence***
              ***Rediagonalizing the Fockian in SOSCF/NRSCF***

               *****************************************************
               *                     SUCCESS                       *
               *           SCF CONVERGED AFTER  14 CYCLES          *
               *****************************************************

Old exchange energy                            =    -28.985647544 Eh
New exchange energy                            =    -28.985677220 Eh
Exchange energy change after final integration =     -0.000029675 Eh
Total energy after final integration           =   -860.156883292 Eh
Final COS-X integration done in                =   144.306 sec

SMD CDS free energy correction energy :                -8.49926     Kcal/mol
Total Energy after SMD CDS correction =              -860.170427717 Eh

----------------
TOTAL SCF ENERGY
----------------

Total Energy       :         -860.17042772 Eh          -23406.42730 eV

Components:
Nuclear Repulsion  :         1412.39209695 Eh           38433.14286 eV
Electronic Energy  :        -2272.56252466 Eh          -61839.57016 eV
One Electron Energy:        -3972.35744164 Eh         -108093.34135 eV
Two Electron Energy:         1699.79491698 Eh           46253.77119 eV
Max COSX asymmetry :            0.00006511 Eh               0.00177 eV
CPCM Dielectric    :           -0.01104767 Eh              -0.30062 eV
SMD CDS (Gcds)     :           -0.01354443 Eh              -0.36856 eV

Virial components:
Potential Energy   :        -1715.63699514 Eh          -46684.85605 eV
Kinetic Energy     :          855.46656743 Eh           23278.42875 eV
Virial Ratio       :            2.00549859


DFT components:
N(Alpha)           :       69.000036185763 electrons
N(Beta)            :       69.000036185763 electrons
N(Total)           :      138.000072371526 electrons
E(X)               :      -86.757549820839 Eh       
E(C)               :       -4.641077095636 Eh       
E(XC)              :      -91.398626916476 Eh       
DFET-embed. en.    :        0.000000000000 Eh       
CPCM Solvation Model Properties:
Surface-charge          :           -0.05008678
Charge-correction       :            0.00017555 Eh               0.00478 eV
Free-energy (cav+disp)  :           -0.01354443 Eh              -0.36856 eV

---------------
SCF CONVERGENCE
---------------

  Last Energy change         ...   -1.5860e-09  Tolerance :   1.0000e-08
  Last MAX-Density change    ...    4.6629e-15  Tolerance :   1.0000e-07
  Last RMS-Density change    ...    1.3384e-17  Tolerance :   5.0000e-09
  Last Orbital Gradient      ...    2.1636e-06  Tolerance :   1.0000e-05
  Last Orbital Rotation      ...    5.5039e-06  Tolerance :   1.0000e-05

             **** THE GBW FILE WAS UPDATED (optpbed3-b2plyp-test-179.gbw) ****
             **** DENSITY optpbed3-b2plyp-test-179.scfp WAS UPDATED ****
             **** ENERGY FILE WAS UPDATED (optpbed3-b2plyp-test-179.en.tmp) ****
             **** THE GBW FILE WAS UPDATED (optpbed3-b2plyp-test-179.gbw) ****
             **** DENSITY optpbed3-b2plyp-test-179.scfp WAS UPDATED ****
----------------
ORBITAL ENERGIES
----------------

  NO   OCC          E(Eh)            E(eV) 
   0   2.0000     -19.200218      -522.4645 
   1   2.0000     -19.191722      -522.2333 
   2   2.0000     -14.433151      -392.7460 
   3   2.0000     -10.338821      -281.3336 
   4   2.0000     -10.318872      -280.7908 
   5   2.0000     -10.283699      -279.8337 
   6   2.0000     -10.261943      -279.2417 
   7   2.0000     -10.257589      -279.1232 
   8   2.0000     -10.245942      -278.8063 
   9   2.0000     -10.244187      -278.7585 
  10   2.0000     -10.242830      -278.7216 
  11   2.0000     -10.240609      -278.6611 
  12   2.0000     -10.239110      -278.6203 
  13   2.0000     -10.234317      -278.4899 
  14   2.0000     -10.233558      -278.4693 
  15   2.0000     -10.231611      -278.4163 
  16   2.0000     -10.229172      -278.3499 
  17   2.0000     -10.226691      -278.2824 
  18   2.0000     -10.225469      -278.2492 
  19   2.0000     -10.217763      -278.0395 
  20   2.0000      -1.090325       -29.6693 
  21   2.0000      -1.076830       -29.3020 
  22   2.0000      -1.004939       -27.3458 
  23   2.0000      -0.895705       -24.3734 
  24   2.0000      -0.890246       -24.2248 
  25   2.0000      -0.854665       -23.2566 
  26   2.0000      -0.812772       -22.1167 
  27   2.0000      -0.784451       -21.3460 
  28   2.0000      -0.776163       -21.1205 
  29   2.0000      -0.771343       -20.9893 
  30   2.0000      -0.731824       -19.9139 
  31   2.0000      -0.712434       -19.3863 
  32   2.0000      -0.652931       -17.7672 
  33   2.0000      -0.637235       -17.3400 
  34   2.0000      -0.631683       -17.1890 
  35   2.0000      -0.619652       -16.8616 
  36   2.0000      -0.603077       -16.4106 
  37   2.0000      -0.568957       -15.4821 
  38   2.0000      -0.563165       -15.3245 
  39   2.0000      -0.531177       -14.4541 
  40   2.0000      -0.514318       -13.9953 
  41   2.0000      -0.494311       -13.4509 
  42   2.0000      -0.486419       -13.2361 
  43   2.0000      -0.478461       -13.0196 
  44   2.0000      -0.475385       -12.9359 
  45   2.0000      -0.467795       -12.7293 
  46   2.0000      -0.461807       -12.5664 
  47   2.0000      -0.460986       -12.5441 
  48   2.0000      -0.451503       -12.2860 
  49   2.0000      -0.442170       -12.0321 
  50   2.0000      -0.437990       -11.9183 
  51   2.0000      -0.436074       -11.8662 
  52   2.0000      -0.422559       -11.4984 
  53   2.0000      -0.409031       -11.1303 
  54   2.0000      -0.402002       -10.9390 
  55   2.0000      -0.395063       -10.7502 
  56   2.0000      -0.388688       -10.5767 
  57   2.0000      -0.369965       -10.0673 
  58   2.0000      -0.368735       -10.0338 
  59   2.0000      -0.364915        -9.9298 
  60   2.0000      -0.350758        -9.5446 
  61   2.0000      -0.342414        -9.3176 
  62   2.0000      -0.330612        -8.9964 
  63   2.0000      -0.293683        -7.9915 
  64   2.0000      -0.274234        -7.4623 
  65   2.0000      -0.270733        -7.3670 
  66   2.0000      -0.264741        -7.2040 
  67   2.0000      -0.256516        -6.9802 
  68   2.0000      -0.236419        -6.4333 
  69   0.0000      -0.085304        -2.3212 
  70   0.0000      -0.049212        -1.3391 
  71   0.0000      -0.015501        -0.4218 
  72   0.0000      -0.010529        -0.2865 
  73   0.0000      -0.000309        -0.0084 
  74   0.0000       0.007753         0.2110 
  75   0.0000       0.011557         0.3145 
  76   0.0000       0.012504         0.3402 
  77   0.0000       0.018418         0.5012 
  78   0.0000       0.024051         0.6545 
  79   0.0000       0.029106         0.7920 
  80   0.0000       0.032626         0.8878 
  81   0.0000       0.035439         0.9643 
  82   0.0000       0.038294         1.0420 
  83   0.0000       0.042270         1.1502 
  84   0.0000       0.049068         1.3352 
  85   0.0000       0.051244         1.3944 
  86   0.0000       0.054533         1.4839 
  87   0.0000       0.055859         1.5200 
  88   0.0000       0.061262         1.6670 
  89   0.0000       0.063361         1.7241 
  90   0.0000       0.069960         1.9037 
  91   0.0000       0.072167         1.9638 
  92   0.0000       0.075829         2.0634 
  93   0.0000       0.082448         2.2435 
  94   0.0000       0.083819         2.2808 
  95   0.0000       0.086365         2.3501 
  96   0.0000       0.090296         2.4571 
  97   0.0000       0.092416         2.5148 
  98   0.0000       0.099485         2.7071 
  99   0.0000       0.101900         2.7728 
 100   0.0000       0.104220         2.8360 
 101   0.0000       0.108109         2.9418 
 102   0.0000       0.109181         2.9710 
 103   0.0000       0.114059         3.1037 
 104   0.0000       0.116117         3.1597 
 105   0.0000       0.121176         3.2974 
 106   0.0000       0.122222         3.3258 
 107   0.0000       0.123346         3.3564 
 108   0.0000       0.127076         3.4579 
 109   0.0000       0.128270         3.4904 
 110   0.0000       0.133130         3.6226 
 111   0.0000       0.135592         3.6896 
 112   0.0000       0.136948         3.7265 
 113   0.0000       0.138140         3.7590 
 114   0.0000       0.139740         3.8025 
 115   0.0000       0.142434         3.8758 
 116   0.0000       0.144045         3.9197 
 117   0.0000       0.146307         3.9812 
 118   0.0000       0.149186         4.0596 
 119   0.0000       0.151559         4.1241 
 120   0.0000       0.153466         4.1760 
 121   0.0000       0.155880         4.2417 
 122   0.0000       0.158336         4.3085 
 123   0.0000       0.160582         4.3697 
 124   0.0000       0.163314         4.4440 
 125   0.0000       0.164924         4.4878 
 126   0.0000       0.169071         4.6006 
[...]
   (ab|v) reading and digestion   ...   272.80 sec
   Final sigma-completion         ...     0.02 sec
   Done building sigma-vectors             Size of expansion space: 50
   Lowest Energy          :     0.147654470385
   Maximum Energy change  :     0.000018962629 (vector 9)
   Maximum residual norm  :     0.000005388437

                       ****Iteration    9****
              <<< Entering MO-section for Build Sigma(Double) >>>
   Forming the XC and CPCM contribution:
   Time for densities:            0.229
   Time for XC-Integration:      23.946
   Time for LR-CPCM terms:       13.463
   Time for Sigma-Completion:     0.173
   Time for building 10 sigma-vectors
   Data Preparation Phase         ...     0.01 sec
   Transformed RI Coulomb         ...     0.79 sec
   Transformed RI-exchange        ...   307.54 sec
   (ab|v) reading and digestion   ...   271.14 sec
   Final sigma-completion         ...     0.01 sec
   Done building sigma-vectors             Size of expansion space: 60
   Lowest Energy          :     0.147654470102
   Maximum Energy change  :     0.000022974770 (vector 9)
   Maximum residual norm  :     0.000006526457

                       ****Iteration   10****
              <<< Entering MO-section for Build Sigma(Double) >>>
   Forming the XC and CPCM contribution:
   Time for densities:            0.229
   Time for XC-Integration:      24.153
   Time for LR-CPCM terms:       13.603
   Time for Sigma-Completion:     0.189
   Time for building 10 sigma-vectors
   Data Preparation Phase         ...     0.01 sec
   Transformed RI Coulomb         ...     0.75 sec
   Transformed RI-exchange        ...   300.43 sec
   (ab|v) reading and digestion   ...   271.77 sec
   Final sigma-completion         ...     0.02 sec
   Done building sigma-vectors             Size of expansion space: 70
   Lowest Energy          :     0.147654470084
   Maximum Energy change  :     0.000013221414 (vector 9)
   Maximum residual norm  :     0.000001941310
   Rebuilding the expansion space

                       ****Iteration   11****
              <<< Entering MO-section for Build Sigma(Double) >>>
   Forming the XC and CPCM contribution:
   Time for densities:            0.460
   Time for XC-Integration:      45.850
   Time for LR-CPCM terms:       20.696
   Time for Sigma-Completion:     0.335
   Time for building 20 sigma-vectors
   Data Preparation Phase         ...     0.02 sec
   Transformed RI Coulomb         ...     1.29 sec
   Transformed RI-exchange        ...   699.31 sec
   (ab|v) reading and digestion   ...   658.45 sec
   Final sigma-completion         ...     0.02 sec
   Done building sigma-vectors             Size of expansion space: 20
   Lowest Energy          :     0.147654470078
   Maximum Energy change  :     0.000003203738 (vector 9)
   Maximum residual norm  :     0.000000538647

      *** CONVERGENCE OF RESIDUAL NORM REACHED ***

Storing the converged CI vectors               ... optpbed3-b2plyp-test-179_job2.cis1

                 *** DAVIDSON DONE ***

Total time for solving the CIS problem:  4833.101sec

------------------
DOUBLES CORRECTION (Double precision version)
------------------

The (D) correction will be scaled by  0.2700
Doing v(i,a)*T(i,a) terms (RI)                    ... ok
Doing u(i,j,a,b) terms for state   0              ... ok
Doing u(i,j,a,b) terms for state   1              ... ok
Doing u(i,j,a,b) terms for state   2              ... ok
Doing u(i,j,a,b) terms for state   3              ... ok
Doing u(i,j,a,b) terms for state   4              ... ok
Doing u(i,j,a,b) terms for state   5              ... ok
Doing u(i,j,a,b) terms for state   6              ... ok
Doing u(i,j,a,b) terms for state   7              ... ok
Doing u(i,j,a,b) terms for state   8              ... ok
Doing u(i,j,a,b) terms for state   9              ... ok

Contributions to the (D) correction(s) (in eV)

STATE  Final   Init.   Total   v(ext)   v(int)  v(3)    u
       omega   omega     (D)                             
-----------------------------------------------------------------------------
   0   3.498   4.018  -0.520   0.577   0.979  -0.046  -2.029
   1   3.804   4.364  -0.561   0.637   0.808  -0.030  -1.976
   2   4.085   4.861  -0.776   0.624   0.837  -0.024  -2.214
   3   4.457   4.914  -0.457   0.575   0.912  -0.046  -1.899
   4   4.624   5.158  -0.535   0.565   0.915  -0.031  -1.984
   5   4.694   5.224  -0.530   0.583   0.937  -0.041  -2.008
   6   4.514   5.245  -0.730   0.590   0.961  -0.014  -2.267
   7   4.829   5.462  -0.633   0.553   0.938  -0.031  -2.094
   8   5.365   5.599  -0.234   0.074   0.982  -0.006  -1.284
   9   5.176   5.645  -0.469   0.474   0.947  -0.052  -1.838

(D)-timings
 V(i,a)*T(i,a) terms           ...   700.867 sec
 U(i,j,a,b) 3-internal         ...    16.609 sec
 U(i,j,a,b) 3-external         ...   357.297 sec
 U(i,j,a,b) pair terms         ...   404.135 sec
 Total measured time           ...  3004.913 sec

 Time for (ab|v) I/O           ...   101.914 sec


------------------------------------
TD-DFT/TDA EXCITED STATES (SINGLETS)
------------------------------------

the weight of the individual excitations are printed if larger than 1.0e-02

STATE  1:  E=   0.128550 au      3.498 eV    28213.4 cm**-1 <S**2> =   0.000000
    68a ->  69a  :     0.917072 (c=  0.95763874)
    68a ->  70a  :     0.013667 (c=  0.11690636)

STATE  2:  E=   0.139782 au      3.804 eV    30678.6 cm**-1 <S**2> =   0.000000
    63a ->  69a  :     0.016418 (c= -0.12813322)
    63a ->  70a  :     0.080799 (c=  0.28425159)
    64a ->  69a  :     0.201756 (c=  0.44917248)
    64a ->  70a  :     0.388877 (c= -0.62360041)
    64a ->  81a  :     0.010302 (c=  0.10150005)
    64a ->  92a  :     0.018360 (c= -0.13549767)
    64a ->  96a  :     0.032480 (c=  0.18022312)
    66a ->  69a  :     0.049113 (c=  0.22161552)
    66a ->  70a  :     0.029378 (c= -0.17140082)
    68a ->  70a  :     0.060033 (c= -0.24501681)

STATE  3:  E=   0.150103 au      4.085 eV    32943.9 cm**-1 <S**2> =   0.000000
    63a ->  69a  :     0.320264 (c= -0.56591858)
    63a ->  74a  :     0.010204 (c=  0.10101372)
    63a ->  75a  :     0.011736 (c=  0.10833186)
    63a ->  84a  :     0.011439 (c= -0.10695170)
    63a ->  85a  :     0.017857 (c= -0.13363074)
    64a ->  69a  :     0.216368 (c= -0.46515330)
    64a ->  70a  :     0.059122 (c= -0.24314938)
    66a ->  69a  :     0.063601 (c= -0.25219151)
    67a ->  69a  :     0.150009 (c= -0.38731060)
    67a ->  70a  :     0.010678 (c=  0.10333336)

STATE  4:  E=   0.163784 au      4.457 eV    35946.4 cm**-1 <S**2> =   0.000000
    63a ->  69a  :     0.025113 (c=  0.15847011)
    64a ->  69a  :     0.049034 (c=  0.22143717)
    64a ->  70a  :     0.011172 (c= -0.10569947)
    66a ->  69a  :     0.655058 (c= -0.80935669)
    67a ->  69a  :     0.011436 (c=  0.10694001)
    67a ->  70a  :     0.054907 (c=  0.23432335)
    68a ->  69a  :     0.013175 (c= -0.11478443)
    68a ->  70a  :     0.014130 (c=  0.11886949)
    68a ->  74a  :     0.036302 (c=  0.19053177)
    68a ->  75a  :     0.036129 (c=  0.19007641)
    68a ->  77a  :     0.012819 (c=  0.11321914)

STATE  5:  E=   0.169923 au      4.624 eV    37293.8 cm**-1 <S**2> =   0.000000
    63a ->  69a  :     0.017795 (c=  0.13339633)
    64a ->  69a  :     0.034653 (c=  0.18615286)
    65a ->  69a  :     0.134560 (c= -0.36682419)
    65a ->  70a  :     0.376115 (c=  0.61328220)
    67a ->  69a  :     0.168839 (c= -0.41089977)
    67a ->  76a  :     0.153825 (c= -0.39220540)
    68a ->  70a  :     0.045048 (c=  0.21224430)

STATE  6:  E=   0.172516 au      4.694 eV    37863.0 cm**-1 <S**2> =   0.000000
    63a ->  69a  :     0.018747 (c= -0.13691915)
    64a ->  69a  :     0.013946 (c= -0.11809153)
    65a ->  69a  :     0.077793 (c= -0.27891356)
    65a ->  70a  :     0.114867 (c=  0.33892097)
    65a ->  76a  :     0.018757 (c= -0.13695742)
    66a ->  70a  :     0.042780 (c= -0.20683298)
    67a ->  69a  :     0.326436 (c=  0.57134607)
    67a ->  70a  :     0.115447 (c= -0.33977469)
    67a ->  76a  :     0.034914 (c= -0.18685227)
    68a ->  70a  :     0.139134 (c= -0.37300718)
    68a ->  74a  :     0.011781 (c=  0.10853997)
    68a ->  75a  :     0.014890 (c=  0.12202649)

STATE  7:  E=   0.165893 au      4.514 eV    36409.3 cm**-1 <S**2> =   0.000000
    62a ->  70a  :     0.027099 (c=  0.16461709)
    63a ->  69a  :     0.097618 (c= -0.31243829)
    64a ->  70a  :     0.028551 (c= -0.16897031)
    66a ->  70a  :     0.022059 (c=  0.14852240)
    67a ->  69a  :     0.092890 (c=  0.30477784)
    67a ->  70a  :     0.082453 (c= -0.28714697)
    68a ->  69a  :     0.015972 (c= -0.12638087)
    68a ->  70a  :     0.555371 (c=  0.74523247)

STATE  8:  E=   0.177462 au      4.829 eV    38948.4 cm**-1 <S**2> =   0.000000
    64a ->  69a  :     0.078156 (c=  0.27956483)
    64a ->  70a  :     0.032364 (c=  0.17990064)
    65a ->  70a  :     0.043177 (c= -0.20779163)
    65a ->  76a  :     0.017427 (c= -0.13201161)
    67a ->  69a  :     0.199375 (c= -0.44651471)
    67a ->  70a  :     0.361136 (c= -0.60094618)
    67a ->  76a  :     0.010917 (c=  0.10448671)
    68a ->  74a  :     0.061569 (c=  0.24813077)
    68a ->  75a  :     0.061975 (c=  0.24894790)
    68a ->  77a  :     0.020640 (c=  0.14366602)

STATE  9:  E=   0.197171 au      5.365 eV    43274.0 cm**-1 <S**2> =   0.000000
    66a ->  69a  :     0.012507 (c= -0.11183263)
    67a ->  70a  :     0.013009 (c= -0.11405883)
    68a ->  71a  :     0.734977 (c=  0.85730809)
    68a ->  72a  :     0.071106 (c=  0.26665768)
    68a ->  73a  :     0.010231 (c=  0.10114674)
    68a ->  74a  :     0.034443 (c= -0.18558827)
    68a ->  82a  :     0.018438 (c= -0.13578550)

STATE 10:  E=   0.190232 au      5.176 eV    41751.1 cm**-1 <S**2> =   0.000000
    61a ->  69a  :     0.016903 (c= -0.13001291)
    63a ->  69a  :     0.016006 (c=  0.12651454)
    65a ->  69a  :     0.036927 (c= -0.19216431)
    65a ->  70a  :     0.021992 (c= -0.14829713)
    65a ->  76a  :     0.028394 (c= -0.16850438)
    66a ->  69a  :     0.124347 (c= -0.35262820)
    66a ->  84a  :     0.018495 (c= -0.13599662)
    67a ->  70a  :     0.136112 (c= -0.36893311)
    68a ->  71a  :     0.040050 (c= -0.20012435)
    68a ->  72a  :     0.015531 (c= -0.12462500)
    68a ->  74a  :     0.159143 (c= -0.39892700)
    68a ->  75a  :     0.192056 (c= -0.43824242)
    68a ->  77a  :     0.055265 (c= -0.23508451)


-----------------------------
TD-DFT/TDA-EXCITATION SPECTRA
-----------------------------

Center of mass = ( -0.5123,  0.5722, -0.1188)
Calculating the Dipole integrals                  ... done
Transforming integrals                            ... done
Calculating the Linear Momentum integrals         ... done
Transforming integrals                            ... done
Calculating angular momentum integrals            ... done
Transforming integrals                            ... done

-----------------------------------------------------------------------------
         ABSORPTION SPECTRUM VIA TRANSITION ELECTRIC DIPOLE MOMENTS
-----------------------------------------------------------------------------
State   Energy    Wavelength  fosc         T2        TX        TY        TZ  
        (cm-1)      (nm)                 (au**2)    (au)      (au)      (au) 
-----------------------------------------------------------------------------
   1   28213.4    354.4   0.135030972   1.57563  -1.05226  -0.39880  -0.55617
   2   30678.6    326.0   0.006393648   0.06861  -0.21642  -0.04067   0.14184
   3   32943.9    303.5   0.048802630   0.48769   0.67683  -0.09899  -0.14069
   4   35946.4    278.2   0.307448309   2.81574   1.64434   0.24493  -0.22778
   5   37293.8    268.1   0.040023705   0.35331   0.03185  -0.59271  -0.03148
   6   37863.0    264.1   0.124826426   1.08534  -0.84726   0.43273   0.42455
   7   36409.3    274.7   0.057683063   0.52157  -0.65127   0.26511   0.16472
   8   38948.4    256.7   0.235099854   1.98718  -1.30834   0.28518   0.44056
   9   43274.0    231.1   0.026822890   0.20406   0.38345   0.15861  -0.17852
  10   41751.1    239.5   0.345605125   2.72513   1.14286   0.97415  -0.68560

-----------------------------------------------------------------------------
         ABSORPTION SPECTRUM VIA TRANSITION VELOCITY DIPOLE MOMENTS
-----------------------------------------------------------------------------
State   Energy    Wavelength   fosc        P2         PX        PY        PZ  
        (cm-1)      (nm)                 (au**2)     (au)      (au)      (au) 
-----------------------------------------------------------------------------
   1   28213.4    354.4   0.083875488   0.01617   0.11614   0.01512  -0.04956
   2   30678.6    326.0   0.005252497   0.00110   0.03067  -0.00717  -0.01047
   3   32943.9    303.5   0.058899107   0.01326  -0.11066   0.02796   0.01529
   4   35946.4    278.2   0.253975671   0.06240  -0.24221  -0.03750   0.04820
   5   37293.8    268.1   0.003621770   0.00092  -0.01584   0.02565   0.00377
   6   37863.0    264.1   0.050730909   0.01313   0.10814  -0.02948  -0.02375
   7   36409.3    274.7   0.041998810   0.01045   0.09479  -0.02232  -0.03112
   8   38948.4    256.7   0.167436363   0.04457   0.20752  -0.01395  -0.03619
   9   43274.0    231.1   0.012544682   0.00371  -0.05912   0.00111   0.01462
  10   41751.1    239.5   0.138850657   0.03962  -0.15932  -0.10275   0.06068

-------------------------------------------------------------------
                             CD SPECTRUM
-------------------------------------------------------------------
State  Energy     Wavelength     R         MX        MY        MZ   
       (cm-1)       (nm)     (1e40*cgs)   (au)      (au)      (au)  
-------------------------------------------------------------------
   1   28213.4    354.4    -84.53339   0.22399  -0.42237   0.20146
   2   30678.6    326.0     -3.28614  -0.04079   0.45341   0.01863
   3   32943.9    303.5    -36.70369  -0.10120   0.01400   0.05665
   4   35946.4    278.2    114.72644   0.09009   0.05353  -0.36046
   5   37293.8    268.1      0.25934  -0.01816   0.01228  -0.26711
   6   37863.0    264.1     27.56593  -0.08010  -0.08852   0.06809
   7   36409.3    274.7     12.54946  -0.01679  -0.03945   0.15871
   8   38948.4    256.7    138.04135  -0.08329   0.09666   0.35471
   9   43274.0    231.1      9.88585   0.13239  -0.03743   0.13364
  10   41751.1    239.5    -58.27542   0.12385  -0.35891  -0.12321

-------------------------------------------------------------------
         CD SPECTRUM VIA TRANSITION VELOCITY DIPOLE MOMENTS        
-------------------------------------------------------------------
State  Energy     Wavelength     R         MX        MY        MZ   
       (cm-1)       (nm)     (1e40*cgs)   (au)      (au)      (au)  
-------------------------------------------------------------------
   1   28213.4    354.4     35.36622   0.22399  -0.42237   0.20146
   2   30678.6    326.0    -15.83774  -0.04079   0.45341   0.01863
   3   32943.9    303.5     39.12487  -0.10120   0.01400   0.05665
   4   35946.4    278.2    -118.59544   0.09009   0.05353  -0.36046
   5   37293.8    268.1     -1.12314  -0.01816   0.01228  -0.26711
   6   37863.0    264.1    -20.96000  -0.08010  -0.08852   0.06809
   7   36409.3    274.7    -16.05410  -0.01679  -0.03945   0.15871
   8   38948.4    256.7    -83.60046  -0.08329   0.09666   0.35471
   9   43274.0    231.1    -14.14291   0.13239  -0.03743   0.13364
  10   41751.1    239.5     23.96011   0.12385  -0.35891  -0.12321

Total run time:     7845.619 sec

           *** ORCA-CIS/TD-DFT FINISHED WITHOUT ERROR ***

Maximum memory used throughout the entire CIS-calculation: 1352.4 MB

-----------------------
CIS/TD-DFT TOTAL ENERGY
-----------------------

    E(SCF)  =   -859.376494952 Eh
    DE(CIS) =      0.128549879 Eh (Root  1)
    ----------------------------- ---------
    E(tot)  =   -859.247945073 Eh



-------------------------------------------------------------------------------
                          DFT DISPERSION CORRECTION                            
                                                                               
                              DFTD3 V3.1  Rev 1                                
                          USING Becke-Johnson damping                          
-------------------------------------------------------------------------------
The B2PLYP functional is recognized
Active option DFTDOPT                   ...         4   

molecular C6(AA) [au] = 13902.124913 


            DFT-D V3
 parameters
 s6 scaling factor         :     0.6400 
 a1 scaling factor         :     0.3065 
 s8 scaling factor         :     0.9147 
 a2 scaling factor         :     5.0570 
 ad hoc parameters k1-k3   :    16.0000     1.3333    -4.0000 

 Edisp/kcal,au: -21.721631235138  -0.034615619072 
 E6   /kcal   : -12.110365350 
 E8   /kcal   :  -9.611265885 
 % E8         :  44.247440633 

-------------------------   ----------------
Dispersion correction           -0.034615619
-------------------------   ----------------


-------------------------   --------------------
FINAL SINGLE POINT ENERGY      -859.282560692095
-------------------------   --------------------


                            ***************************************
                            *     ORCA property calculations      *
                            ***************************************


  WARNING: The energy has been calculated at the MP2 level but the densities
           used in the property calculations are still SCF densities
           MP2 response densities have not been calculated 
           use %mp2 Density relaxed end
           or  %mp2 Density unrelaxed end

                                    ---------------------
                                    Active property flags
                                    ---------------------
   (+) Dipole Moment


------------------------------------------------------------------------------
                       ORCA ELECTRIC PROPERTIES CALCULATION
------------------------------------------------------------------------------

Dipole Moment Calculation                       ... on
Quadrupole Moment Calculation                   ... off
Polarizability Calculation                      ... off
GBWName                                         ... optpbed3-b2plyp-test-179_job2.gbw
Electron density                                ... optpbed3-b2plyp-test-179_job2.scfp
The origin for moment calculation is the CENTER OF MASS  = (-0.512320,  0.572204 -0.118784)

-------------
DIPOLE MOMENT
-------------
                                X             Y             Z
Electronic contribution:     -9.53214       7.01857      -0.97809
Nuclear contribution   :      8.97432      -9.07857       1.51312
                        -----------------------------------------
Total Dipole Moment    :     -0.55783      -2.06000       0.53502
                        -----------------------------------------
Magnitude (a.u.)       :      2.20023
Magnitude (Debye)      :      5.59255



--------------------
Rotational spectrum 
--------------------
 
Rotational constants in cm-1:     0.026696     0.005699     0.005501 
Rotational constants in MHz :   800.313879   170.850373   164.919775 

 Dipole components along the rotational axes: 
x,y,z [a.u.] :     0.796220     1.880490    -0.819035 
x,y,z [Debye]:     2.023831     4.779826    -2.081821 

 

Timings for individual modules:

Sum of individual times         ...     9769.755 sec (= 162.829 min)
GTO integral calculation        ...        4.886 sec (=   0.081 min)   0.1 %
SCF iterations                  ...      989.419 sec (=  16.490 min)  10.1 %
MP2 module                      ...      929.166 sec (=  15.486 min)   9.5 %
CIS module                      ...     7846.284 sec (= 130.771 min)  80.3 %



                             ****ORCA TERMINATED NORMALLY****
TOTAL RUN TIME: 0 days 5 hours 57 minutes 48 seconds 170 msec
