
                                 *****************
                                 * O   R   C   A *
                                 *****************

                                            #,                                       
                                            ###                                      
                                            ####                                     
                                            #####                                    
                                            ######                                   
                                           ########,                                 
                                     ,,################,,,,,                         
                               ,,#################################,,                 
                          ,,##########################################,,             
                       ,#########################################, ''#####,          
                    ,#############################################,,   '####,        
                  ,##################################################,,,,####,       
                ,###########''''           ''''###############################       
              ,#####''   ,,,,##########,,,,          '''####'''          '####       
            ,##' ,,,,###########################,,,                        '##       
           ' ,,###''''                  '''############,,,                           
         ,,##''                                '''############,,,,        ,,,,,,###''
      ,#''                                            '''#######################'''  
     '                                                          ''''####''''         
             ,#######,   #######,   ,#######,      ##                                
            ,#'     '#,  ##    ##  ,#'     '#,    #''#        ######   ,####,        
            ##       ##  ##   ,#'  ##            #'  '#       #        #'  '#        
            ##       ##  #######   ##           ,######,      #####,   #    #        
            '#,     ,#'  ##    ##  '#,     ,#' ,#      #,         ##   #,  ,#        
             '#######'   ##     ##  '#######'  #'      '#     #####' # '####'        



                  #######################################################
                  #                        -***-                        #
                  #          Department of theory and spectroscopy      #
                  #    Directorship and core code : Frank Neese         #
                  #        Max Planck Institute fuer Kohlenforschung    #
                  #                Kaiser Wilhelm Platz 1               #
                  #                 D-45470 Muelheim/Ruhr               #
                  #                      Germany                        #
                  #                                                     #
                  #                  All rights reserved                #
                  #                        -***-                        #
                  #######################################################


                         Program Version 5.0.2 -  RELEASE  -


 With contributions from (in alphabetic order):
   Daniel Aravena         : Magnetic Suceptibility
   Michael Atanasov       : Ab Initio Ligand Field Theory (pilot matlab implementation)
   Alexander A. Auer      : GIAO ZORA, VPT2 properties, NMR spectrum
   Ute Becker             : Parallelization
   Giovanni Bistoni       : ED, misc. LED, open-shell LED, HFLD
   Martin Brehm           : Molecular dynamics
   Dmytro Bykov           : SCF Hessian
   Vijay G. Chilkuri      : MRCI spin determinant printing, contributions to CSF-ICE
   Dipayan Datta          : RHF DLPNO-CCSD density
   Achintya Kumar Dutta   : EOM-CC, STEOM-CC
   Dmitry Ganyushin       : Spin-Orbit,Spin-Spin,Magnetic field MRCI
   Miquel Garcia          : C-PCM and meta-GGA Hessian, CC/C-PCM, Gaussian charge scheme
   Yang Guo               : DLPNO-NEVPT2, F12-NEVPT2, CIM, IAO-localization
   Andreas Hansen         : Spin unrestricted coupled pair/coupled cluster methods
   Benjamin Helmich-Paris : MC-RPA, TRAH-SCF, COSX integrals
   Lee Huntington         : MR-EOM, pCC
   Robert Izsak           : Overlap fitted RIJCOSX, COSX-SCS-MP3, EOM
   Marcus Kettner         : VPT2
   Christian Kollmar      : KDIIS, OOCD, Brueckner-CCSD(T), CCSD density, CASPT2, CASPT2-K
   Simone Kossmann        : Meta GGA functionals, TD-DFT gradient, OOMP2, MP2 Hessian
   Martin Krupicka        : Initial AUTO-CI
   Lucas Lang             : DCDCAS
   Marvin Lechner         : AUTO-CI (C++ implementation), FIC-MRCC
   Dagmar Lenk            : GEPOL surface, SMD
   Dimitrios Liakos       : Extrapolation schemes; Compound Job, initial MDCI parallelization
   Dimitrios Manganas     : Further ROCIS development; embedding schemes
   Dimitrios Pantazis     : SARC Basis sets
   Anastasios Papadopoulos: AUTO-CI, single reference methods and gradients
   Taras Petrenko         : DFT Hessian,TD-DFT gradient, ASA, ECA, R-Raman, ABS, FL, XAS/XES, NRVS
   Peter Pinski           : DLPNO-MP2, DLPNO-MP2 Gradient
   Christoph Reimann      : Effective Core Potentials
   Marius Retegan         : Local ZFS, SOC
   Christoph Riplinger    : Optimizer, TS searches, QM/MM, DLPNO-CCSD(T), (RO)-DLPNO pert. Triples
   Tobias Risthaus        : Range-separated hybrids, TD-DFT gradient, RPA, STAB
   Michael Roemelt        : Original ROCIS implementation
   Masaaki Saitow         : Open-shell DLPNO-CCSD energy and density
   Barbara Sandhoefer     : DKH picture change effects
   Avijit Sen             : IP-ROCIS
   Kantharuban Sivalingam : CASSCF convergence, NEVPT2, FIC-MRCI
   Bernardo de Souza      : ESD, SOC TD-DFT
   Georgi Stoychev        : AutoAux, RI-MP2 NMR, DLPNO-MP2 response
   Willem Van den Heuvel  : Paramagnetic NMR
   Boris Wezisla          : Elementary symmetry handling
   Frank Wennmohs         : Technical directorship


 We gratefully acknowledge several colleagues who have allowed us to
 interface, adapt or use parts of their codes:
   Stefan Grimme, W. Hujo, H. Kruse, P. Pracht,  : VdW corrections, initial TS optimization,
                  C. Bannwarth, S. Ehlert          DFT functionals, gCP, sTDA/sTD-DF
   Ed Valeev, F. Pavosevic, A. Kumar             : LibInt (2-el integral package), F12 methods
   Garnet Chan, S. Sharma, J. Yang, R. Olivares  : DMRG
   Ulf Ekstrom                                   : XCFun DFT Library
   Mihaly Kallay                                 : mrcc  (arbitrary order and MRCC methods)
   Jiri Pittner, Ondrej Demel                    : Mk-CCSD
   Frank Weinhold                                : gennbo (NPA and NBO analysis)
   Christopher J. Cramer and Donald G. Truhlar   : smd solvation model
   Lars Goerigk                                  : TD-DFT with DH, B97 family of functionals
   V. Asgeirsson, H. Jonsson                     : NEB implementation
   FAccTs GmbH                                   : IRC, NEB, NEB-TS, DLPNO-Multilevel, CI-OPT
                                                   MM, QMMM, 2- and 3-layer-ONIOM, Crystal-QMMM,
                                                   LR-CPCM, SF, NACMEs, symmetry and pop. for TD-DFT,
                                                   nearIR, NL-DFT gradient (VV10), updates on ESD,
                                                   ML-optimized integration grids
   S Lehtola, MJT Oliveira, MAL Marques          : LibXC Library
   Liviu Ungur et al                             : ANISO software


 Your calculation uses the libint2 library for the computation of 2-el integrals
 For citations please refer to: http://libint.valeyev.net

 Your ORCA version has been built with support for libXC version: 5.1.0
 For citations please refer to: https://tddft.org/programs/libxc/

 This ORCA versions uses:
   CBLAS   interface :  Fast vector & matrix operations
   LAPACKE interface :  Fast linear algebra routines
   SCALAPACK package :  Parallel linear algebra routines
   Shared memory     :  Shared parallel matrices
   BLAS/LAPACK       :  OpenBLAS 0.3.15  USE64BITINT DYNAMIC_ARCH NO_AFFINITY Sandybridge SINGLE_THREADED
        Core in use  :  Sandybridge
   Copyright (c) 2011-2014, The OpenBLAS Project


Your calculation utilizes the atom-pairwise dispersion correction
with the Becke-Johnson damping scheme (D3BJ)
Cite in your paper:
S.Grimme, S.Ehrlich, L.Goerigk, J Comput Chem, (2011), 32, 1456–1465 
S.Grimme, J.Antony, S.Ehrlich and H.Krieg, J.Chem.Phys., 132, (2010), 154104 
   

Your calculation utilizes the SMD solvation module
Please cite in your paper:
A.V. Marenich, C.J. Cramer, D.G. Truhlar J. Phys. Chem. B, 113, (2009), 6378 

================================================================================

----- Orbital basis set information -----
Your calculation utilizes the basis: aug-cc-pVTZ 
    H, B-Ne : Obtained from the ccRepo (grant-hill.group.shef.ac.uk/ccrepo) Feb. 2017
              R. A. Kendall, T. H. Dunning, Jr., R. J. Harrison, J. Chem. Phys. 96, 6796 (1992)
         He : Obtained from the ccRepo (grant-hill.group.shef.ac.uk/ccrepo) Feb. 2017
              D. E. Woon, T. H. Dunning, Jr., J. Chem. Phys. 100, 2975 (1994)
  Li-Be, Na : Obtained from the ccRepo (grant-hill.group.shef.ac.uk/ccrepo) Feb. 2017
              B. P. Prascher, D. E. Woon, K. A. Peterson, T. H. Dunning, Jr., A. K. Wilson, Theor. Chem. Acc. 128, 69 (2011)
         Mg : Obtained from the Peterson Research Group Website (tyr0.chem.wsu.edu/~kipeters) Feb. 2017
              B. P. Prascher, D. E. Woon, K. A. Peterson, T. H. Dunning, Jr., A. K. Wilson, Theor. Chem. Acc. 128, 69 (2011)
      Al-Ar : Obtained from the ccRepo (grant-hill.group.shef.ac.uk/ccrepo) Feb. 2017
              D. E. Woon, T. H. Dunning, Jr., J. Chem. Phys. 98, 1358 (1993)
      Sc-Zn : Obtained from the ccRepo (grant-hill.group.shef.ac.uk/ccrepo) Feb. 2017
              N. B. Balabanov, K. A. Peterson, J. Chem. Phys. 123, 064107 (2005)
              N. B. Balabanov, K. A. Peterson, J. Chem. Phys. 125, 074110 (2006)
      Ga-Kr : Obtained from the ccRepo (grant-hill.group.shef.ac.uk/ccrepo) Feb. 2017
              A. K. Wilson, D. E. Woon, K. A. Peterson, T. H. Dunning, Jr., J. Chem. Phys. 110, 7667 (1999)
     Ag, Au : Obtained from the Peterson Research Group Website (tyr0.chem.wsu.edu/~kipeters) Feb. 2017
              K. A. Peterson, C. Puzzarini, Theor. Chem. Acc. 114, 283 (2005)

The basis set includes element-specific modifications.

Your calculation utilizes the basis: cc-pVTZ 
       H, B-Ne : Obtained from the ccRepo (grant-hill.group.shef.ac.uk/ccrepo) Feb. 2017
                 T. H. Dunning, Jr., J. Chem. Phys. 90, 1007 (1989)
            He : Obtained from the ccRepo (grant-hill.group.shef.ac.uk/ccrepo) Feb. 2017
                 D. E. Woon, T. H. Dunning, Jr., J. Chem. Phys. 100, 2975 (1994)
  Li-Be, Na-Mg : Obtained from the ccRepo (grant-hill.group.shef.ac.uk/ccrepo) Feb. 2017
                 B. P. Prascher, D. E. Woon, K. A. Peterson, T. H. Dunning, Jr., A. K. Wilson, Theor. Chem. Acc. 128, 69 (2011)
         Al-Ar : Obtained from the ccRepo (grant-hill.group.shef.ac.uk/ccrepo) Feb. 2017
                 D. E. Woon, T. H. Dunning, Jr., J. Chem. Phys. 98, 1358 (1993)
            Ca : Obtained from the Peterson Research Group Website (tyr0.chem.wsu.edu/~kipeters) Feb. 2017
                 J. Koput, K. A. Peterson, J. Phys. Chem. 106, 9595 (2002)
         Sc-Zn : Obtained from the ccRepo (grant-hill.group.shef.ac.uk/ccrepo) Feb. 2017
                 N. B. Balabanov, K. A. Peterson, J. Chem. Phys. 123, 064107 (2005)
                 N. B. Balabanov, K. A. Peterson, J. Chem. Phys. 125, 074110 (2006)
         Ga-Kr : Obtained from the ccRepo (grant-hill.group.shef.ac.uk/ccrepo) Feb. 2017
                 A. K. Wilson, D. E. Woon, K. A. Peterson, T. H. Dunning, Jr., J. Chem. Phys. 110, 7667 (1999)
             Y : Obtained from the ccRepo (grant-hill.group.shef.ac.uk/ccrepo) Feb. 2017
                 K. A. Peterson, D. Figgen, M. Dolg, H. Stoll, J. Chem. Phys. 126, 124101 (2007)
        Ag, Au : Obtained from the Peterson Research Group Website (tyr0.chem.wsu.edu/~kipeters) Feb. 2017
                 K. A. Peterson, C. Puzzarini, Theor. Chem. Acc. 114, 283 (2005)

----- AuxJ basis set information -----
Your calculation utilizes the auxiliary basis: aug-cc-pVTZ/JK 
  H, B-F, Al-Cl, Ga-Br : Obtained from the TURBOMOLE 7.0 basis set library

The basis set includes element-specific modifications.

Your calculation utilizes the auxiliary basis: cc-pVTZ/JK 
  H, B-F, Al-Cl, Ga-Br : Obtained from the TURBOMOLE 7.0 basis set library

----- AuxC basis set information -----
Your calculation utilizes the auxiliary basis: aug-cc-pVTZ/C 
  H-He, B-F, Al-Ar, Ga-Kr : Obtained from the EMSL Basis Set Exchange (bse.pnl.gov) Feb. 2017
                            F. Weigend, A. Kohn, C. Hattig, J. Chem. Phys. 116, 3175 (2002)
                   Be, Mg : Obtained from the TURBOMOLE 7.0 basis set library
                            C. Haettig, Phys. Chem. Chem. Phys. 7, 59 (2005)
                       Ne : Obtained from the EMSL Basis Set Exchange (bse.pnl.gov) Feb. 2017
                            C. Haettig, Phys. Chem. Chem. Phys. 7, 59 (2005)
                            F. Weigend, A. Kohn, C. Hattig, J. Chem. Phys. 116, 3175 (2002)
                    Sc-Zn : Obtained from the EMSL Basis Set Exchange (bse.pnl.gov) Feb. 2017
                            J. G. Hill, J. A. Platts, J. Chem. Phys. 128, 044104 (2008)

The basis set includes element-specific modifications.

Your calculation utilizes the auxiliary basis: cc-pVTZ/C 
  Obtained from the EMSL Basis Set Exchange (bse.pnl.gov) Feb. 2017
  H-He, B-F, Al-Ar, Ga-Kr : F. Weigend, A. Kohn, C. Hattig, J. Chem. Phys. 116, 3175 (2002)
             Li-Be, Na-Mg : C. Haettig, Phys. Chem. Chem. Phys. 7, 59 (2005)
                       Ne : C. Haettig, Phys. Chem. Chem. Phys. 7, 59 (2005)
                            F. Weigend, A. Kohn, C. Hattig, J. Chem. Phys. 116, 3175 (2002)
                    Sc-Zn : J. G. Hill, J. A. Platts, J. Chem. Phys. 128, 044104 (2008)

================================================================================
                                        WARNINGS
                       Please study these warnings very carefully!
================================================================================


WARNING: Geometry Optimization
  ===> : Switching off AutoStart
         For restart on a previous wavefunction, please use MOREAD

INFO   : the flag for use of the SHARK integral package has been found!



***************************************
The coordinates will be read from file: 
***************************************


Your calculation utilizes the atom-pairwise dispersion correction
with the Becke-Johnson damping scheme (D3BJ)
Cite in your paper:
S.Grimme, S.Ehrlich, L.Goerigk, J Comput Chem, (2011), 32, 1456–1465 
S.Grimme, J.Antony, S.Ehrlich and H.Krieg, J.Chem.Phys., 132, (2010), 154104 
   

Your calculation utilizes the SMD solvation module
Please cite in your paper:
A.V. Marenich, C.J. Cramer, D.G. Truhlar J. Phys. Chem. B, 113, (2009), 6378 

================================================================================

----- Orbital basis set information -----
Your calculation utilizes the basis: aug-cc-pVTZ 
    H, B-Ne : Obtained from the ccRepo (grant-hill.group.shef.ac.uk/ccrepo) Feb. 2017
              R. A. Kendall, T. H. Dunning, Jr., R. J. Harrison, J. Chem. Phys. 96, 6796 (1992)
         He : Obtained from the ccRepo (grant-hill.group.shef.ac.uk/ccrepo) Feb. 2017
              D. E. Woon, T. H. Dunning, Jr., J. Chem. Phys. 100, 2975 (1994)
  Li-Be, Na : Obtained from the ccRepo (grant-hill.group.shef.ac.uk/ccrepo) Feb. 2017
              B. P. Prascher, D. E. Woon, K. A. Peterson, T. H. Dunning, Jr., A. K. Wilson, Theor. Chem. Acc. 128, 69 (2011)
         Mg : Obtained from the Peterson Research Group Website (tyr0.chem.wsu.edu/~kipeters) Feb. 2017
              B. P. Prascher, D. E. Woon, K. A. Peterson, T. H. Dunning, Jr., A. K. Wilson, Theor. Chem. Acc. 128, 69 (2011)
      Al-Ar : Obtained from the ccRepo (grant-hill.group.shef.ac.uk/ccrepo) Feb. 2017
              D. E. Woon, T. H. Dunning, Jr., J. Chem. Phys. 98, 1358 (1993)
      Sc-Zn : Obtained from the ccRepo (grant-hill.group.shef.ac.uk/ccrepo) Feb. 2017
              N. B. Balabanov, K. A. Peterson, J. Chem. Phys. 123, 064107 (2005)
              N. B. Balabanov, K. A. Peterson, J. Chem. Phys. 125, 074110 (2006)
      Ga-Kr : Obtained from the ccRepo (grant-hill.group.shef.ac.uk/ccrepo) Feb. 2017
              A. K. Wilson, D. E. Woon, K. A. Peterson, T. H. Dunning, Jr., J. Chem. Phys. 110, 7667 (1999)
     Ag, Au : Obtained from the Peterson Research Group Website (tyr0.chem.wsu.edu/~kipeters) Feb. 2017
              K. A. Peterson, C. Puzzarini, Theor. Chem. Acc. 114, 283 (2005)

The basis set includes element-specific modifications.

Your calculation utilizes the basis: cc-pVTZ 
       H, B-Ne : Obtained from the ccRepo (grant-hill.group.shef.ac.uk/ccrepo) Feb. 2017
                 T. H. Dunning, Jr., J. Chem. Phys. 90, 1007 (1989)
            He : Obtained from the ccRepo (grant-hill.group.shef.ac.uk/ccrepo) Feb. 2017
                 D. E. Woon, T. H. Dunning, Jr., J. Chem. Phys. 100, 2975 (1994)
  Li-Be, Na-Mg : Obtained from the ccRepo (grant-hill.group.shef.ac.uk/ccrepo) Feb. 2017
                 B. P. Prascher, D. E. Woon, K. A. Peterson, T. H. Dunning, Jr., A. K. Wilson, Theor. Chem. Acc. 128, 69 (2011)
         Al-Ar : Obtained from the ccRepo (grant-hill.group.shef.ac.uk/ccrepo) Feb. 2017
                 D. E. Woon, T. H. Dunning, Jr., J. Chem. Phys. 98, 1358 (1993)
            Ca : Obtained from the Peterson Research Group Website (tyr0.chem.wsu.edu/~kipeters) Feb. 2017
                 J. Koput, K. A. Peterson, J. Phys. Chem. 106, 9595 (2002)
         Sc-Zn : Obtained from the ccRepo (grant-hill.group.shef.ac.uk/ccrepo) Feb. 2017
                 N. B. Balabanov, K. A. Peterson, J. Chem. Phys. 123, 064107 (2005)
                 N. B. Balabanov, K. A. Peterson, J. Chem. Phys. 125, 074110 (2006)
         Ga-Kr : Obtained from the ccRepo (grant-hill.group.shef.ac.uk/ccrepo) Feb. 2017
                 A. K. Wilson, D. E. Woon, K. A. Peterson, T. H. Dunning, Jr., J. Chem. Phys. 110, 7667 (1999)
             Y : Obtained from the ccRepo (grant-hill.group.shef.ac.uk/ccrepo) Feb. 2017
                 K. A. Peterson, D. Figgen, M. Dolg, H. Stoll, J. Chem. Phys. 126, 124101 (2007)
        Ag, Au : Obtained from the Peterson Research Group Website (tyr0.chem.wsu.edu/~kipeters) Feb. 2017
                 K. A. Peterson, C. Puzzarini, Theor. Chem. Acc. 114, 283 (2005)

----- AuxJ basis set information -----
Your calculation utilizes the auxiliary basis: aug-cc-pVTZ/JK 
  H, B-F, Al-Cl, Ga-Br : Obtained from the TURBOMOLE 7.0 basis set library

The basis set includes element-specific modifications.

Your calculation utilizes the auxiliary basis: cc-pVTZ/JK 
  H, B-F, Al-Cl, Ga-Br : Obtained from the TURBOMOLE 7.0 basis set library

----- AuxC basis set information -----
Your calculation utilizes the auxiliary basis: aug-cc-pVTZ/C 
  H-He, B-F, Al-Ar, Ga-Kr : Obtained from the EMSL Basis Set Exchange (bse.pnl.gov) Feb. 2017
                            F. Weigend, A. Kohn, C. Hattig, J. Chem. Phys. 116, 3175 (2002)
                   Be, Mg : Obtained from the TURBOMOLE 7.0 basis set library
                            C. Haettig, Phys. Chem. Chem. Phys. 7, 59 (2005)
                       Ne : Obtained from the EMSL Basis Set Exchange (bse.pnl.gov) Feb. 2017
                            C. Haettig, Phys. Chem. Chem. Phys. 7, 59 (2005)
                            F. Weigend, A. Kohn, C. Hattig, J. Chem. Phys. 116, 3175 (2002)
                    Sc-Zn : Obtained from the EMSL Basis Set Exchange (bse.pnl.gov) Feb. 2017
                            J. G. Hill, J. A. Platts, J. Chem. Phys. 128, 044104 (2008)

The basis set includes element-specific modifications.

Your calculation utilizes the auxiliary basis: cc-pVTZ/C 
  Obtained from the EMSL Basis Set Exchange (bse.pnl.gov) Feb. 2017
  H-He, B-F, Al-Ar, Ga-Kr : F. Weigend, A. Kohn, C. Hattig, J. Chem. Phys. 116, 3175 (2002)
             Li-Be, Na-Mg : C. Haettig, Phys. Chem. Chem. Phys. 7, 59 (2005)
                       Ne : C. Haettig, Phys. Chem. Chem. Phys. 7, 59 (2005)
                            F. Weigend, A. Kohn, C. Hattig, J. Chem. Phys. 116, 3175 (2002)
                    Sc-Zn : J. G. Hill, J. A. Platts, J. Chem. Phys. 128, 044104 (2008)

================================================================================
                                        WARNINGS
                       Please study these warnings very carefully!
================================================================================

INFO   : Checking CIS options ...
  ===> : (D) CORRECTION FOUND - SETTING MODE=3
  ===> : JK MODE FOUND - ACTIVATING RI-MP2 CODE
  ===> : MP2 AND CIS FOUND - CHECKING
WARNING: CIS(D) and MP2 runs must have the same orbital window
  ===> : adjusting orbital windows

WARNING: No MP2 level density has been requested!
         To caclulate MP2 level properties use
         %mp2 Density relaxed end
         or
         %mp2 Density unrelaxed end
         Otherwise for double-hybrid DFT only the energy is correct!

WARNING: The frozen-core approximation is turned on by default for 
         the MP2 part of double-hybrid DFT.

INFO   : the flag for use of the SHARK integral package has been found!

================================================================================
                                       INPUT FILE
================================================================================
NAME = optpbed3-b2plyp-test-565.inp
|  1> ! pbe0 d3bj aug-cc-PVTZ RIJCOSX Opt
|  2> %maxcore 4000
|  3> %basis
|  4>  AuxJ "aug-cc-PVTZ/JK"
|  5>  AuxC "aug-cc-PVTZ/C"
|  6>  newGTO H "cc-PVTZ" end
|  7>  newAuxJGTO H "cc-PVTZ/JK" end
|  8>  newAuxCGTO H "cc-PVTZ/C" end
|  9> end
| 10> %cpcm
| 11>  SMD true
| 12>  SMDsolvent "ethyl ethanoate"
| 13> end
| 14> %pal nprocs 4 end
| 15> * xyz 0 1
| 16> F          8.44050       -1.01070       -0.13920
| 17> C          7.74970        0.12390       -0.33950
| 18> F          8.13480        0.57680       -1.55510
| 19> F          8.22750        1.01660        0.54590
| 20> C          6.26800       -0.06060       -0.24260
| 21> C          5.69920       -1.30190       -0.51900
| 22> C          4.33340       -1.45670       -0.46680
| 23> C          3.50930       -0.37660       -0.11830
| 24> N          2.15650       -0.53960       -0.20350
| 25> N          1.40450        0.09450        0.60390
| 26> C          0.05890        0.04500        0.38780
| 27> C         -0.56160       -0.55610       -0.72010
| 28> C         -1.92450       -0.54160       -0.87110
| 29> C         -2.74170        0.08560        0.10110
| 30> C         -2.12230        0.68400        1.22330
| 31> C         -0.75520        0.65730        1.35040
| 32> C         -2.95590        1.36050        2.27840
| 33> C         -4.35880        0.77270        2.29430
| 34> C         -4.92620        0.84060        0.88360
| 35> N         -4.09750        0.08890       -0.02880
| 36> C         -4.72940       -0.40340       -1.22990
| 37> C         -3.97530       -1.61000       -1.77010
| 38> C         -2.54760       -1.18660       -2.07990
| 39> C          4.09740        0.86990        0.15280
| 40> C          5.46250        1.02640        0.08440
| 41> H          6.33470       -2.13640       -0.77380
| 42> H          3.87900       -2.41330       -0.67120
| 43> H          0.06460       -1.03200       -1.46030
| 44> H         -0.28080        1.11420        2.20560
| 45> H         -2.47880        1.24480        3.25260
| 46> H         -3.01040        2.43300        2.06570
| 47> H         -5.00470        1.32110        2.98040
| 48> H         -4.31780       -0.26970        2.61570
| 49> H         -5.93330        0.41370        0.86030
| 50> H         -4.99870        1.89070        0.56280
| 51> H         -4.76690        0.38490       -1.99680
| 52> H         -5.75920       -0.68000       -0.98450
| 53> H         -4.47350       -1.98900       -2.66290
| 54> H         -3.97020       -2.39860       -1.01530
| 55> H         -2.54910       -0.47370       -2.91090
| 56> H         -1.94880       -2.04510       -2.38760
| 57> H          3.45220        1.69830        0.40260
| 58> H          5.91550        1.98350        0.29580
| 59> *
| 60> 
| 61> 
| 62> $new_job
| 63> ! b2plyp aug-cc-PVTZ RIJCOSX SP
| 64> %maxcore 4000
| 65> %basis
| 66>  AuxJ "aug-cc-PVTZ/JK"
| 67>  AuxC "aug-cc-PVTZ/C"
| 68>  newGTO H "cc-PVTZ" end
| 69>  newAuxJGTO H "cc-PVTZ/JK" end
| 70>  newAuxCGTO H "cc-PVTZ/C" end
| 71> end
| 72> %cpcm
| 73>  SMD true
| 74>  SMDsolvent "ethyl ethanoate"
| 75> end
| 76> %pal nprocs 4 end
| 77> %tddft
| 78>  nroots 10
| 79>  maxdim 7
| 80> end
| 81> * xyzfile 0 1
| 82> 
| 83>                          ****END OF INPUT****
================================================================================


                 $$$$$$$$$$$$$$$$$$$$$$$$$$$$$$$$$$$$$$$$$$$$$$ 
                 $ THERE ARE  2 JOBS TO BE PROCESSED THIS RUN $
                 $$$$$$$$$$$$$$$$$$$$$$$$$$$$$$$$$$$$$$$$$$$$$$ 




                 $$$$$$$$$$$$$$$$  JOB NUMBER  1 $$$$$$$$$$$$$$


                       *****************************
                       * Geometry Optimization Run *
                       *****************************

Geometry optimization settings:
Update method            Update   .... BFGS
Choice of coordinates    CoordSys .... Z-matrix Internals
Initial Hessian          InHess   .... Almoef's Model

Convergence Tolerances:
Energy Change            TolE     ....  5.0000e-06 Eh
Max. Gradient            TolMAXG  ....  3.0000e-04 Eh/bohr
RMS Gradient             TolRMSG  ....  1.0000e-04 Eh/bohr
Max. Displacement        TolMAXD  ....  4.0000e-03 bohr
RMS Displacement         TolRMSD  ....  2.0000e-03 bohr
Strict Convergence                ....  False
------------------------------------------------------------------------------
                        ORCA OPTIMIZATION COORDINATE SETUP
------------------------------------------------------------------------------

The optimization will be done in new redundant internal coordinates
Making redundant internal coordinates   ...  (new redundants) done
Evaluating the initial hessian          ...  (Almloef) done
Evaluating the coordinates              ...  done
Calculating the B-matrix                .... done
Calculating the G-matrix                .... done
Diagonalizing the G-matrix              .... done
Small eigenvalue found = 1.450e-03
Small eigenvalue found = 4.493e-03
Small eigenvalue found = 9.390e-03
Small eigenvalue found = 1.575e-02
Small eigenvalue found = 2.952e-02
The first mode is                       ....  129
The number of degrees of freedom        ....  123

    -----------------------------------------------------------------
                    Redundant Internal Coordinates


    -----------------------------------------------------------------
         Definition                    Initial Value    Approx d2E/dq
    -----------------------------------------------------------------
      1. B(C   1,F   0)                  1.3434         0.617110   
      2. B(F   2,C   1)                  1.3532         0.595259   
      3. B(F   3,C   1)                  1.3450         0.613329   
      4. B(C   4,C   1)                  1.4963         0.422834   
      5. B(C   5,C   4)                  1.3931         0.617698   
      6. B(C   6,C   5)                  1.3755         0.658895   
      7. B(C   7,C   6)                  1.4026         0.596596   
      8. B(N   8,C   7)                  1.3652         0.612871   
      9. B(N   9,N   8)                  1.2726         0.771498   
     10. B(C  10,N   9)                  1.3637         0.616269   
     11. B(C  11,C  10)                  1.4049         0.591485   
     12. B(C  12,C  11)                  1.3713         0.669187   
     13. B(C  13,C  12)                  1.4165         0.566915   
     14. B(C  14,C  13)                  1.4146         0.570825   
     15. B(C  15,C  10)                  1.4015         0.598898   
     16. B(C  15,C  14)                  1.3733         0.664437   
     17. B(C  16,C  14)                  1.5052         0.409133   
     18. B(C  17,C  16)                  1.5211         0.385923   
     19. B(C  18,C  17)                  1.5220         0.384650   
     20. B(N  19,C  18)                  1.4437         0.459410   
     21. B(N  19,C  13)                  1.3620         0.620194   
     22. B(C  20,N  19)                  1.4437         0.459393   
     23. B(C  21,C  20)                  1.5220         0.384771   
     24. B(C  22,C  21)                  1.5210         0.386072   
     25. B(C  22,C  12)                  1.5051         0.409284   
     26. B(C  23,C   7)                  1.4047         0.592000   
     27. B(C  24,C  23)                  1.3757         0.658392   
     28. B(C  24,C   4)                  1.3919         0.620498   
     29. B(H  25,C   5)                  1.0794         0.374355   
     30. B(H  26,C   6)                  1.0786         0.375524   
     31. B(H  27,C  11)                  1.0800         0.373509   
     32. B(H  28,C  15)                  1.0794         0.374351   
     33. B(H  29,C  16)                  1.0909         0.358903   
     34. B(H  30,C  16)                  1.0947         0.353877   
     35. B(H  31,C  17)                  1.0903         0.359759   
     36. B(H  32,C  17)                  1.0916         0.357998   
     37. B(H  33,C  18)                  1.0941         0.354728   
     38. B(H  34,C  18)                  1.1004         0.346602   
     39. B(H  35,C  20)                  1.1004         0.346556   
     40. B(H  36,C  20)                  1.0942         0.354620   
     41. B(H  37,C  21)                  1.0904         0.359593   
     42. B(H  38,C  21)                  1.0916         0.357960   
     43. B(H  39,C  22)                  1.0949         0.353686   
     44. B(H  40,C  22)                  1.0910         0.358790   
     45. B(H  41,C  23)                  1.0793         0.374510   
     46. B(H  42,C  24)                  1.0798         0.373868   
     47. A(F   0,C   1,F   2)          105.6808         0.421200   
     48. A(F   0,C   1,C   4)          113.2921         0.400746   
     49. A(F   2,C   1,C   4)          112.4118         0.398212   
     50. A(F   3,C   1,C   4)          113.0152         0.400312   
     51. A(F   2,C   1,F   3)          105.5520         0.420738   
     52. A(F   0,C   1,F   3)          106.2443         0.423456   
     53. A(C   1,C   4,C   5)          120.0884         0.405165   
     54. A(C   1,C   4,C  24)          119.4716         0.405489   
     55. A(C   5,C   4,C  24)          120.4098         0.433838   
     56. A(C   4,C   5,C   6)          119.8777         0.438557   
     57. A(C   4,C   5,H  25)          119.6897         0.355014   
     58. A(C   6,C   5,H  25)          120.4326         0.358930   
     59. A(C   5,C   6,H  26)          120.7258         0.359120   
     60. A(C   7,C   6,H  26)          118.8516         0.353116   
     61. A(C   5,C   6,C   7)          120.4091         0.435817   
     62. A(N   8,C   7,C  23)          122.1981         0.426780   
     63. A(C   6,C   7,N   8)          118.3436         0.427372   
     64. A(C   6,C   7,C  23)          119.0338         0.427514   
     65. A(C   7,N   8,N   9)          119.1075         0.441710   
     66. A(N   8,N   9,C  10)          117.6739         0.442151   
     67. A(N   9,C  10,C  11)          125.1893         0.427137   
     68. A(C  11,C  10,C  15)          118.1639         0.427743   
     69. A(N   9,C  10,C  15)          116.6442         0.428091   
     70. A(C  12,C  11,H  27)          120.3596         0.359740   
     71. A(C  10,C  11,H  27)          118.2230         0.352281   
     72. A(C  10,C  11,C  12)          121.4170         0.436359   
     73. A(C  11,C  12,C  22)          119.6922         0.408582   
     74. A(C  13,C  12,C  22)          120.1412         0.396808   
     75. A(C  11,C  12,C  13)          120.1651         0.433039   
     76. A(C  14,C  13,N  19)          120.6973         0.424909   
     77. A(C  12,C  13,N  19)          120.6579         0.424387   
     78. A(C  12,C  13,C  14)          118.6320         0.420880   
     79. A(C  15,C  14,C  16)          119.6813         0.408041   
     80. A(C  13,C  14,C  16)          120.2446         0.397261   
     81. A(C  13,C  14,C  15)          120.0728         0.433020   
     82. A(C  14,C  15,H  28)          120.1733         0.359442   
     83. A(C  10,C  15,H  28)          118.2802         0.353159   
     84. A(C  10,C  15,C  14)          121.5465         0.436778   
     85. A(C  17,C  16,H  30)          109.5533         0.325124   
     86. A(H  29,C  16,H  30)          107.4085         0.289893   
     87. A(C  14,C  16,H  30)          109.3705         0.328266   
     88. A(C  17,C  16,H  29)          110.6726         0.325879   
     89. A(C  14,C  16,H  29)          109.6391         0.329031   
     90. A(C  14,C  16,C  17)          110.1455         0.371125   
     91. A(C  18,C  17,H  32)          109.2381         0.325566   
     92. A(C  18,C  17,H  31)          109.8753         0.325829   
     93. A(H  31,C  17,H  32)          108.4996         0.290529   
     94. A(C  16,C  17,H  31)          111.0133         0.326006   
     95. A(C  16,C  17,C  18)          108.4745         0.367212   
     96. A(C  16,C  17,H  32)          109.7211         0.325743   
     97. A(C  17,C  18,H  34)          109.7147         0.323841   
     98. A(C  17,C  18,H  33)          110.2110         0.325075   
     99. A(N  19,C  18,H  33)          108.1648         0.332737   
    100. A(C  17,C  18,N  19)          110.3981         0.376026   
    101. A(H  33,C  18,H  34)          107.7880         0.288422   
    102. A(N  19,C  18,H  34)          110.5149         0.331462   
    103. A(C  18,N  19,C  20)          116.8780         0.385338   
    104. A(C  13,N  19,C  20)          120.9450         0.406165   
    105. A(C  13,N  19,C  18)          120.8225         0.406168   
    106. A(N  19,C  20,C  21)          110.4117         0.376044   
    107. A(H  35,C  20,H  36)          107.7773         0.288402   
    108. A(C  21,C  20,H  36)          110.2136         0.325076   
    109. A(N  19,C  20,H  36)          108.1528         0.332718   
    110. A(C  21,C  20,H  35)          109.7214         0.323850   
    111. A(N  19,C  20,H  35)          110.5139         0.331452   
    112. A(H  37,C  21,H  38)          108.4931         0.290503   
    113. A(C  22,C  21,H  38)          109.7269         0.325758   
    114. A(C  20,C  21,H  38)          109.2455         0.325578   
    115. A(C  22,C  21,H  37)          111.0296         0.326002   
    116. A(C  20,C  21,H  37)          109.8645         0.325821   
    117. A(C  20,C  21,C  22)          108.4624         0.367256   
    118. A(C  21,C  22,H  40)          110.7063         0.325883   
    119. A(C  12,C  22,H  40)          109.6638         0.329034   
    120. A(C  21,C  22,H  39)          109.5449         0.325115   
    121. A(C  12,C  22,H  39)          109.3349         0.328256   
    122. A(C  12,C  22,C  21)          110.1382         0.371173   
    123. A(H  39,C  22,H  40)          107.4007         0.289854   
    124. A(C  24,C  23,H  41)          121.1551         0.358909   
    125. A(C   7,C  23,H  41)          118.3909         0.352493   
    126. A(C   7,C  23,C  24)          120.4499         0.435151   
    127. A(C  23,C  24,H  42)          120.4894         0.358804   
    128. A(C   4,C  24,H  42)          119.6984         0.355208   
    129. A(C   4,C  24,C  23)          119.8069         0.438854   
    130. D(C  24,C   4,C   1,F   2)    -84.7807         0.013215   
    131. D(C   5,C   4,C   1,F   2)     93.2282         0.013215   
    132. D(C   5,C   4,C   1,F   3)   -147.4124         0.013215   
    133. D(C  24,C   4,C   1,F   0)    155.4937         0.013215   
    134. D(C  24,C   4,C   1,F   3)     34.5787         0.013215   
    135. D(C   5,C   4,C   1,F   0)    -26.4974         0.013215   
    136. D(C   6,C   5,C   4,C   1)   -178.0960         0.026390   
    137. D(C   6,C   5,C   4,C  24)     -0.1060         0.026390   
    138. D(H  25,C   5,C   4,C  24)    179.8437         0.026390   
    139. D(H  25,C   5,C   4,C   1)      1.8536         0.026390   
    140. D(H  26,C   6,C   5,C   4)   -179.5498         0.030287   
    141. D(H  26,C   6,C   5,H  25)      0.5009         0.030287   
    142. D(C   7,C   6,C   5,H  25)    179.1477         0.030287   
    143. D(C   7,C   6,C   5,C   4)     -0.9030         0.030287   
    144. D(N   8,C   7,C   6,C   5)    173.8197         0.024522   
    145. D(C  23,C   7,C   6,H  26)    179.8017         0.024522   
    146. D(C  23,C   7,C   6,C   5)      1.1298         0.024522   
    147. D(N   8,C   7,C   6,H  26)     -7.5084         0.024522   
    148. D(N   9,N   8,C   7,C   6)    148.7815         0.027512   
    149. D(N   9,N   8,C   7,C  23)    -38.7729         0.027512   
    150. D(C  10,N   9,N   8,C   7)    171.8779         0.047573   
    151. D(C  11,C  10,N   9,N   8)     -5.7103         0.027840   
    152. D(C  15,C  10,N   9,N   8)    174.8909         0.027840   
    153. D(H  27,C  11,C  10,N   9)      0.8723         0.024082   
    154. D(H  27,C  11,C  10,C  15)   -179.7372         0.024082   
    155. D(C  12,C  11,C  10,C  15)      0.4810         0.024082   
    156. D(C  12,C  11,C  10,N   9)   -178.9095         0.024082   
    157. D(C  22,C  12,C  11,C  10)    179.4372         0.031313   
    158. D(C  13,C  12,C  11,H  27)   -179.8977         0.031313   
    159. D(C  13,C  12,C  11,C  10)     -0.1205         0.031313   
    160. D(C  22,C  12,C  11,H  27)     -0.3400         0.031313   
    161. D(N  19,C  13,C  12,C  22)      1.4122         0.022037   
    162. D(N  19,C  13,C  12,C  11)   -179.0321         0.022037   
    163. D(C  14,C  13,C  12,C  22)   -179.8813         0.022037   
    164. D(C  14,C  13,C  12,C  11)     -0.3256         0.022037   
    165. D(C  16,C  14,C  13,N  19)     -1.2978         0.022355   
    166. D(C  16,C  14,C  13,C  12)    179.9962         0.022355   
    167. D(C  15,C  14,C  13,N  19)    179.1117         0.022355   
    168. D(C  15,C  14,C  13,C  12)      0.4057         0.022355   
    169. D(H  28,C  15,C  14,C  13)    179.9443         0.030837   
    170. D(C  10,C  15,C  14,C  16)   -179.6343         0.030837   
    171. D(C  10,C  15,C  14,C  13)     -0.0415         0.030837   
    172. D(H  28,C  15,C  10,C  11)    179.6148         0.024722   
    173. D(H  28,C  15,C  10,N   9)     -0.9425         0.024722   
    174. D(C  14,C  15,C  10,C  11)     -0.3991         0.024722   
    175. D(H  28,C  15,C  14,C  16)      0.3516         0.030837   
    176. D(C  14,C  15,C  10,N   9)    179.0436         0.024722   
    177. D(H  29,C  16,C  14,C  15)    -32.9643         0.012399   
    178. D(H  30,C  16,C  14,C  13)    -95.0282         0.012399   
    179. D(H  29,C  16,C  14,C  13)    147.4437         0.012399   
    180. D(C  17,C  16,C  14,C  15)   -154.9812         0.012399   
    181. D(C  17,C  16,C  14,C  13)     25.4267         0.012399   
    182. D(H  30,C  16,C  14,C  15)     84.5638         0.012399   
    183. D(H  32,C  17,C  16,H  30)   -173.6802         0.011852   
    184. D(H  32,C  17,C  16,C  14)     65.9749         0.011852   
    185. D(H  31,C  17,C  16,H  30)    -53.7610         0.011852   
    186. D(H  31,C  17,C  16,H  29)     64.4912         0.011852   
    187. D(H  31,C  17,C  16,C  14)   -174.1058         0.011852   
    188. D(C  18,C  17,C  16,H  30)     67.0575         0.011852   
    189. D(H  32,C  17,C  16,H  29)    -55.4280         0.011852   
    190. D(C  18,C  17,C  16,H  29)   -174.6903         0.011852   
    191. D(C  18,C  17,C  16,C  14)    -53.2873         0.011852   
    192. D(N  19,C  18,C  17,C  16)     59.9443         0.011778   
    193. D(H  34,C  18,C  17,H  31)     59.4296         0.011778   
    194. D(H  34,C  18,C  17,C  16)    -62.0902         0.011778   
    195. D(H  33,C  18,C  17,H  32)     59.8071         0.011778   
    196. D(H  33,C  18,C  17,H  31)    -59.1078         0.011778   
    197. D(H  33,C  18,C  17,C  16)    179.3724         0.011778   
    198. D(N  19,C  18,C  17,H  32)    -59.6210         0.011778   
    199. D(H  34,C  18,C  17,H  32)    178.3445         0.011778   
    200. D(N  19,C  18,C  17,H  31)   -178.5358         0.011778   
    201. D(C  20,N  19,C  18,H  34)    -82.8207         0.018016   
    202. D(C  20,N  19,C  18,H  33)     34.9582         0.018016   
    203. D(C  20,N  19,C  18,C  17)    155.6175         0.018016   
    204. D(C  13,N  19,C  18,H  34)     84.0150         0.018016   
    205. D(C  13,N  19,C  18,H  33)   -158.2061         0.018016   
    206. D(C  13,N  19,C  18,C  17)    -37.5468         0.018016   
    207. D(C  20,N  19,C  13,C  14)    173.9545         0.031148   
    208. D(C  20,N  19,C  13,C  12)     -7.3659         0.031148   
    209. D(C  18,N  19,C  13,C  14)      7.6555         0.031148   
    210. D(C  18,N  19,C  13,C  12)   -173.6649         0.031148   
    211. D(H  36,C  20,N  19,C  18)    -35.3620         0.018015   
    212. D(H  36,C  20,N  19,C  13)    157.8195         0.018015   
    213. D(H  35,C  20,N  19,C  18)     82.3963         0.018015   
    214. D(H  35,C  20,N  19,C  13)    -84.4223         0.018015   
    215. D(C  21,C  20,N  19,C  18)   -156.0251         0.018015   
    216. D(C  21,C  20,N  19,C  13)     37.1564         0.018015   
    217. D(H  38,C  21,C  20,H  36)    -59.6854         0.011785   
    218. D(H  38,C  21,C  20,N  19)     59.7380         0.011785   
    219. D(H  37,C  21,C  20,H  36)     59.2195         0.011785   
    220. D(H  37,C  21,C  20,H  35)    -59.3104         0.011785   
    221. D(H  37,C  21,C  20,N  19)    178.6430         0.011785   
    222. D(C  22,C  21,C  20,H  36)   -179.2549         0.011785   
    223. D(H  38,C  21,C  20,H  35)   -178.2153         0.011785   
    224. D(C  22,C  21,C  20,H  35)     62.2152         0.011785   
    225. D(C  22,C  21,C  20,N  19)    -59.8315         0.011785   
    226. D(H  40,C  22,C  21,H  37)    -64.1600         0.011861   
    227. D(H  40,C  22,C  21,C  20)    175.0326         0.011861   
    228. D(H  39,C  22,C  21,H  38)    174.0231         0.011861   
    229. D(H  39,C  22,C  21,C  20)    -66.7095         0.011861   
    230. D(C  12,C  22,C  21,H  38)    -65.6861         0.011861   
    231. D(C  12,C  22,C  21,H  37)    174.3887         0.011861   
    232. D(C  12,C  22,C  21,C  20)     53.5813         0.011861   
    233. D(H  40,C  22,C  12,C  13)   -147.8782         0.012408   
    234. D(H  40,C  22,C  12,C  11)     32.5640         0.012408   
    235. D(H  39,C  22,C  21,H  37)     54.0978         0.011861   
    236. D(H  39,C  22,C  12,C  13)     94.6097         0.012408   
    237. D(H  39,C  22,C  12,C  11)    -84.9481         0.012408   
    238. D(C  21,C  22,C  12,C  13)    -25.8078         0.012408   
    239. D(H  40,C  22,C  21,H  38)     55.7652         0.011861   
    240. D(C  21,C  22,C  12,C  11)    154.6345         0.012408   
    241. D(H  41,C  23,C   7,N   8)      6.5210         0.024126   
    242. D(H  41,C  23,C   7,C   6)    178.9163         0.024126   
    243. D(C  24,C  23,C   7,N   8)   -172.7469         0.024126   
    244. D(C  24,C  23,C   7,C   6)     -0.3515         0.024126   
    245. D(H  42,C  24,C  23,C   7)   -179.8004         0.030237   
    246. D(C   4,C  24,C  23,H  41)   -179.8889         0.030237   
    247. D(C   4,C  24,C  23,C   7)     -0.6415         0.030237   
    248. D(H  42,C  24,C   4,C   5)   -179.9541         0.026645   
    249. D(H  42,C  24,C   4,C   1)     -1.9517         0.026645   
    250. D(C  23,C  24,C   4,C   5)      0.8804         0.026645   
    251. D(H  42,C  24,C  23,H  41)      0.9523         0.030237   
    252. D(C  23,C  24,C   4,C   1)    178.8828         0.026645   
    -----------------------------------------------------------------

Number of atoms                         .... 43
Number of degrees of freedom            .... 252

         *************************************************************
         *                GEOMETRY OPTIMIZATION CYCLE   1            *
         *************************************************************
---------------------------------
CARTESIAN COORDINATES (ANGSTROEM)
---------------------------------
  F      8.440500   -1.010700   -0.139200
  C      7.749700    0.123900   -0.339500
  F      8.134800    0.576800   -1.555100
  F      8.227500    1.016600    0.545900
  C      6.268000   -0.060600   -0.242600
  C      5.699200   -1.301900   -0.519000
  C      4.333400   -1.456700   -0.466800
  C      3.509300   -0.376600   -0.118300
  N      2.156500   -0.539600   -0.203500
  N      1.404500    0.094500    0.603900
  C      0.058900    0.045000    0.387800
  C     -0.561600   -0.556100   -0.720100
  C     -1.924500   -0.541600   -0.871100
  C     -2.741700    0.085600    0.101100
  C     -2.122300    0.684000    1.223300
  C     -0.755200    0.657300    1.350400
  C     -2.955900    1.360500    2.278400
  C     -4.358800    0.772700    2.294300
  C     -4.926200    0.840600    0.883600
  N     -4.097500    0.088900   -0.028800
  C     -4.729400   -0.403400   -1.229900
  C     -3.975300   -1.610000   -1.770100
  C     -2.547600   -1.186600   -2.079900
  C      4.097400    0.869900    0.152800
  C      5.462500    1.026400    0.084400
  H      6.334700   -2.136400   -0.773800
  H      3.879000   -2.413300   -0.671200
  H      0.064600   -1.032000   -1.460300
  H     -0.280800    1.114200    2.205600
  H     -2.478800    1.244800    3.252600
  H     -3.010400    2.433000    2.065700
  H     -5.004700    1.321100    2.980400
  H     -4.317800   -0.269700    2.615700
  H     -5.933300    0.413700    0.860300
  H     -4.998700    1.890700    0.562800
  H     -4.766900    0.384900   -1.996800
  H     -5.759200   -0.680000   -0.984500
  H     -4.473500   -1.989000   -2.662900
  H     -3.970200   -2.398600   -1.015300
  H     -2.549100   -0.473700   -2.910900
  H     -1.948800   -2.045100   -2.387600
  H      3.452200    1.698300    0.402600
  H      5.915500    1.983500    0.295800

----------------------------
CARTESIAN COORDINATES (A.U.)
----------------------------
  NO LB      ZA    FRAG     MASS         X           Y           Z
   0 F     9.0000    0    18.998   15.950233   -1.909946   -0.263050
   1 C     6.0000    0    12.011   14.644811    0.234137   -0.641562
   2 F     9.0000    0    18.998   15.372544    1.089994   -2.938713
   3 F     9.0000    0    18.998   15.547722    1.921096    1.031601
   4 C     6.0000    0    12.011   11.844803   -0.114517   -0.458448
   5 C     6.0000    0    12.011   10.769927   -2.460234   -0.980768
   6 C     6.0000    0    12.011    8.188939   -2.752764   -0.882124
   7 C     6.0000    0    12.011    6.631616   -0.711671   -0.223555
   8 N     7.0000    0    14.007    4.075194   -1.019696   -0.384559
   9 N     7.0000    0    14.007    2.654120    0.178579    1.141206
  10 C     6.0000    0    12.011    0.111305    0.085038    0.732836
  11 C     6.0000    0    12.011   -1.061270   -1.050877   -1.360792
  12 C     6.0000    0    12.011   -3.636778   -1.023476   -1.646140
  13 C     6.0000    0    12.011   -5.181062    0.161761    0.191051
  14 C     6.0000    0    12.011   -4.010566    1.292573    2.311702
  15 C     6.0000    0    12.011   -1.427121    1.242117    2.551886
  16 C     6.0000    0    12.011   -5.585841    2.570972    4.305552
  17 C     6.0000    0    12.011   -8.236938    1.460191    4.335599
  18 C     6.0000    0    12.011   -9.309169    1.588504    1.669762
  19 N     7.0000    0    14.007   -7.743153    0.167997   -0.054424
  20 C     6.0000    0    12.011   -8.937271   -0.762316   -2.324174
  21 C     6.0000    0    12.011   -7.512228   -3.042459   -3.345004
  22 C     6.0000    0    12.011   -4.814266   -2.242349   -3.930441
  23 C     6.0000    0    12.011    7.742964    1.643873    0.288750
  24 C     6.0000    0    12.011   10.322629    1.939615    0.159493
  25 H     1.0000    0     1.008   11.970848   -4.037211   -1.462270
  26 H     1.0000    0     1.008    7.330248   -4.560476   -1.268384
  27 H     1.0000    0     1.008    0.122076   -1.950197   -2.759567
  28 H     1.0000    0     1.008   -0.530635    2.105533    4.167980
  29 H     1.0000    0     1.008   -4.684253    2.352331    6.146523
  30 H     1.0000    0     1.008   -5.688832    4.597704    3.903607
  31 H     1.0000    0     1.008   -9.457512    2.496517    5.632140
  32 H     1.0000    0     1.008   -8.159460   -0.509659    4.942957
  33 H     1.0000    0     1.008  -11.212312    0.781780    1.625731
  34 H     1.0000    0     1.008   -9.446174    3.572905    1.063538
  35 H     1.0000    0     1.008   -9.008136    0.727356   -3.773405
  36 H     1.0000    0     1.008  -10.883311   -1.285014   -1.860435
  37 H     1.0000    0     1.008   -8.453690   -3.758665   -5.032152
  38 H     1.0000    0     1.008   -7.502591   -4.532697   -1.918639
  39 H     1.0000    0     1.008   -4.817101   -0.895163   -5.500804
  40 H     1.0000    0     1.008   -3.682698   -3.864679   -4.511910
  41 H     1.0000    0     1.008    6.523713    3.209322    0.760804
  42 H     1.0000    0     1.008   11.178675    3.748272    0.558981

--------------------------------
INTERNAL COORDINATES (ANGSTROEM)
--------------------------------
 F      0   0   0     0.000000000000     0.00000000     0.00000000
 C      1   0   0     1.343369602902     0.00000000     0.00000000
 F      2   1   0     1.353182833175   105.68080751     0.00000000
 F      2   1   3     1.345042486318   106.24430385   248.17025166
 C      2   1   3     1.496283646238   113.29207434   123.50355980
 C      5   2   1     1.393110221770   120.08838886   333.50264470
 C      6   5   2     1.375535357597   119.87771891   181.90397001
 C      7   6   5     1.402572304732   120.40906404   359.09697239
 N      8   7   6     1.365245721473   118.34362357   173.81973722
 N      9   8   7     1.272588531301   119.10753556   148.78152112
 C     10   9   8     1.363740745156   117.67388862   171.87790303
 C     11  10   9     1.404914185991   125.18929422   354.28972598
 C     12  11  10     1.371316032138   121.41703806   181.09050888
 C     13  12  11     1.416463384631   120.16514661   359.87950815
 C     14  13  12     1.414592436004   118.63198603   359.67436947
 C     15  14  13     1.373255151092   120.07283790     0.40574561
 C     15  14  13     1.505249886232   120.24456275   179.99619709
 C     17  15  14     1.521147612824   110.14548425    25.42671118
 C     18  17  15     1.522047193749   108.47446535   306.71267996
 N     14  13  12     1.362012679824   120.65788395   180.96785715
 C     20  14  13     1.443709842732   120.94503571   352.63413808
 C     21  20  14     1.521961369418   110.41169894    37.15637936
 C     13  12  11     1.505149843039   119.69216141   179.43716198
 C      8   7   6     1.404677567985   119.03380059     1.12980448
 C     24   8   7     1.375743006524   120.44990977   359.64847725
 H      6   5   2     1.079432045105   119.68966492     1.85364339
 H      7   6   5     1.078583459914   120.72582363   180.45019927
 H     12  11  10     1.080047818386   118.22303141     0.87228809
 H     16  15  14     1.079435042047   120.17328110   179.94432734
 H     17  15  14     1.090906292951   109.63912783   147.44367452
 H     17  15  14     1.094745536643   109.37054125   264.97176598
 H     18  17  15     1.090258033678   111.01330854   185.89415526
 H     18  17  15     1.091593660663   109.72110493    65.97491718
 H     19  18  17     1.094091819730   110.21100887   179.37235799
 H     19  18  17     1.100399427481   109.71466344   297.90976843
 H     21  20  14     1.100435709163   110.51393199   275.57773823
 H     21  20  14     1.094174008099   108.15284641   157.81950674
 H     22  21  20     1.090383455487   109.86446683   178.64297307
 H     22  21  20     1.091622191969   109.24552267    59.73802441
 H     23  13  12     1.094892533539   109.33487878   275.05190137
 H     23  13  12     1.090991741490   109.66375188    32.56404482
 H     24   8   7     1.079319063113   118.39087707   178.91632526
 H     25  24   8     1.079786724312   120.48943034   180.19962833

---------------------------
INTERNAL COORDINATES (A.U.)
---------------------------
 F      0   0   0     0.000000000000     0.00000000     0.00000000
 C      1   0   0     2.538600646119     0.00000000     0.00000000
 F      2   1   0     2.557144963825   105.68080751     0.00000000
 F      2   1   3     2.541761937629   106.24430385   248.17025166
 C      2   1   3     2.827566310055   113.29207434   123.50355980
 C      5   2   1     2.632596793512   120.08838886   333.50264470
 C      6   5   2     2.599385113384   119.87771891   181.90397001
 C      7   6   5     2.650477538965   120.40906404   359.09697239
 N      8   7   6     2.579940519091   118.34362357   173.81973722
 N      9   8   7     2.404843805329   119.10753556   148.78152112
 C     10   9   8     2.577096526015   117.67388862   171.87790303
 C     11  10   9     2.654903053185   125.18929422   354.28972598
 C     12  11  10     2.591411743797   121.41703806   181.09050888
 C     13  12  11     2.676727875680   120.16514661   359.87950815
 C     14  13  12     2.673192295164   118.63198603   359.67436947
 C     15  14  13     2.595076147560   120.07283790     0.40574561
 C     15  14  13     2.844510048094   120.24456275   179.99619709
 C     17  15  14     2.874552397505   110.14548425    25.42671118
 C     18  17  15     2.876252359089   108.47446535   306.71267996
 N     14  13  12     2.573830955795   120.65788395   180.96785715
 C     20  14  13     2.728216219609   120.94503571   352.63413808
 C     21  20  14     2.876090174607   110.41169894    37.15637936
 C     13  12  11     2.844320993858   119.69216141   179.43716198
 C      8   7   6     2.654455909954   119.03380059     1.12980448
 C     24   8   7     2.599777512988   120.44990977   359.64847725
 H      6   5   2     2.039830945427   119.68966492     1.85364339
 H      7   6   5     2.038227351815   120.72582363   180.45019927
 H     12  11  10     2.040994588288   118.22303141     0.87228809
 H     16  15  14     2.039836608827   120.17328110   179.94432734
 H     17  15  14     2.061514131449   109.63912783   147.44367452
 H     17  15  14     2.068769250588   109.37054125   264.97176598
 H     18  17  15     2.060289098959   111.01330854   185.89415526
 H     18  17  15     2.062813068178   109.72110493    65.97491718
 H     19  18  17     2.067533904653   110.21100887   179.37235799
 H     19  18  17     2.079453555862   109.71466344   297.90976843
 H     21  20  14     2.079522118305   110.51393199   275.57773823
 H     21  20  14     2.067689218163   108.15284641   157.81950674
 H     22  21  20     2.060526111829   109.86446683   178.64297307
 H     22  21  20     2.062866984533   109.24552267    59.73802441
 H     23  13  12     2.069047034464   109.33487878   275.05190137
 H     23  13  12     2.061675605786   109.66375188    32.56404482
 H     24   8   7     2.039617440405   118.39087707   178.91632526
 H     25  24   8     2.040501191993   120.48943034   180.19962833

---------------------
BASIS SET INFORMATION
---------------------
There are 4 groups of distinct atoms

 Group   1 Type F   : 19s6p3d2f contracted to 5s4p3d2f pattern {88111/3111/111/11}
 Group   2 Type C   : 19s6p3d2f contracted to 5s4p3d2f pattern {88111/3111/111/11}
 Group   3 Type N   : 19s6p3d2f contracted to 5s4p3d2f pattern {88111/3111/111/11}
 Group   4 Type H   : 5s2p1d contracted to 3s2p1d pattern {311/11/1}

Atom   0F    basis set group =>   1
Atom   1C    basis set group =>   2
Atom   2F    basis set group =>   1
Atom   3F    basis set group =>   1
Atom   4C    basis set group =>   2
Atom   5C    basis set group =>   2
Atom   6C    basis set group =>   2
Atom   7C    basis set group =>   2
Atom   8N    basis set group =>   3
Atom   9N    basis set group =>   3
Atom  10C    basis set group =>   2
Atom  11C    basis set group =>   2
Atom  12C    basis set group =>   2
Atom  13C    basis set group =>   2
Atom  14C    basis set group =>   2
Atom  15C    basis set group =>   2
Atom  16C    basis set group =>   2
Atom  17C    basis set group =>   2
Atom  18C    basis set group =>   2
Atom  19N    basis set group =>   3
Atom  20C    basis set group =>   2
Atom  21C    basis set group =>   2
Atom  22C    basis set group =>   2
Atom  23C    basis set group =>   2
Atom  24C    basis set group =>   2
Atom  25H    basis set group =>   4
Atom  26H    basis set group =>   4
Atom  27H    basis set group =>   4
Atom  28H    basis set group =>   4
Atom  29H    basis set group =>   4
Atom  30H    basis set group =>   4
Atom  31H    basis set group =>   4
Atom  32H    basis set group =>   4
Atom  33H    basis set group =>   4
Atom  34H    basis set group =>   4
Atom  35H    basis set group =>   4
Atom  36H    basis set group =>   4
Atom  37H    basis set group =>   4
Atom  38H    basis set group =>   4
Atom  39H    basis set group =>   4
Atom  40H    basis set group =>   4
Atom  41H    basis set group =>   4
Atom  42H    basis set group =>   4
---------------------------------
AUXILIARY/J BASIS SET INFORMATION
---------------------------------
There are 4 groups of distinct atoms

 Group   1 Type F   : 10s7p5d2f1g contracted to 10s7p5d2f1g pattern {1111111111/1111111/11111/11/1}
 Group   2 Type C   : 10s7p5d2f1g contracted to 10s7p5d2f1g pattern {1111111111/1111111/11111/11/1}
 Group   3 Type N   : 10s7p5d2f1g contracted to 10s7p5d2f1g pattern {1111111111/1111111/11111/11/1}
 Group   4 Type H   : 4s3p2d1f contracted to 4s3p2d1f pattern {1111/111/11/1}

Atom   0F    basis set group =>   1
Atom   1C    basis set group =>   2
Atom   2F    basis set group =>   1
Atom   3F    basis set group =>   1
Atom   4C    basis set group =>   2
Atom   5C    basis set group =>   2
Atom   6C    basis set group =>   2
Atom   7C    basis set group =>   2
Atom   8N    basis set group =>   3
Atom   9N    basis set group =>   3
Atom  10C    basis set group =>   2
Atom  11C    basis set group =>   2
Atom  12C    basis set group =>   2
Atom  13C    basis set group =>   2
Atom  14C    basis set group =>   2
Atom  15C    basis set group =>   2
Atom  16C    basis set group =>   2
Atom  17C    basis set group =>   2
Atom  18C    basis set group =>   2
Atom  19N    basis set group =>   3
Atom  20C    basis set group =>   2
Atom  21C    basis set group =>   2
Atom  22C    basis set group =>   2
Atom  23C    basis set group =>   2
Atom  24C    basis set group =>   2
Atom  25H    basis set group =>   4
Atom  26H    basis set group =>   4
Atom  27H    basis set group =>   4
Atom  28H    basis set group =>   4
Atom  29H    basis set group =>   4
Atom  30H    basis set group =>   4
Atom  31H    basis set group =>   4
Atom  32H    basis set group =>   4
Atom  33H    basis set group =>   4
Atom  34H    basis set group =>   4
Atom  35H    basis set group =>   4
Atom  36H    basis set group =>   4
Atom  37H    basis set group =>   4
Atom  38H    basis set group =>   4
Atom  39H    basis set group =>   4
Atom  40H    basis set group =>   4
Atom  41H    basis set group =>   4
Atom  42H    basis set group =>   4
---------------------------------
AUXILIARY/C BASIS SET INFORMATION
---------------------------------
There are 4 groups of distinct atoms

 Group   1 Type F   : 9s7p6d4f2g contracted to 9s7p6d4f2g pattern {111111111/1111111/111111/1111/11}
 Group   2 Type C   : 9s7p6d4f2g contracted to 9s7p6d4f2g pattern {111111111/1111111/111111/1111/11}
 Group   3 Type N   : 9s7p6d4f2g contracted to 9s7p6d4f2g pattern {111111111/1111111/111111/1111/11}
 Group   4 Type H   : 4s3p2d1f contracted to 4s3p2d1f pattern {1111/111/11/1}

Atom   0F    basis set group =>   1
Atom   1C    basis set group =>   2
Atom   2F    basis set group =>   1
Atom   3F    basis set group =>   1
Atom   4C    basis set group =>   2
Atom   5C    basis set group =>   2
Atom   6C    basis set group =>   2
Atom   7C    basis set group =>   2
Atom   8N    basis set group =>   3
Atom   9N    basis set group =>   3
Atom  10C    basis set group =>   2
Atom  11C    basis set group =>   2
Atom  12C    basis set group =>   2
Atom  13C    basis set group =>   2
Atom  14C    basis set group =>   2
Atom  15C    basis set group =>   2
Atom  16C    basis set group =>   2
Atom  17C    basis set group =>   2
Atom  18C    basis set group =>   2
Atom  19N    basis set group =>   3
Atom  20C    basis set group =>   2
Atom  21C    basis set group =>   2
Atom  22C    basis set group =>   2
Atom  23C    basis set group =>   2
Atom  24C    basis set group =>   2
Atom  25H    basis set group =>   4
Atom  26H    basis set group =>   4
Atom  27H    basis set group =>   4
Atom  28H    basis set group =>   4
Atom  29H    basis set group =>   4
Atom  30H    basis set group =>   4
Atom  31H    basis set group =>   4
Atom  32H    basis set group =>   4
Atom  33H    basis set group =>   4
Atom  34H    basis set group =>   4
Atom  35H    basis set group =>   4
Atom  36H    basis set group =>   4
Atom  37H    basis set group =>   4
Atom  38H    basis set group =>   4
Atom  39H    basis set group =>   4
Atom  40H    basis set group =>   4
Atom  41H    basis set group =>   4
Atom  42H    basis set group =>   4


           ************************************************************
           *        Program running with 4 parallel MPI-processes     *
           *              working on a common directory               *
           ************************************************************
------------------------------------------------------------------------------
                           ORCA GTO INTEGRAL CALCULATION
                           -- RI-GTO INTEGRALS CHOSEN --
------------------------------------------------------------------------------
------------------------------------------------------------------------------
                   ___                                                        
                  /   \      - P O W E R E D   B Y -                         
                 /     \                                                     
                 |  |  |   _    _      __       _____    __    __             
                 |  |  |  | |  | |    /  \     |  _  \  |  |  /  |          
                  \  \/   | |  | |   /    \    | | | |  |  | /  /          
                 / \  \   | |__| |  /  /\  \   | |_| |  |  |/  /          
                |  |  |   |  __  | /  /__\  \  |    /   |      \           
                |  |  |   | |  | | |   __   |  |    \   |  |\   \          
                \     /   | |  | | |  |  |  |  | |\  \  |  | \   \       
                 \___/    |_|  |_| |__|  |__|  |_| \__\ |__|  \__/        
                                                                              
                      - O R C A' S   B I G   F R I E N D -                    
                                      &                                       
                       - I N T E G R A L  F E E D E R -                       
                                                                              
 v1 FN, 2020, v2 2021                                                         
------------------------------------------------------------------------------


Reading SHARK input file optpbed3-b2plyp-test-565.SHARKINP.tmp ... ok
----------------------
SHARK INTEGRAL PACKAGE
----------------------

Number of atoms                             ...     43
Number of basis functions                   ...   1552
Number of shells                            ...    608
Maximum angular momentum                    ...      3
Integral batch strategy                     ... SHARK/LIBINT Hybrid
RI-J (if used) integral strategy            ... SPLIT-RIJ (Revised 2003 algorithm where possible)
Printlevel                                  ...      1
Contraction scheme used                     ... PARTIAL GENERAL contraction
Coulomb Range Separation                    ... NOT USED
Exchange Range Separation                   ... NOT USED
Finite Nucleus Model                        ... NOT USED
Auxiliary Coulomb fitting basis             ... AVAILABLE
   # of basis functions in Aux-J            ...   2515
   # of shells in Aux-J                     ...    805
   Maximum angular momentum in Aux-J        ...      4
Auxiliary J/K fitting basis                 ... NOT available
Auxiliary Correlation fitting basis         ... AVAILABLE
   # of basis functions in Aux-C            ...   3190
   # of shells in Aux-C                     ...    880
   Maximum angular momentum in Aux-C        ...      4
Auxiliary 'external' fitting basis          ... NOT available
Integral threshold                          ...     2.500000e-11
Primitive cut-off                           ...     2.500000e-12
Primitive pair pre-selection threshold      ...     2.500000e-12

Calculating pre-screening integrals         ... done (  0.4 sec) Dimension = 608
Calculating pre-screening integrals (ORCA)  ... done (  0.9 sec) Dimension = 458
Organizing shell pair data                  ... done (  1.2 sec)
Shell pair information
Total number of shell pairs                 ...    185136
Shell pairs after pre-screening             ...    102053
Total number of primitive shell pairs       ...    241294
Primitive shell pairs kept                  ...    119496
          la=0 lb=0:  23169 shell pairs
          la=1 lb=0:  26628 shell pairs
          la=1 lb=1:   6664 shell pairs
          la=2 lb=0:  16908 shell pairs
          la=2 lb=1:   8620 shell pairs
          la=2 lb=2:   2846 shell pairs
          la=3 lb=0:   8890 shell pairs
          la=3 lb=1:   4575 shell pairs
          la=3 lb=2:   2946 shell pairs
          la=3 lb=3:    807 shell pairs

Calculating one electron integrals          ... done (  0.3 sec)
Calculating RI/J V-Matrix + Cholesky decomp.... done (  0.6 sec)
Calculating RI/C V-Matrix + Cholesky decomp.... done (  0.9 sec)
Calculating Nuclear repulsion               ... done (  0.0 sec) ENN=   2039.254162236452 Eh

SHARK setup successfully completed in   6.0 seconds

Maximum memory used throughout the entire GTOINT-calculation: 171.1 MB


           ************************************************************
           *        Program running with 4 parallel MPI-processes     *
           *              working on a common directory               *
           ************************************************************
-------------------------------------------------------------------------------
                                 ORCA SCF
-------------------------------------------------------------------------------

------------
SCF SETTINGS
------------
Hamiltonian:
 Density Functional     Method          .... DFT(GTOs)
 Exchange Functional    Exchange        .... PBE
   PBE kappa parameter   XKappa         ....  0.804000
   PBE mue parameter    XMuePBE         ....  0.219520
 Correlation Functional Correlation     .... PBE
   PBE beta parameter  CBetaPBE         ....  0.066725
 LDA part of GGA corr.  LDAOpt          .... PW91-LDA
 Gradients option       PostSCFGGA      .... off
 Hybrid DFT is turned on
   Fraction HF Exchange ScalHFX         ....  0.250000
   Scaling of DF-GGA-X  ScalDFX         ....  0.750000
   Scaling of DF-GGA-C  ScalDFC         ....  1.000000
   Scaling of DF-LDA-C  ScalLDAC        ....  1.000000
   Perturbative correction              ....  0.000000
   Density functional embedding theory  .... OFF
   NL short-range parameter             ....  6.900000
 RI-approximation to the Coulomb term is turned on
   Number of AuxJ basis functions       .... 2515
   RIJ-COSX (HFX calculated with COS-X)).... on


General Settings:
 Integral files         IntName         .... optpbed3-b2plyp-test-565
 Hartree-Fock type      HFTyp           .... RHF
 Total Charge           Charge          ....    0
 Multiplicity           Mult            ....    1
 Number of Electrons    NEL             ....  180
 Basis Dimension        Dim             .... 1402
 Nuclear Repulsion      ENuc            ....   2039.2541622365 Eh

Convergence Acceleration:
 DIIS                   CNVDIIS         .... on
   Start iteration      DIISMaxIt       ....    12
   Startup error        DIISStart       ....  0.200000
   # of expansion vecs  DIISMaxEq       ....     5
   Bias factor          DIISBfac        ....   1.050
   Max. coefficient     DIISMaxC        ....  10.000
 Trust-Rad. Augm. Hess. CNVTRAH         .... auto
   Auto Start mean grad. ratio tolernc. ....  1.125000
   Auto Start start iteration           ....    20
   Auto Start num. interpolation iter.  ....    10
   Max. Number of Micro iterations      ....    16
   Max. Number of Macro iterations      .... Maxiter - #DIIS iter
   Number of Davidson start vectors     ....     2
   Converg. threshold I  (grad. norm)   ....   1.000e-05
   Converg. threshold II (energy diff.) ....   1.000e-08
   Grad. Scal. Fac. for Micro threshold ....   0.100
   Minimum threshold for Micro iter.    ....   0.010
   NR start threshold (gradient norm)   ....   0.001
   Initial trust radius                 ....   0.400
   Minimum AH scaling param. (alpha)    ....   1.000
   Maximum AH scaling param. (alpha)    .... 1000.000
   Orbital update algorithm             .... Taylor
   White noise on init. David. guess    .... on
   Maximum white noise                  ....   0.010
   Quad. conv. algorithm                .... NR
 SOSCF                  CNVSOSCF        .... on
   Start iteration      SOSCFMaxIt      ....   150
   Startup grad/error   SOSCFStart      ....  0.003300
 Level Shifting         CNVShift        .... on
   Level shift para.    LevelShift      ....    0.2500
   Turn off err/grad.   ShiftErr        ....    0.0010
 Zerner damping         CNVZerner       .... off
 Static damping         CNVDamp         .... on
   Fraction old density DampFac         ....    0.7000
   Max. Damping (<1)    DampMax         ....    0.9800
   Min. Damping (>=0)   DampMin         ....    0.0000
   Turn off err/grad.   DampErr         ....    0.1000
 Fernandez-Rico         CNVRico         .... off

SCF Procedure:
 Maximum # iterations   MaxIter         ....   125
 SCF integral mode      SCFMode         .... Direct
   Integral package                     .... SHARK and LIBINT hybrid scheme
 Reset frequency        DirectResetFreq ....    20
 Integral Threshold     Thresh          ....  2.500e-11 Eh
 Primitive CutOff       TCut            ....  2.500e-12 Eh

Convergence Tolerance:
 Convergence Check Mode ConvCheckMode   .... Total+1el-Energy
 Convergence forced     ConvForced      .... 0
 Energy Change          TolE            ....  1.000e-08 Eh
 1-El. energy change                    ....  1.000e-05 Eh
 Orbital Gradient       TolG            ....  1.000e-05
 Orbital Rotation angle TolX            ....  1.000e-05
 DIIS Error             TolErr          ....  5.000e-07


Diagonalization of the overlap matrix:
Smallest eigenvalue                        ... 2.026e-07
Time for diagonalization                   ...    0.512 sec
Threshold for overlap eigenvalues          ... 1.000e-08
Number of eigenvalues below threshold      ... 0
Time for construction of square roots      ...    0.362 sec
Total time needed                          ...    0.885 sec

Time for model grid setup =    1.731 sec

------------------------------
INITIAL GUESS: MODEL POTENTIAL
------------------------------
Loading Hartree-Fock densities                     ... done
Calculating cut-offs                               ... done
Initializing the effective Hamiltonian             ... done
Setting up the integral package (SHARK)            ... done
Starting the Coulomb interaction                   ... done (   4.7 sec)
Reading the grid                                   ... done
Mapping shells                                     ... done
Starting the XC term evaluation                    ... done (   2.7 sec)
  promolecular density results
     # of electrons  =    179.990004053
     EX              =   -152.278506250
     EC              =     -6.126872928
     EX+EC           =   -158.405379178
Transforming the Hamiltonian                       ... done (   0.3 sec)
Diagonalizing the Hamiltonian                      ... done (   0.6 sec)
Back transforming the eigenvectors                 ... done (   0.1 sec)
Now organizing SCF variables                       ... done
                      ------------------
                      INITIAL GUESS DONE (  10.2 sec)
                      ------------------
-------------------
DFT GRID GENERATION
-------------------

General Integration Accuracy     IntAcc      ... 4.388
Radial Grid Type                 RadialGrid  ... OptM3 with GC (2021)
Angular Grid (max. ang.)         AngularGrid ... 4 (Lebedev-302)
Angular grid pruning method      GridPruning ... 4 (adaptive)
Weight generation scheme         WeightScheme... Becke
Basis function cutoff            BFCut       ... 1.0000e-11
Integration weight cutoff        WCut        ... 1.0000e-14
Angular grids for H and He will be reduced by one unit
Partially contracted basis set               ... off
Rotationally invariant grid construction     ... off

Total number of grid points                  ...   212625
Total number of batches                      ...     3347
Average number of points per batch           ...       63
Average number of grid points per atom       ...     4945
Time for grid setup =    3.771 sec

--------------------
COSX GRID GENERATION
--------------------

GRIDX 1
-------
General Integration Accuracy     IntAcc      ... 3.816
Radial Grid Type                 RadialGrid  ... OptM3 with GC (2021)
Angular Grid (max. ang.)         AngularGrid ... 1 (Lebedev-50)
Angular grid pruning method      GridPruning ... 4 (adaptive)
Weight generation scheme         WeightScheme... Becke
Basis function cutoff            BFCut       ... 1.0000e-11
Integration weight cutoff        WCut        ... 1.0000e-14
Angular grids for H and He will be reduced by one unit
Partially contracted basis set               ... on
Rotationally invariant grid construction     ... off

Total number of grid points                  ...    27010
Total number of batches                      ...      445
Average number of points per batch           ...       60
Average number of grid points per atom       ...      628
UseSFitting                                  ... on

GRIDX 2
-------
General Integration Accuracy     IntAcc      ... 4.020
Radial Grid Type                 RadialGrid  ... OptM3 with GC (2021)
Angular Grid (max. ang.)         AngularGrid ... 2 (Lebedev-110)
Angular grid pruning method      GridPruning ... 4 (adaptive)
Weight generation scheme         WeightScheme... Becke
Basis function cutoff            BFCut       ... 1.0000e-11
Integration weight cutoff        WCut        ... 1.0000e-14
Angular grids for H and He will be reduced by one unit
Partially contracted basis set               ... on
Rotationally invariant grid construction     ... off

Total number of grid points                  ...    63864
Total number of batches                      ...     1021
Average number of points per batch           ...       62
Average number of grid points per atom       ...     1485
UseSFitting                                  ... on

GRIDX 3
-------
General Integration Accuracy     IntAcc      ... 4.338
Radial Grid Type                 RadialGrid  ... OptM3 with GC (2021)
Angular Grid (max. ang.)         AngularGrid ... 3 (Lebedev-194)
Angular grid pruning method      GridPruning ... 4 (adaptive)
Weight generation scheme         WeightScheme... Becke
Basis function cutoff            BFCut       ... 1.0000e-11
Integration weight cutoff        WCut        ... 1.0000e-14
Angular grids for H and He will be reduced by one unit
Partially contracted basis set               ... on
Rotationally invariant grid construction     ... off

Total number of grid points                  ...   137672
Total number of batches                      ...     2171
Average number of points per batch           ...       63
Average number of grid points per atom       ...     3202
UseSFitting                                  ... on

Time for X-Grid setup             =   10.145 sec


--------------------
CPCM SOLVATION MODEL
--------------------
CPCM parameters:
  Epsilon                                         ...       5.9867
  Refrac                                          ...       1.3723
  Rsolv                                           ...       1.3000
  Surface type                                    ... GAUSSIAN VDW
  Epsilon function type                           ...         CPCM
Solvent:                                     ... ETHYL ETHANOATE
SMD-CDS solvent descriptors:
  Soln                                       ...    1.3723
  Soln25                                     ...    1.3704
  Sola                                       ...    0.0000
  Solb                                       ...    0.4500
  Solg                                       ...   33.6700
  Solc                                       ...    0.0000
  Solh                                       ...    0.0000
Radii:
 Radius for F  used is    3.2692 Bohr (=   1.7300 Ang.)
 Radius for C  used is    3.4960 Bohr (=   1.8500 Ang.)
 Radius for N  used is    3.5716 Bohr (=   1.8900 Ang.)
 Radius for H  used is    2.2677 Bohr (=   1.2000 Ang.)
Calculating surface                               ...        done! (  0.0s)
GEPOL surface points                              ...         2424
GEPOL Volume                                      ...    2245.0565
GEPOL Surface-area                                ...    1248.5021
Calculating surface distance matrix               ...        done! (  0.1s)
Performing Cholesky decomposition & store         ...        done! (  0.4s)
Overall time for CPCM initialization              ...                 0.5s
 re-compute Schwartz prescreening matrix in partically contracted basis (1) ...done (   0.341 sec)
--------------
SCF ITERATIONS
--------------
ITER       Energy         Delta-E        Max-DP      RMS-DP      [F,P]     Damp
               ***  Starting incremental Fock matrix formation  ***
  0  -1197.2832491826   0.000000000000 0.11175992  0.00103613  0.1496299 0.7000
  1  -1197.4826447545  -0.199395571900 0.09063733  0.00086507  0.0816472 0.7000
                               ***Turning on DIIS***
  2  -1197.5743940035  -0.091749248974 0.20049185  0.00193828  0.0356646 0.0000
  3  -1197.7135747485  -0.139180745008 0.06999434  0.00045347  0.0389022 0.0000
  4  -1197.7423164602  -0.028741711670 0.03655417  0.00020099  0.0073028 0.0000
  5  -1197.7433859732  -0.001069513096 0.01308148  0.00007818  0.0054378 0.0000
                      *** Initiating the SOSCF procedure ***
                           *** Shutting down DIIS ***
                      *** Re-Reading the Fockian *** 
                      *** Removing any level shift *** 
ITER      Energy       Delta-E        Grad      Rot      Max-DP    RMS-DP
  6  -1197.74352242  -0.0001364442  0.000348  0.000348  0.012769  0.000075
               *** Restarting incremental Fock matrix formation ***
[...]
   Time for building 10 sigma-vectors
   Data Preparation Phase         ...     0.02 sec
   Transformed RI Coulomb         ...     1.42 sec
   Transformed RI-exchange        ...  1058.48 sec
   (ab|v) reading and digestion   ...  1014.43 sec
   Final sigma-completion         ...     0.02 sec
   Done building sigma-vectors             Size of expansion space: 50
   Lowest Energy          :     0.114085201791
   Maximum Energy change  :     0.001775496067 (vector 4)
   Maximum residual norm  :     0.000235265033

                       ****Iteration    3****
              <<< Entering MO-section for Build Sigma(Double) >>>
   Forming the XC and CPCM contribution:
   Time for densities:            0.475
   Time for XC-Integration:      29.164
   Time for LR-CPCM terms:       19.400
   Time for Sigma-Completion:     0.368
   Time for building 10 sigma-vectors
   Data Preparation Phase         ...     0.02 sec
   Transformed RI Coulomb         ...     1.46 sec
   Transformed RI-exchange        ...  1068.87 sec
   (ab|v) reading and digestion   ...  1012.60 sec
   Final sigma-completion         ...     0.02 sec
   Done building sigma-vectors             Size of expansion space: 60
   Lowest Energy          :     0.114005592653
   Maximum Energy change  :     0.000533889683 (vector 6)
   Maximum residual norm  :     0.000065359753

                       ****Iteration    4****
              <<< Entering MO-section for Build Sigma(Double) >>>
   Forming the XC and CPCM contribution:
   Time for densities:            0.471
   Time for XC-Integration:      29.292
   Time for LR-CPCM terms:       19.404
   Time for Sigma-Completion:     0.379
   Time for building 10 sigma-vectors
   Data Preparation Phase         ...     0.02 sec
   Transformed RI Coulomb         ...     1.48 sec
   Transformed RI-exchange        ...  1075.70 sec
   (ab|v) reading and digestion   ...  1030.66 sec
   Final sigma-completion         ...     0.03 sec
   Done building sigma-vectors             Size of expansion space: 70
   Lowest Energy          :     0.113999481524
   Maximum Energy change  :     0.000123742301 (vector 6)
   Maximum residual norm  :     0.000011413649
   Rebuilding the expansion space

                       ****Iteration    5****
              <<< Entering MO-section for Build Sigma(Double) >>>
   Forming the XC and CPCM contribution:
   Time for densities:            0.894
   Time for XC-Integration:      53.643
   Time for LR-CPCM terms:       30.086
   Time for Sigma-Completion:     0.724
   Time for building 20 sigma-vectors
   Data Preparation Phase         ...     0.03 sec
   Transformed RI Coulomb         ...     2.48 sec
   Transformed RI-exchange        ...  2046.38 sec
   (ab|v) reading and digestion   ...  1932.60 sec
   Final sigma-completion         ...     0.04 sec
   Done building sigma-vectors             Size of expansion space: 20
   Lowest Energy          :     0.113999136092
   Maximum Energy change  :     0.000014088787 (vector 6)
   Maximum residual norm  :     0.000001303570

                       ****Iteration    6****
              <<< Entering MO-section for Build Sigma(Double) >>>
   Forming the XC and CPCM contribution:
   Time for densities:            0.479
   Time for XC-Integration:      29.459
   Time for LR-CPCM terms:       19.445
   Time for Sigma-Completion:     0.372
   Time for building 10 sigma-vectors
   Data Preparation Phase         ...     0.02 sec
   Transformed RI Coulomb         ...     1.39 sec
   Transformed RI-exchange        ...  1081.29 sec
   (ab|v) reading and digestion   ...  1028.41 sec
   Final sigma-completion         ...     0.03 sec
   Done building sigma-vectors             Size of expansion space: 30
   Lowest Energy          :     0.113999095002
   Maximum Energy change  :     0.000003116333 (vector 6)
   Maximum residual norm  :     0.000000266338

      *** CONVERGENCE OF RESIDUAL NORM REACHED ***

Storing the converged CI vectors               ... optpbed3-b2plyp-test-565_job2.cis1

                 *** DAVIDSON DONE ***

Total time for solving the CIS problem:  8284.760sec

------------------
DOUBLES CORRECTION (Double precision version)
------------------

The (D) correction will be scaled by  0.2700
Doing v(i,a)*T(i,a) terms (RI)                    ... ok
Doing u(i,j,a,b) terms for state   0              ... ok
Doing u(i,j,a,b) terms for state   1              ... ok
Doing u(i,j,a,b) terms for state   2              ... ok
Doing u(i,j,a,b) terms for state   3              ... ok
Doing u(i,j,a,b) terms for state   4              ... ok
Doing u(i,j,a,b) terms for state   5              ... ok
Doing u(i,j,a,b) terms for state   6              ... ok
Doing u(i,j,a,b) terms for state   7              ... ok
Doing u(i,j,a,b) terms for state   8              ... ok
Doing u(i,j,a,b) terms for state   9              ... ok

Contributions to the (D) correction(s) (in eV)

STATE  Final   Init.   Total   v(ext)   v(int)  v(3)    u
       omega   omega     (D)                             
-----------------------------------------------------------------------------
   0   2.817   3.102  -0.285   0.783   0.766  -0.038  -1.797
   1   2.695   3.206  -0.511   0.722   1.065  -0.073  -2.225
   2   3.904   4.431  -0.527   0.621   0.966  -0.028  -2.087
   3   4.428   4.770  -0.342   0.093   1.049  -0.007  -1.477
   4   4.329   4.915  -0.586   0.580   0.972  -0.027  -2.111
   5   4.316   4.979  -0.663   0.529   0.981  -0.054  -2.119
   6   4.525   5.144  -0.619   0.650   0.962  -0.055  -2.176
   7   4.790   5.199  -0.409   0.127   1.058  -0.005  -1.589
   8   4.951   5.252  -0.302   0.034   1.054  -0.002  -1.389
   9   4.954   5.320  -0.366   0.060   1.061  -0.004  -1.483

(D)-timings
 V(i,a)*T(i,a) terms           ...  3562.351 sec
 U(i,j,a,b) 3-internal         ...    36.464 sec
 U(i,j,a,b) 3-external         ...   763.402 sec
 U(i,j,a,b) pair terms         ...  1574.255 sec
 Total measured time           ... 12814.035 sec

 Time for (ab|v) I/O           ...   183.435 sec


------------------------------------
TD-DFT/TDA EXCITED STATES (SINGLETS)
------------------------------------

the weight of the individual excitations are printed if larger than 1.0e-02

STATE  1:  E=   0.103511 au      2.817 eV    22717.9 cm**-1 <S**2> =   0.000000
    85a ->  90a  :     0.021437 (c=  0.14641497)
    86a ->  90a  :     0.547198 (c= -0.73972832)
    86a -> 117a  :     0.012267 (c=  0.11075681)
    87a ->  90a  :     0.302930 (c= -0.55039054)
    89a ->  90a  :     0.026820 (c= -0.16376801)

STATE  2:  E=   0.099046 au      2.695 eV    21738.0 cm**-1 <S**2> =   0.000000
    86a ->  90a  :     0.038837 (c= -0.19707213)
    89a ->  90a  :     0.912823 (c=  0.95541747)

STATE  3:  E=   0.143483 au      3.904 eV    31490.8 cm**-1 <S**2> =   0.000000
    88a ->  90a  :     0.539597 (c= -0.73457255)
    88a ->  99a  :     0.014418 (c=  0.12007331)
    89a ->  93a  :     0.074587 (c=  0.27310617)
    89a ->  94a  :     0.058254 (c=  0.24135866)
    89a ->  97a  :     0.083689 (c= -0.28929050)
    89a ->  98a  :     0.079869 (c= -0.28261074)
    89a ->  99a  :     0.033614 (c=  0.18334139)
    89a -> 104a  :     0.040708 (c=  0.20176146)

STATE  4:  E=   0.162722 au      4.428 eV    35713.4 cm**-1 <S**2> =   0.000000
    88a ->  90a  :     0.010166 (c=  0.10082460)
    89a ->  91a  :     0.759066 (c= -0.87124386)
    89a ->  92a  :     0.011022 (c= -0.10498531)
    89a ->  95a  :     0.017547 (c= -0.13246454)
    89a ->  96a  :     0.011837 (c=  0.10879960)
    89a ->  99a  :     0.023101 (c=  0.15199165)
    89a -> 101a  :     0.014088 (c=  0.11869380)
    89a -> 102a  :     0.078619 (c= -0.28039105)

STATE  5:  E=   0.159104 au      4.329 eV    34919.2 cm**-1 <S**2> =   0.000000
    85a ->  90a  :     0.414007 (c=  0.64343401)
    85a ->  99a  :     0.012406 (c=  0.11138042)
    86a ->  90a  :     0.012567 (c=  0.11210350)
    86a ->  94a  :     0.022279 (c= -0.14926060)
    87a ->  94a  :     0.048305 (c=  0.21978295)
    87a ->  97a  :     0.012519 (c=  0.11188858)
    88a ->  90a  :     0.062194 (c=  0.24938750)
    89a ->  93a  :     0.058467 (c=  0.24179851)
    89a ->  94a  :     0.283001 (c=  0.53197833)

STATE  6:  E=   0.158620 au      4.316 eV    34813.0 cm**-1 <S**2> =   0.000000
    85a ->  90a  :     0.071926 (c=  0.26819073)
    87a ->  90a  :     0.020011 (c=  0.14146113)
    87a ->  94a  :     0.010633 (c=  0.10311728)
    88a ->  90a  :     0.327017 (c= -0.57185393)
    89a ->  93a  :     0.143577 (c= -0.37891505)
    89a ->  95a  :     0.012478 (c=  0.11170285)
    89a ->  97a  :     0.170025 (c=  0.41234062)
    89a ->  98a  :     0.131536 (c=  0.36267881)
    89a ->  99a  :     0.011949 (c= -0.10931281)
    89a -> 104a  :     0.017162 (c= -0.13100282)

STATE  7:  E=   0.166293 au      4.525 eV    36497.2 cm**-1 <S**2> =   0.000000
    85a ->  90a  :     0.012669 (c= -0.11255852)
    86a ->  90a  :     0.279403 (c= -0.52858542)
    87a ->  90a  :     0.514896 (c=  0.71756256)
    89a ->  90a  :     0.012041 (c= -0.10973334)
    89a ->  92a  :     0.032718 (c=  0.18087999)
    89a ->  93a  :     0.022608 (c=  0.15035861)
    89a ->  96a  :     0.023598 (c= -0.15361611)

STATE  8:  E=   0.176028 au      4.790 eV    38633.7 cm**-1 <S**2> =   0.000000
    86a ->  90a  :     0.019912 (c=  0.14110982)
    87a ->  90a  :     0.044061 (c= -0.20990681)
    89a ->  91a  :     0.049192 (c= -0.22179241)
    89a ->  92a  :     0.477144 (c=  0.69075641)
    89a ->  93a  :     0.012123 (c=  0.11010376)
    89a ->  95a  :     0.100066 (c=  0.31633148)
    89a ->  96a  :     0.168483 (c= -0.41046682)
    89a ->  99a  :     0.017908 (c=  0.13382110)
    89a -> 102a  :     0.011869 (c=  0.10894330)
    89a -> 103a  :     0.010491 (c= -0.10242350)

STATE  9:  E=   0.181931 au      4.951 eV    39929.3 cm**-1 <S**2> =   0.000000
    89a ->  94a  :     0.012422 (c= -0.11145192)
    89a ->  95a  :     0.603888 (c=  0.77710230)
    89a ->  96a  :     0.291478 (c=  0.53988716)
    89a -> 114a  :     0.010568 (c= -0.10280182)

STATE 10:  E=   0.182055 au      4.954 eV    39956.3 cm**-1 <S**2> =   0.000000
    89a ->  92a  :     0.022883 (c=  0.15127237)
    89a ->  93a  :     0.573780 (c= -0.75748238)
    89a ->  94a  :     0.187077 (c=  0.43252453)
    89a ->  97a  :     0.088230 (c= -0.29703475)
    89a ->  98a  :     0.037467 (c= -0.19356308)
    89a -> 101a  :     0.019406 (c= -0.13930612)


-----------------------------
TD-DFT/TDA-EXCITATION SPECTRA
-----------------------------

Center of mass = (  2.7472, -0.0528, -0.0062)
Calculating the Dipole integrals                  ... done
Transforming integrals                            ... done
Calculating the Linear Momentum integrals         ... done
Transforming integrals                            ... done
Calculating angular momentum integrals            ... done
Transforming integrals                            ... done

-----------------------------------------------------------------------------
         ABSORPTION SPECTRUM VIA TRANSITION ELECTRIC DIPOLE MOMENTS
-----------------------------------------------------------------------------
State   Energy    Wavelength  fosc         T2        TX        TY        TZ  
        (cm-1)      (nm)                 (au**2)    (au)      (au)      (au) 
-----------------------------------------------------------------------------
   1   22717.9    440.2   0.038852200   0.56302   0.75000  -0.02227  -0.00465
   2   21738.0    460.0   1.218889955  18.45951  -4.29521   0.08448   0.05958
   3   31490.8    317.6   0.002947122   0.03081   0.07906  -0.10534  -0.11603
   4   35713.4    280.0   0.006849148   0.06314  -0.19753  -0.15121   0.03539
   5   34919.2    286.4   0.025808216   0.24332   0.44845  -0.11032  -0.17331
   6   34813.0    287.2   0.233932281   2.21220  -0.96847   0.69505   0.88948
   7   36497.2    274.0   0.032832330   0.29615  -0.44614  -0.26756  -0.15978
   8   38633.7    258.8   0.011414506   0.09727   0.15458  -0.22405   0.15223
   9   39929.3    250.4   0.013183422   0.10870  -0.26531   0.07670  -0.18007
  10   39956.4    250.3   0.025244753   0.20800   0.21713  -0.21306  -0.33979

-----------------------------------------------------------------------------
         ABSORPTION SPECTRUM VIA TRANSITION VELOCITY DIPOLE MOMENTS
-----------------------------------------------------------------------------
State   Energy    Wavelength   fosc        P2         PX        PY        PZ  
        (cm-1)      (nm)                 (au**2)     (au)      (au)      (au) 
-----------------------------------------------------------------------------
   1   22717.9    440.2   0.024814740   0.00385  -0.06134  -0.00862   0.00405
   2   21738.0    460.0   0.932239666   0.13850   0.37190   0.00536   0.01278
   3   31490.8    317.6   0.003086026   0.00066  -0.01053   0.01601   0.01723
   4   35713.4    280.0   0.008941659   0.00218   0.04431   0.01330  -0.00652
   5   34919.2    286.4   0.019574928   0.00467  -0.06829   0.00213   0.00207
   6   34813.0    287.2   0.097630556   0.02323   0.14877  -0.01946  -0.02679
   7   36497.2    274.0   0.065536636   0.01635   0.12456   0.02643   0.01162
   8   38633.7    258.8   0.010589754   0.00280  -0.02824   0.03114  -0.03207
   9   39929.3    250.4   0.011405189   0.00311   0.05036  -0.01472   0.01898
  10   39956.4    250.3   0.006942831   0.00190  -0.03179   0.01070   0.02777

-------------------------------------------------------------------
                             CD SPECTRUM
-------------------------------------------------------------------
State  Energy     Wavelength     R         MX        MY        MZ   
       (cm-1)       (nm)     (1e40*cgs)   (au)      (au)      (au)  
-------------------------------------------------------------------
   1   22717.9    440.2    131.99366   0.36891  -0.11528  -0.15643
   2   21738.0    460.0    -115.92101   0.05694   0.03109  -0.06607
   3   31490.8    317.6     -3.61395  -0.01908   0.21628  -0.14330
   4   35713.4    280.0     -6.34215  -0.01754   0.14426   0.13835
   5   34919.2    286.4      5.10564   0.01369   0.04248  -0.05410
   6   34813.0    287.2      0.29849   0.00500  -0.07183   0.06229
   7   36497.2    274.0    -25.06044   0.01554   0.24047  -0.11339
   8   38633.7    258.8      4.18354   0.01849   0.08118   0.15899
   9   39929.3    250.4     10.04013   0.00971  -0.06261  -0.15925
  10   39956.4    250.3     -4.95654  -0.08827  -0.15219   0.06996

-------------------------------------------------------------------
         CD SPECTRUM VIA TRANSITION VELOCITY DIPOLE MOMENTS        
-------------------------------------------------------------------
State  Energy     Wavelength     R         MX        MY        MZ   
       (cm-1)       (nm)     (1e40*cgs)   (au)      (au)      (au)  
-------------------------------------------------------------------
   1   22717.9    440.2    -101.42005   0.36891  -0.11528  -0.15643
   2   21738.0    460.0     97.57160   0.05694   0.03109  -0.06607
   3   31490.8    317.6      3.92494  -0.01908   0.21628  -0.14330
   4   35713.4    280.0      0.69392  -0.01754   0.14426   0.13835
   5   34919.2    286.4     -2.83424   0.01369   0.04248  -0.05410
   6   34813.0    287.2      1.40564   0.00500  -0.07183   0.06229
   7   36497.2    274.0     19.76812   0.01554   0.24047  -0.11339
   8   38633.7    258.8     -8.28512   0.01849   0.08118   0.15899
   9   39929.3    250.4     -4.17467   0.00971  -0.06261  -0.15925
  10   39956.4    250.3      8.08003  -0.08827  -0.15219   0.06996

Total run time:    21114.338 sec

           *** ORCA-CIS/TD-DFT FINISHED WITHOUT ERROR ***

Maximum memory used throughout the entire CIS-calculation: 2670.5 MB

-----------------------
CIS/TD-DFT TOTAL ENERGY
-----------------------

    E(SCF)  =  -1196.729354644 Eh
    DE(CIS) =      0.103510536 Eh (Root  1)
    ----------------------------- ---------
    E(tot)  =  -1196.625844108 Eh



-------------------------------------------------------------------------------
                          DFT DISPERSION CORRECTION                            
                                                                               
                              DFTD3 V3.1  Rev 1                                
                          USING Becke-Johnson damping                          
-------------------------------------------------------------------------------
The B2PLYP functional is recognized
Active option DFTDOPT                   ...         4   

molecular C6(AA) [au] = 20018.895080 


            DFT-D V3
 parameters
 s6 scaling factor         :     0.6400 
 a1 scaling factor         :     0.3065 
 s8 scaling factor         :     0.9147 
 a2 scaling factor         :     5.0570 
 ad hoc parameters k1-k3   :    16.0000     1.3333    -4.0000 

 Edisp/kcal,au: -27.123943703501  -0.043224751070 
 E6   /kcal   : -15.391736170 
 E8   /kcal   : -11.732207533 
 % E8         :  43.254062394 

-------------------------   ----------------
Dispersion correction           -0.043224751
-------------------------   ----------------


-------------------------   --------------------
FINAL SINGLE POINT ENERGY     -1196.669068859187
-------------------------   --------------------


                            ***************************************
                            *     ORCA property calculations      *
                            ***************************************


  WARNING: The energy has been calculated at the MP2 level but the densities
           used in the property calculations are still SCF densities
           MP2 response densities have not been calculated 
           use %mp2 Density relaxed end
           or  %mp2 Density unrelaxed end

                                    ---------------------
                                    Active property flags
                                    ---------------------
   (+) Dipole Moment


------------------------------------------------------------------------------
                       ORCA ELECTRIC PROPERTIES CALCULATION
------------------------------------------------------------------------------

Dipole Moment Calculation                       ... on
Quadrupole Moment Calculation                   ... off
Polarizability Calculation                      ... off
GBWName                                         ... optpbed3-b2plyp-test-565_job2.gbw
Electron density                                ... optpbed3-b2plyp-test-565_job2.scfp
The origin for moment calculation is the CENTER OF MASS  = ( 2.747246, -0.052805 -0.006238)

-------------
DIPOLE MOMENT
-------------
                                X             Y             Z
Electronic contribution:     67.19616       0.63356      -0.00399
Nuclear contribution   :    -71.64285      -0.63440      -0.05445
                        -----------------------------------------
Total Dipole Moment    :     -4.44669      -0.00084      -0.05844
                        -----------------------------------------
Magnitude (a.u.)       :      4.44708
Magnitude (Debye)      :     11.30357



--------------------
Rotational spectrum 
--------------------
 
Rotational constants in cm-1:     0.024239     0.002166     0.002020 
Rotational constants in MHz :   726.667967    64.947393    60.548413 

 Dipole components along the rotational axes: 
x,y,z [a.u.] :    -4.445460     0.107092     0.053843 
x,y,z [Debye]:   -11.299462     0.272206     0.136857 

 

Timings for individual modules:

Sum of individual times         ...    25632.068 sec (= 427.201 min)
GTO integral calculation        ...        7.476 sec (=   0.125 min)   0.0 %
SCF iterations                  ...     2058.875 sec (=  34.315 min)   8.0 %
MP2 module                      ...     2441.725 sec (=  40.695 min)   9.5 %
CIS module                      ...    21123.991 sec (= 352.067 min)  82.4 %



                             ****ORCA TERMINATED NORMALLY****
TOTAL RUN TIME: 0 days 22 hours 47 minutes 50 seconds 430 msec
