
                                 *****************
                                 * O   R   C   A *
                                 *****************

                                            #,                                       
                                            ###                                      
                                            ####                                     
                                            #####                                    
                                            ######                                   
                                           ########,                                 
                                     ,,################,,,,,                         
                               ,,#################################,,                 
                          ,,##########################################,,             
                       ,#########################################, ''#####,          
                    ,#############################################,,   '####,        
                  ,##################################################,,,,####,       
                ,###########''''           ''''###############################       
              ,#####''   ,,,,##########,,,,          '''####'''          '####       
            ,##' ,,,,###########################,,,                        '##       
           ' ,,###''''                  '''############,,,                           
         ,,##''                                '''############,,,,        ,,,,,,###''
      ,#''                                            '''#######################'''  
     '                                                          ''''####''''         
             ,#######,   #######,   ,#######,      ##                                
            ,#'     '#,  ##    ##  ,#'     '#,    #''#        ######   ,####,        
            ##       ##  ##   ,#'  ##            #'  '#       #        #'  '#        
            ##       ##  #######   ##           ,######,      #####,   #    #        
            '#,     ,#'  ##    ##  '#,     ,#' ,#      #,         ##   #,  ,#        
             '#######'   ##     ##  '#######'  #'      '#     #####' # '####'        



                  #######################################################
                  #                        -***-                        #
                  #          Department of theory and spectroscopy      #
                  #    Directorship and core code : Frank Neese         #
                  #        Max Planck Institute fuer Kohlenforschung    #
                  #                Kaiser Wilhelm Platz 1               #
                  #                 D-45470 Muelheim/Ruhr               #
                  #                      Germany                        #
                  #                                                     #
                  #                  All rights reserved                #
                  #                        -***-                        #
                  #######################################################


                         Program Version 5.0.2 -  RELEASE  -


 With contributions from (in alphabetic order):
   Daniel Aravena         : Magnetic Suceptibility
   Michael Atanasov       : Ab Initio Ligand Field Theory (pilot matlab implementation)
   Alexander A. Auer      : GIAO ZORA, VPT2 properties, NMR spectrum
   Ute Becker             : Parallelization
   Giovanni Bistoni       : ED, misc. LED, open-shell LED, HFLD
   Martin Brehm           : Molecular dynamics
   Dmytro Bykov           : SCF Hessian
   Vijay G. Chilkuri      : MRCI spin determinant printing, contributions to CSF-ICE
   Dipayan Datta          : RHF DLPNO-CCSD density
   Achintya Kumar Dutta   : EOM-CC, STEOM-CC
   Dmitry Ganyushin       : Spin-Orbit,Spin-Spin,Magnetic field MRCI
   Miquel Garcia          : C-PCM and meta-GGA Hessian, CC/C-PCM, Gaussian charge scheme
   Yang Guo               : DLPNO-NEVPT2, F12-NEVPT2, CIM, IAO-localization
   Andreas Hansen         : Spin unrestricted coupled pair/coupled cluster methods
   Benjamin Helmich-Paris : MC-RPA, TRAH-SCF, COSX integrals
   Lee Huntington         : MR-EOM, pCC
   Robert Izsak           : Overlap fitted RIJCOSX, COSX-SCS-MP3, EOM
   Marcus Kettner         : VPT2
   Christian Kollmar      : KDIIS, OOCD, Brueckner-CCSD(T), CCSD density, CASPT2, CASPT2-K
   Simone Kossmann        : Meta GGA functionals, TD-DFT gradient, OOMP2, MP2 Hessian
   Martin Krupicka        : Initial AUTO-CI
   Lucas Lang             : DCDCAS
   Marvin Lechner         : AUTO-CI (C++ implementation), FIC-MRCC
   Dagmar Lenk            : GEPOL surface, SMD
   Dimitrios Liakos       : Extrapolation schemes; Compound Job, initial MDCI parallelization
   Dimitrios Manganas     : Further ROCIS development; embedding schemes
   Dimitrios Pantazis     : SARC Basis sets
   Anastasios Papadopoulos: AUTO-CI, single reference methods and gradients
   Taras Petrenko         : DFT Hessian,TD-DFT gradient, ASA, ECA, R-Raman, ABS, FL, XAS/XES, NRVS
   Peter Pinski           : DLPNO-MP2, DLPNO-MP2 Gradient
   Christoph Reimann      : Effective Core Potentials
   Marius Retegan         : Local ZFS, SOC
   Christoph Riplinger    : Optimizer, TS searches, QM/MM, DLPNO-CCSD(T), (RO)-DLPNO pert. Triples
   Tobias Risthaus        : Range-separated hybrids, TD-DFT gradient, RPA, STAB
   Michael Roemelt        : Original ROCIS implementation
   Masaaki Saitow         : Open-shell DLPNO-CCSD energy and density
   Barbara Sandhoefer     : DKH picture change effects
   Avijit Sen             : IP-ROCIS
   Kantharuban Sivalingam : CASSCF convergence, NEVPT2, FIC-MRCI
   Bernardo de Souza      : ESD, SOC TD-DFT
   Georgi Stoychev        : AutoAux, RI-MP2 NMR, DLPNO-MP2 response
   Willem Van den Heuvel  : Paramagnetic NMR
   Boris Wezisla          : Elementary symmetry handling
   Frank Wennmohs         : Technical directorship


 We gratefully acknowledge several colleagues who have allowed us to
 interface, adapt or use parts of their codes:
   Stefan Grimme, W. Hujo, H. Kruse, P. Pracht,  : VdW corrections, initial TS optimization,
                  C. Bannwarth, S. Ehlert          DFT functionals, gCP, sTDA/sTD-DF
   Ed Valeev, F. Pavosevic, A. Kumar             : LibInt (2-el integral package), F12 methods
   Garnet Chan, S. Sharma, J. Yang, R. Olivares  : DMRG
   Ulf Ekstrom                                   : XCFun DFT Library
   Mihaly Kallay                                 : mrcc  (arbitrary order and MRCC methods)
   Jiri Pittner, Ondrej Demel                    : Mk-CCSD
   Frank Weinhold                                : gennbo (NPA and NBO analysis)
   Christopher J. Cramer and Donald G. Truhlar   : smd solvation model
   Lars Goerigk                                  : TD-DFT with DH, B97 family of functionals
   V. Asgeirsson, H. Jonsson                     : NEB implementation
   FAccTs GmbH                                   : IRC, NEB, NEB-TS, DLPNO-Multilevel, CI-OPT
                                                   MM, QMMM, 2- and 3-layer-ONIOM, Crystal-QMMM,
                                                   LR-CPCM, SF, NACMEs, symmetry and pop. for TD-DFT,
                                                   nearIR, NL-DFT gradient (VV10), updates on ESD,
                                                   ML-optimized integration grids
   S Lehtola, MJT Oliveira, MAL Marques          : LibXC Library
   Liviu Ungur et al                             : ANISO software


 Your calculation uses the libint2 library for the computation of 2-el integrals
 For citations please refer to: http://libint.valeyev.net

 Your ORCA version has been built with support for libXC version: 5.1.0
 For citations please refer to: https://tddft.org/programs/libxc/

 This ORCA versions uses:
   CBLAS   interface :  Fast vector & matrix operations
   LAPACKE interface :  Fast linear algebra routines
   SCALAPACK package :  Parallel linear algebra routines
   Shared memory     :  Shared parallel matrices
   BLAS/LAPACK       :  OpenBLAS 0.3.15  USE64BITINT DYNAMIC_ARCH NO_AFFINITY Sandybridge SINGLE_THREADED
        Core in use  :  Sandybridge
   Copyright (c) 2011-2014, The OpenBLAS Project


Your calculation utilizes the atom-pairwise dispersion correction
with the Becke-Johnson damping scheme (D3BJ)
Cite in your paper:
S.Grimme, S.Ehrlich, L.Goerigk, J Comput Chem, (2011), 32, 1456–1465 
S.Grimme, J.Antony, S.Ehrlich and H.Krieg, J.Chem.Phys., 132, (2010), 154104 
   

Your calculation utilizes the SMD solvation module
Please cite in your paper:
A.V. Marenich, C.J. Cramer, D.G. Truhlar J. Phys. Chem. B, 113, (2009), 6378 

================================================================================

----- Orbital basis set information -----
Your calculation utilizes the basis: aug-cc-pVTZ 
    H, B-Ne : Obtained from the ccRepo (grant-hill.group.shef.ac.uk/ccrepo) Feb. 2017
              R. A. Kendall, T. H. Dunning, Jr., R. J. Harrison, J. Chem. Phys. 96, 6796 (1992)
         He : Obtained from the ccRepo (grant-hill.group.shef.ac.uk/ccrepo) Feb. 2017
              D. E. Woon, T. H. Dunning, Jr., J. Chem. Phys. 100, 2975 (1994)
  Li-Be, Na : Obtained from the ccRepo (grant-hill.group.shef.ac.uk/ccrepo) Feb. 2017
              B. P. Prascher, D. E. Woon, K. A. Peterson, T. H. Dunning, Jr., A. K. Wilson, Theor. Chem. Acc. 128, 69 (2011)
         Mg : Obtained from the Peterson Research Group Website (tyr0.chem.wsu.edu/~kipeters) Feb. 2017
              B. P. Prascher, D. E. Woon, K. A. Peterson, T. H. Dunning, Jr., A. K. Wilson, Theor. Chem. Acc. 128, 69 (2011)
      Al-Ar : Obtained from the ccRepo (grant-hill.group.shef.ac.uk/ccrepo) Feb. 2017
              D. E. Woon, T. H. Dunning, Jr., J. Chem. Phys. 98, 1358 (1993)
      Sc-Zn : Obtained from the ccRepo (grant-hill.group.shef.ac.uk/ccrepo) Feb. 2017
              N. B. Balabanov, K. A. Peterson, J. Chem. Phys. 123, 064107 (2005)
              N. B. Balabanov, K. A. Peterson, J. Chem. Phys. 125, 074110 (2006)
      Ga-Kr : Obtained from the ccRepo (grant-hill.group.shef.ac.uk/ccrepo) Feb. 2017
              A. K. Wilson, D. E. Woon, K. A. Peterson, T. H. Dunning, Jr., J. Chem. Phys. 110, 7667 (1999)
     Ag, Au : Obtained from the Peterson Research Group Website (tyr0.chem.wsu.edu/~kipeters) Feb. 2017
              K. A. Peterson, C. Puzzarini, Theor. Chem. Acc. 114, 283 (2005)

The basis set includes element-specific modifications.

Your calculation utilizes the basis: cc-pVTZ 
       H, B-Ne : Obtained from the ccRepo (grant-hill.group.shef.ac.uk/ccrepo) Feb. 2017
                 T. H. Dunning, Jr., J. Chem. Phys. 90, 1007 (1989)
            He : Obtained from the ccRepo (grant-hill.group.shef.ac.uk/ccrepo) Feb. 2017
                 D. E. Woon, T. H. Dunning, Jr., J. Chem. Phys. 100, 2975 (1994)
  Li-Be, Na-Mg : Obtained from the ccRepo (grant-hill.group.shef.ac.uk/ccrepo) Feb. 2017
                 B. P. Prascher, D. E. Woon, K. A. Peterson, T. H. Dunning, Jr., A. K. Wilson, Theor. Chem. Acc. 128, 69 (2011)
         Al-Ar : Obtained from the ccRepo (grant-hill.group.shef.ac.uk/ccrepo) Feb. 2017
                 D. E. Woon, T. H. Dunning, Jr., J. Chem. Phys. 98, 1358 (1993)
            Ca : Obtained from the Peterson Research Group Website (tyr0.chem.wsu.edu/~kipeters) Feb. 2017
                 J. Koput, K. A. Peterson, J. Phys. Chem. 106, 9595 (2002)
         Sc-Zn : Obtained from the ccRepo (grant-hill.group.shef.ac.uk/ccrepo) Feb. 2017
                 N. B. Balabanov, K. A. Peterson, J. Chem. Phys. 123, 064107 (2005)
                 N. B. Balabanov, K. A. Peterson, J. Chem. Phys. 125, 074110 (2006)
         Ga-Kr : Obtained from the ccRepo (grant-hill.group.shef.ac.uk/ccrepo) Feb. 2017
                 A. K. Wilson, D. E. Woon, K. A. Peterson, T. H. Dunning, Jr., J. Chem. Phys. 110, 7667 (1999)
             Y : Obtained from the ccRepo (grant-hill.group.shef.ac.uk/ccrepo) Feb. 2017
                 K. A. Peterson, D. Figgen, M. Dolg, H. Stoll, J. Chem. Phys. 126, 124101 (2007)
        Ag, Au : Obtained from the Peterson Research Group Website (tyr0.chem.wsu.edu/~kipeters) Feb. 2017
                 K. A. Peterson, C. Puzzarini, Theor. Chem. Acc. 114, 283 (2005)

----- AuxJ basis set information -----
Your calculation utilizes the auxiliary basis: aug-cc-pVTZ/JK 
  H, B-F, Al-Cl, Ga-Br : Obtained from the TURBOMOLE 7.0 basis set library

The basis set includes element-specific modifications.

Your calculation utilizes the auxiliary basis: cc-pVTZ/JK 
  H, B-F, Al-Cl, Ga-Br : Obtained from the TURBOMOLE 7.0 basis set library

----- AuxC basis set information -----
Your calculation utilizes the auxiliary basis: aug-cc-pVTZ/C 
  H-He, B-F, Al-Ar, Ga-Kr : Obtained from the EMSL Basis Set Exchange (bse.pnl.gov) Feb. 2017
                            F. Weigend, A. Kohn, C. Hattig, J. Chem. Phys. 116, 3175 (2002)
                   Be, Mg : Obtained from the TURBOMOLE 7.0 basis set library
                            C. Haettig, Phys. Chem. Chem. Phys. 7, 59 (2005)
                       Ne : Obtained from the EMSL Basis Set Exchange (bse.pnl.gov) Feb. 2017
                            C. Haettig, Phys. Chem. Chem. Phys. 7, 59 (2005)
                            F. Weigend, A. Kohn, C. Hattig, J. Chem. Phys. 116, 3175 (2002)
                    Sc-Zn : Obtained from the EMSL Basis Set Exchange (bse.pnl.gov) Feb. 2017
                            J. G. Hill, J. A. Platts, J. Chem. Phys. 128, 044104 (2008)

The basis set includes element-specific modifications.

Your calculation utilizes the auxiliary basis: cc-pVTZ/C 
  Obtained from the EMSL Basis Set Exchange (bse.pnl.gov) Feb. 2017
  H-He, B-F, Al-Ar, Ga-Kr : F. Weigend, A. Kohn, C. Hattig, J. Chem. Phys. 116, 3175 (2002)
             Li-Be, Na-Mg : C. Haettig, Phys. Chem. Chem. Phys. 7, 59 (2005)
                       Ne : C. Haettig, Phys. Chem. Chem. Phys. 7, 59 (2005)
                            F. Weigend, A. Kohn, C. Hattig, J. Chem. Phys. 116, 3175 (2002)
                    Sc-Zn : J. G. Hill, J. A. Platts, J. Chem. Phys. 128, 044104 (2008)

================================================================================
                                        WARNINGS
                       Please study these warnings very carefully!
================================================================================


WARNING: Geometry Optimization
  ===> : Switching off AutoStart
         For restart on a previous wavefunction, please use MOREAD

INFO   : the flag for use of the SHARK integral package has been found!



***************************************
The coordinates will be read from file: 
***************************************


Your calculation utilizes the atom-pairwise dispersion correction
with the Becke-Johnson damping scheme (D3BJ)
Cite in your paper:
S.Grimme, S.Ehrlich, L.Goerigk, J Comput Chem, (2011), 32, 1456–1465 
S.Grimme, J.Antony, S.Ehrlich and H.Krieg, J.Chem.Phys., 132, (2010), 154104 
   

Your calculation utilizes the SMD solvation module
Please cite in your paper:
A.V. Marenich, C.J. Cramer, D.G. Truhlar J. Phys. Chem. B, 113, (2009), 6378 

================================================================================

----- Orbital basis set information -----
Your calculation utilizes the basis: aug-cc-pVTZ 
    H, B-Ne : Obtained from the ccRepo (grant-hill.group.shef.ac.uk/ccrepo) Feb. 2017
              R. A. Kendall, T. H. Dunning, Jr., R. J. Harrison, J. Chem. Phys. 96, 6796 (1992)
         He : Obtained from the ccRepo (grant-hill.group.shef.ac.uk/ccrepo) Feb. 2017
              D. E. Woon, T. H. Dunning, Jr., J. Chem. Phys. 100, 2975 (1994)
  Li-Be, Na : Obtained from the ccRepo (grant-hill.group.shef.ac.uk/ccrepo) Feb. 2017
              B. P. Prascher, D. E. Woon, K. A. Peterson, T. H. Dunning, Jr., A. K. Wilson, Theor. Chem. Acc. 128, 69 (2011)
         Mg : Obtained from the Peterson Research Group Website (tyr0.chem.wsu.edu/~kipeters) Feb. 2017
              B. P. Prascher, D. E. Woon, K. A. Peterson, T. H. Dunning, Jr., A. K. Wilson, Theor. Chem. Acc. 128, 69 (2011)
      Al-Ar : Obtained from the ccRepo (grant-hill.group.shef.ac.uk/ccrepo) Feb. 2017
              D. E. Woon, T. H. Dunning, Jr., J. Chem. Phys. 98, 1358 (1993)
      Sc-Zn : Obtained from the ccRepo (grant-hill.group.shef.ac.uk/ccrepo) Feb. 2017
              N. B. Balabanov, K. A. Peterson, J. Chem. Phys. 123, 064107 (2005)
              N. B. Balabanov, K. A. Peterson, J. Chem. Phys. 125, 074110 (2006)
      Ga-Kr : Obtained from the ccRepo (grant-hill.group.shef.ac.uk/ccrepo) Feb. 2017
              A. K. Wilson, D. E. Woon, K. A. Peterson, T. H. Dunning, Jr., J. Chem. Phys. 110, 7667 (1999)
     Ag, Au : Obtained from the Peterson Research Group Website (tyr0.chem.wsu.edu/~kipeters) Feb. 2017
              K. A. Peterson, C. Puzzarini, Theor. Chem. Acc. 114, 283 (2005)

The basis set includes element-specific modifications.

Your calculation utilizes the basis: cc-pVTZ 
       H, B-Ne : Obtained from the ccRepo (grant-hill.group.shef.ac.uk/ccrepo) Feb. 2017
                 T. H. Dunning, Jr., J. Chem. Phys. 90, 1007 (1989)
            He : Obtained from the ccRepo (grant-hill.group.shef.ac.uk/ccrepo) Feb. 2017
                 D. E. Woon, T. H. Dunning, Jr., J. Chem. Phys. 100, 2975 (1994)
  Li-Be, Na-Mg : Obtained from the ccRepo (grant-hill.group.shef.ac.uk/ccrepo) Feb. 2017
                 B. P. Prascher, D. E. Woon, K. A. Peterson, T. H. Dunning, Jr., A. K. Wilson, Theor. Chem. Acc. 128, 69 (2011)
         Al-Ar : Obtained from the ccRepo (grant-hill.group.shef.ac.uk/ccrepo) Feb. 2017
                 D. E. Woon, T. H. Dunning, Jr., J. Chem. Phys. 98, 1358 (1993)
            Ca : Obtained from the Peterson Research Group Website (tyr0.chem.wsu.edu/~kipeters) Feb. 2017
                 J. Koput, K. A. Peterson, J. Phys. Chem. 106, 9595 (2002)
         Sc-Zn : Obtained from the ccRepo (grant-hill.group.shef.ac.uk/ccrepo) Feb. 2017
                 N. B. Balabanov, K. A. Peterson, J. Chem. Phys. 123, 064107 (2005)
                 N. B. Balabanov, K. A. Peterson, J. Chem. Phys. 125, 074110 (2006)
         Ga-Kr : Obtained from the ccRepo (grant-hill.group.shef.ac.uk/ccrepo) Feb. 2017
                 A. K. Wilson, D. E. Woon, K. A. Peterson, T. H. Dunning, Jr., J. Chem. Phys. 110, 7667 (1999)
             Y : Obtained from the ccRepo (grant-hill.group.shef.ac.uk/ccrepo) Feb. 2017
                 K. A. Peterson, D. Figgen, M. Dolg, H. Stoll, J. Chem. Phys. 126, 124101 (2007)
        Ag, Au : Obtained from the Peterson Research Group Website (tyr0.chem.wsu.edu/~kipeters) Feb. 2017
                 K. A. Peterson, C. Puzzarini, Theor. Chem. Acc. 114, 283 (2005)

----- AuxJ basis set information -----
Your calculation utilizes the auxiliary basis: aug-cc-pVTZ/JK 
  H, B-F, Al-Cl, Ga-Br : Obtained from the TURBOMOLE 7.0 basis set library

The basis set includes element-specific modifications.

Your calculation utilizes the auxiliary basis: cc-pVTZ/JK 
  H, B-F, Al-Cl, Ga-Br : Obtained from the TURBOMOLE 7.0 basis set library

----- AuxC basis set information -----
Your calculation utilizes the auxiliary basis: aug-cc-pVTZ/C 
  H-He, B-F, Al-Ar, Ga-Kr : Obtained from the EMSL Basis Set Exchange (bse.pnl.gov) Feb. 2017
                            F. Weigend, A. Kohn, C. Hattig, J. Chem. Phys. 116, 3175 (2002)
                   Be, Mg : Obtained from the TURBOMOLE 7.0 basis set library
                            C. Haettig, Phys. Chem. Chem. Phys. 7, 59 (2005)
                       Ne : Obtained from the EMSL Basis Set Exchange (bse.pnl.gov) Feb. 2017
                            C. Haettig, Phys. Chem. Chem. Phys. 7, 59 (2005)
                            F. Weigend, A. Kohn, C. Hattig, J. Chem. Phys. 116, 3175 (2002)
                    Sc-Zn : Obtained from the EMSL Basis Set Exchange (bse.pnl.gov) Feb. 2017
                            J. G. Hill, J. A. Platts, J. Chem. Phys. 128, 044104 (2008)

The basis set includes element-specific modifications.

Your calculation utilizes the auxiliary basis: cc-pVTZ/C 
  Obtained from the EMSL Basis Set Exchange (bse.pnl.gov) Feb. 2017
  H-He, B-F, Al-Ar, Ga-Kr : F. Weigend, A. Kohn, C. Hattig, J. Chem. Phys. 116, 3175 (2002)
             Li-Be, Na-Mg : C. Haettig, Phys. Chem. Chem. Phys. 7, 59 (2005)
                       Ne : C. Haettig, Phys. Chem. Chem. Phys. 7, 59 (2005)
                            F. Weigend, A. Kohn, C. Hattig, J. Chem. Phys. 116, 3175 (2002)
                    Sc-Zn : J. G. Hill, J. A. Platts, J. Chem. Phys. 128, 044104 (2008)

================================================================================
                                        WARNINGS
                       Please study these warnings very carefully!
================================================================================

INFO   : Checking CIS options ...
  ===> : (D) CORRECTION FOUND - SETTING MODE=3
  ===> : JK MODE FOUND - ACTIVATING RI-MP2 CODE
  ===> : MP2 AND CIS FOUND - CHECKING
WARNING: CIS(D) and MP2 runs must have the same orbital window
  ===> : adjusting orbital windows

WARNING: No MP2 level density has been requested!
         To caclulate MP2 level properties use
         %mp2 Density relaxed end
         or
         %mp2 Density unrelaxed end
         Otherwise for double-hybrid DFT only the energy is correct!

WARNING: The frozen-core approximation is turned on by default for 
         the MP2 part of double-hybrid DFT.

INFO   : the flag for use of the SHARK integral package has been found!

================================================================================
                                       INPUT FILE
================================================================================
NAME = optpbed3-b2plyp-test-588.inp
|  1> ! pbe0 d3bj aug-cc-PVTZ RIJCOSX Opt
|  2> %maxcore 4000
|  3> %basis
|  4>  AuxJ "aug-cc-PVTZ/JK"
|  5>  AuxC "aug-cc-PVTZ/C"
|  6>  newGTO H "cc-PVTZ" end
|  7>  newAuxJGTO H "cc-PVTZ/JK" end
|  8>  newAuxCGTO H "cc-PVTZ/C" end
|  9> end
| 10> %cpcm
| 11>  SMD true
| 12>  SMDsolvent "methanol"
| 13> end
| 14> %pal nprocs 4 end
| 15> * xyz 0 1
| 16> O          2.02020       -2.35470       -1.30230
| 17> C          1.71270       -1.35690       -0.66640
| 18> C          0.33560       -0.97800       -0.44310
| 19> C         -0.02930        0.10830        0.28350
| 20> N         -1.28850        0.53610        0.55650
| 21> C         -2.51800        0.14290        0.05550
| 22> C         -2.68720       -0.36280       -1.23400
| 23> C         -3.94610       -0.71750       -1.68240
| 24> C         -5.05980       -0.57250       -0.87320
| 25> C         -4.88010       -0.04390        0.39300
| 26> F         -5.95200        0.12470        1.19230
| 27> C         -3.63810        0.32000        0.86980
| 28> C          0.99220        0.96350        0.96350
| 29> O          0.63180        1.87410        1.69000
| 30> C          2.39770        0.63880        0.70590
| 31> C          3.39610        1.44070        1.25670
| 32> C          4.72920        1.15310        1.02810
| 33> C          5.07730        0.05810        0.25140
| 34> C          4.09230       -0.74710       -0.29590
| 35> C          2.74960       -0.46660       -0.07850
| 36> H         -0.40310       -1.63990       -0.86850
| 37> H         -1.29930        1.25530        1.27880
| 38> H         -1.84230       -0.44280       -1.89710
| 39> H         -4.06190       -1.10560       -2.68250
| 40> H         -6.04620       -0.84740       -1.20860
| 41> H         -3.54250        0.72940        1.86350
| 42> H          3.10220        2.28680        1.86000
| 43> H          5.49690        1.78050        1.45530
| 44> H          6.11790       -0.16920        0.07410
| 45> H          4.34240       -1.60730       -0.89910
| 46> *
| 47> 
| 48> 
| 49> $new_job
| 50> ! b2plyp aug-cc-PVTZ RIJCOSX SP
| 51> %maxcore 4000
| 52> %basis
| 53>  AuxJ "aug-cc-PVTZ/JK"
| 54>  AuxC "aug-cc-PVTZ/C"
| 55>  newGTO H "cc-PVTZ" end
| 56>  newAuxJGTO H "cc-PVTZ/JK" end
| 57>  newAuxCGTO H "cc-PVTZ/C" end
| 58> end
| 59> %cpcm
| 60>  SMD true
| 61>  SMDsolvent "methanol"
| 62> end
| 63> %pal nprocs 4 end
| 64> %tddft
| 65>  nroots 10
| 66>  maxdim 7
| 67> end
| 68> * xyzfile 0 1
| 69> 
| 70>                          ****END OF INPUT****
================================================================================


                 $$$$$$$$$$$$$$$$$$$$$$$$$$$$$$$$$$$$$$$$$$$$$$ 
                 $ THERE ARE  2 JOBS TO BE PROCESSED THIS RUN $
                 $$$$$$$$$$$$$$$$$$$$$$$$$$$$$$$$$$$$$$$$$$$$$$ 




                 $$$$$$$$$$$$$$$$  JOB NUMBER  1 $$$$$$$$$$$$$$


                       *****************************
                       * Geometry Optimization Run *
                       *****************************

Geometry optimization settings:
Update method            Update   .... BFGS
Choice of coordinates    CoordSys .... Z-matrix Internals
Initial Hessian          InHess   .... Almoef's Model

Convergence Tolerances:
Energy Change            TolE     ....  5.0000e-06 Eh
Max. Gradient            TolMAXG  ....  3.0000e-04 Eh/bohr
RMS Gradient             TolRMSG  ....  1.0000e-04 Eh/bohr
Max. Displacement        TolMAXD  ....  4.0000e-03 bohr
RMS Displacement         TolRMSD  ....  2.0000e-03 bohr
Strict Convergence                ....  False
------------------------------------------------------------------------------
                        ORCA OPTIMIZATION COORDINATE SETUP
------------------------------------------------------------------------------

The optimization will be done in new redundant internal coordinates
Making redundant internal coordinates   ...  (new redundants) done
Evaluating the initial hessian          ...  (Almloef) done
Evaluating the coordinates              ...  done
Calculating the B-matrix                .... done
Calculating the G-matrix                .... done
Diagonalizing the G-matrix              .... done
Small eigenvalue found = 4.231e-03
Small eigenvalue found = 1.757e-02
The first mode is                       ....   75
The number of degrees of freedom        ....   84

    -----------------------------------------------------------------
                    Redundant Internal Coordinates


    -----------------------------------------------------------------
         Definition                    Initial Value    Approx d2E/dq
    -----------------------------------------------------------------
      1. B(C   1,O   0)                  1.2225         1.035370   
      2. B(C   2,C   1)                  1.4456         0.509321   
      3. B(C   3,C   2)                  1.3569         0.705611   
      4. B(N   4,C   3)                  1.3576         0.630288   
      5. B(C   5,N   4)                  1.3847         0.570688   
      6. B(C   6,C   5)                  1.3954         0.612500   
      7. B(C   7,C   6)                  1.3826         0.641911   
      8. B(C   8,C   7)                  1.3843         0.638127   
      9. B(C   9,C   8)                  1.3838         0.639131   
     10. B(F  10,C   9)                  1.3477         0.607386   
     11. B(C  11,C   9)                  1.3792         0.649969   
     12. B(C  11,C   5)                  1.3961         0.610969   
     13. B(C  12,C   3)                  1.4957         0.423684   
     14. B(O  13,C  12)                  1.2194         1.047350   
     15. B(C  14,C  12)                  1.4653         0.473740   
     16. B(C  15,C  14)                  1.3940         0.615690   
     17. B(C  16,C  15)                  1.3828         0.641550   
     18. B(C  17,C  16)                  1.3869         0.631978   
     19. B(C  18,C  17)                  1.3850         0.636476   
     20. B(C  19,C  18)                  1.3888         0.627540   
     21. B(C  19,C  14)                  1.4004         0.601450   
     22. B(C  19,C   1)                  1.4878         0.436288   
     23. B(H  20,C   2)                  1.0792         0.374622   
     24. B(H  21,N   4)                  1.0194         0.418091   
     25. B(H  22,C   6)                  1.0770         0.377696   
     26. B(H  23,C   7)                  1.0790         0.374956   
     27. B(H  24,C   8)                  1.0775         0.376995   
     28. B(H  25,C  11)                  1.0790         0.374984   
     29. B(H  26,C  15)                  1.0799         0.373681   
     30. B(H  27,C  16)                  1.0796         0.374151   
     31. B(H  28,C  17)                  1.0798         0.373861   
     32. B(H  29,C  18)                  1.0800         0.373610   
     33. A(C   2,C   1,C  19)          116.4895         0.393810   
     34. A(O   0,C   1,C   2)          122.2680         0.456613   
     35. A(O   0,C   1,C  19)          121.2425         0.443958   
     36. A(C   3,C   2,H  20)          121.1984         0.363192   
     37. A(C   1,C   2,C   3)          123.2796         0.428850   
     38. A(C   1,C   2,H  20)          115.4921         0.343690   
     39. A(C   2,C   3,N   4)          127.5448         0.442709   
     40. A(C   2,C   3,C  12)          121.1665         0.414980   
     41. A(N   4,C   3,C  12)          111.2136         0.404142   
     42. A(C   3,N   4,H  21)          112.0020         0.357578   
     43. A(C   5,N   4,H  21)          116.5723         0.351607   
     44. A(C   3,N   4,C   5)          131.4018         0.423346   
     45. A(N   4,C   5,C   6)          123.0205         0.423943   
     46. A(C   6,C   5,C  11)          119.1888         0.431976   
     47. A(N   4,C   5,C  11)          117.7325         0.423753   
     48. A(C   5,C   6,C   7)          120.2029         0.435832   
     49. A(C   5,C   6,H  22)          120.0497         0.355040   
     50. A(C   7,C   6,H  22)          119.7059         0.357879   
     51. A(C   6,C   7,C   8)          121.0704         0.439065   
     52. A(C   6,C   7,H  23)          119.3789         0.357437   
     53. A(C   8,C   7,H  23)          119.5487         0.357078   
     54. A(C   9,C   8,H  24)          120.0756         0.357502   
     55. A(C   7,C   8,H  24)          121.8588         0.357407   
     56. A(C   7,C   8,C   9)          118.0617         0.438721   
     57. A(F  10,C   9,C  11)          118.5665         0.431374   
     58. A(C   8,C   9,C  11)          122.2781         0.440180   
     59. A(C   8,C   9,F  10)          119.1553         0.430074   
     60. A(C   5,C  11,C   9)          119.1679         0.436616   
     61. A(C   9,C  11,H  25)          119.8856         0.358200   
     62. A(C   5,C  11,H  25)          120.9453         0.354456   
     63. A(O  13,C  12,C  14)          123.6215         0.451579   
     64. A(C   3,C  12,C  14)          116.6434         0.386872   
     65. A(C   3,C  12,O  13)          119.7349         0.442530   
     66. A(C  15,C  14,C  19)          119.6981         0.431161   
     67. A(C  12,C  14,C  19)          120.9582         0.411454   
     68. A(C  12,C  14,C  15)          119.3430         0.413167   
     69. A(C  16,C  15,H  26)          121.1764         0.357196   
     70. A(C  14,C  15,H  26)          118.4583         0.354710   
     71. A(C  14,C  15,C  16)          120.3652         0.436196   
     72. A(C  17,C  16,H  27)          120.1302         0.356361   
     73. A(C  15,C  16,H  27)          119.9514         0.357272   
     74. A(C  15,C  16,C  17)          119.9184         0.438254   
     75. A(C  18,C  17,H  28)          119.8762         0.356743   
     76. A(C  16,C  17,H  28)          120.0026         0.356314   
     77. A(C  16,C  17,C  18)          120.1210         0.437627   
     78. A(C  17,C  18,C  19)          120.5518         0.437071   
     79. A(C  19,C  18,H  29)          118.1767         0.355847   
     80. A(C  17,C  18,H  29)          121.2714         0.356703   
     81. A(C  14,C  19,C  18)          119.3446         0.432641   
     82. A(C   1,C  19,C  18)          119.4127         0.408556   
     83. A(C   1,C  19,C  14)          121.2367         0.405499   
     84. D(C   3,C   2,C   1,C  19)     -1.4185         0.017678   
     85. D(H  20,C   2,C   1,C  19)   -179.4459         0.017678   
     86. D(H  20,C   2,C   1,O   0)      0.4961         0.017678   
     87. D(C   3,C   2,C   1,O   0)    178.5235         0.017678   
     88. D(N   4,C   3,C   2,H  20)     -1.4756         0.035114   
     89. D(C  12,C   3,C   2,H  20)    175.0848         0.035114   
     90. D(C  12,C   3,C   2,C   1)     -2.8335         0.035114   
     91. D(N   4,C   3,C   2,C   1)   -179.3939         0.035114   
     92. D(H  21,N   4,C   3,C  12)     -8.9293         0.032253   
     93. D(H  21,N   4,C   3,C   2)    167.9139         0.032253   
     94. D(C   5,N   4,C   3,C  12)    172.9446         0.032253   
     95. D(C   5,N   4,C   3,C   2)    -10.2122         0.032253   
     96. D(C  11,C   5,N   4,C   3)    153.4016         0.026069   
     97. D(C   6,C   5,N   4,C   3)    -29.3982         0.026069   
     98. D(C   6,C   5,N   4,H  21)    152.5445         0.026069   
     99. D(C  11,C   5,N   4,H  21)    -24.6557         0.026069   
    100. D(H  22,C   6,C   5,C  11)    175.8794         0.025922   
    101. D(C   7,C   6,C   5,N   4)   -178.9336         0.025922   
    102. D(H  22,C   6,C   5,N   4)     -1.2819         0.025922   
    103. D(C   7,C   6,C   5,C  11)     -1.7723         0.025922   
    104. D(H  23,C   7,C   6,H  22)      2.2380         0.028640   
    105. D(H  23,C   7,C   6,C   5)    179.8978         0.028640   
    106. D(C   8,C   7,C   6,H  22)   -177.2354         0.028640   
    107. D(C   8,C   7,C   6,C   5)      0.4244         0.028640   
    108. D(H  24,C   8,C   7,H  23)      0.7039         0.028281   
    109. D(H  24,C   8,C   7,C   6)   -179.8236         0.028281   
    110. D(C   9,C   8,C   7,H  23)   -178.5782         0.028281   
    111. D(C   9,C   8,C   7,C   6)      0.8943         0.028281   
    112. D(C  11,C   9,C   8,C   7)     -0.8798         0.028376   
    113. D(F  10,C   9,C   8,H  24)     -0.2340         0.028376   
    114. D(F  10,C   9,C   8,C   7)    179.0613         0.028376   
    115. D(C  11,C   9,C   8,H  24)    179.8248         0.028376   
    116. D(H  25,C  11,C   9,F  10)      0.0056         0.029414   
    117. D(C   5,C  11,C   9,F  10)    179.5988         0.029414   
    118. D(H  25,C  11,C   5,C   6)   -178.6327         0.025785   
    119. D(H  25,C  11,C   5,N   4)     -1.3217         0.025785   
    120. D(C   5,C  11,C   9,C   8)     -0.4597         0.029414   
    121. D(H  25,C  11,C   9,C   8)    179.9471         0.029414   
    122. D(C   9,C  11,C   5,C   6)      1.7785         0.025785   
    123. D(C   9,C  11,C   5,N   4)    179.0896         0.025785   
    124. D(C  14,C  12,C   3,N   4)   -177.6394         0.012277   
    125. D(C  14,C  12,C   3,C   2)      5.2855         0.012277   
    126. D(O  13,C  12,C   3,N   4)      2.4842         0.012277   
    127. D(O  13,C  12,C   3,C   2)   -174.5909         0.012277   
    128. D(C  19,C  14,C  12,O  13)    176.3577         0.015281   
    129. D(C  19,C  14,C  12,C   3)     -3.5134         0.015281   
    130. D(C  15,C  14,C  12,O  13)     -3.3359         0.015281   
    131. D(C  15,C  14,C  12,C   3)    176.7931         0.015281   
    132. D(H  26,C  15,C  14,C  19)   -179.8745         0.026209   
    133. D(H  26,C  15,C  14,C  12)     -0.1770         0.026209   
    134. D(C  16,C  15,C  14,C  19)      0.2535         0.026209   
    135. D(C  16,C  15,C  14,C  12)    179.9510         0.026209   
    136. D(H  27,C  16,C  15,H  26)     -0.0676         0.028606   
    137. D(H  27,C  16,C  15,C  14)    179.8008         0.028606   
    138. D(C  17,C  16,C  15,H  26)    179.8653         0.028606   
    139. D(C  17,C  16,C  15,C  14)     -0.2662         0.028606   
    140. D(H  28,C  17,C  16,H  27)      0.0889         0.027703   
    141. D(H  28,C  17,C  16,C  15)   -179.8440         0.027703   
    142. D(C  18,C  17,C  16,H  27)    179.9621         0.027703   
    143. D(C  18,C  17,C  16,C  15)      0.0292         0.027703   
    144. D(H  29,C  18,C  17,C  16)   -179.6698         0.028125   
    145. D(C  19,C  18,C  17,H  28)   -179.9055         0.028125   
    146. D(C  19,C  18,C  17,C  16)      0.2212         0.028125   
    147. D(H  29,C  18,C  17,H  28)      0.2036         0.028125   
    148. D(C  14,C  19,C  18,H  29)    179.6627         0.027291   
    149. D(C   1,C  19,C  18,H  29)      0.5490         0.027291   
    150. D(C   1,C  19,C  18,C  17)   -179.3453         0.027291   
    151. D(C  18,C  19,C  14,C  15)     -0.0048         0.024944   
    152. D(C  18,C  19,C  14,C  12)   -179.6973         0.024944   
    153. D(C   1,C  19,C  14,C  15)    179.0922         0.024944   
    154. D(C   1,C  19,C  14,C  12)     -0.6003         0.024944   
    155. D(C  18,C  19,C   1,C   2)   -177.7341         0.012994   
    156. D(C  18,C  19,C   1,O   0)      2.3232         0.012994   
    157. D(C  14,C  19,C  18,C  17)     -0.2315         0.027291   
    158. D(C  14,C  19,C   1,C   2)      3.1694         0.012994   
    159. D(C  14,C  19,C   1,O   0)   -176.7732         0.012994   
    -----------------------------------------------------------------

Number of atoms                         .... 30
Number of degrees of freedom            .... 159

         *************************************************************
         *                GEOMETRY OPTIMIZATION CYCLE   1            *
         *************************************************************
---------------------------------
CARTESIAN COORDINATES (ANGSTROEM)
---------------------------------
  O      2.020200   -2.354700   -1.302300
  C      1.712700   -1.356900   -0.666400
  C      0.335600   -0.978000   -0.443100
  C     -0.029300    0.108300    0.283500
  N     -1.288500    0.536100    0.556500
  C     -2.518000    0.142900    0.055500
  C     -2.687200   -0.362800   -1.234000
  C     -3.946100   -0.717500   -1.682400
  C     -5.059800   -0.572500   -0.873200
  C     -4.880100   -0.043900    0.393000
  F     -5.952000    0.124700    1.192300
  C     -3.638100    0.320000    0.869800
  C      0.992200    0.963500    0.963500
  O      0.631800    1.874100    1.690000
  C      2.397700    0.638800    0.705900
  C      3.396100    1.440700    1.256700
  C      4.729200    1.153100    1.028100
  C      5.077300    0.058100    0.251400
  C      4.092300   -0.747100   -0.295900
  C      2.749600   -0.466600   -0.078500
  H     -0.403100   -1.639900   -0.868500
  H     -1.299300    1.255300    1.278800
  H     -1.842300   -0.442800   -1.897100
  H     -4.061900   -1.105600   -2.682500
  H     -6.046200   -0.847400   -1.208600
  H     -3.542500    0.729400    1.863500
  H      3.102200    2.286800    1.860000
  H      5.496900    1.780500    1.455300
  H      6.117900   -0.169200    0.074100
  H      4.342400   -1.607300   -0.899100

----------------------------
CARTESIAN COORDINATES (A.U.)
----------------------------
  NO LB      ZA    FRAG     MASS         X           Y           Z
   0 O     8.0000    0    15.999    3.817625   -4.449738   -2.460990
   1 C     6.0000    0    12.011    3.236534   -2.564169   -1.259313
   2 C     6.0000    0    12.011    0.634192   -1.848152   -0.837338
   3 C     6.0000    0    12.011   -0.055369    0.204657    0.535737
   4 N     7.0000    0    14.007   -2.434912    1.013082    1.051633
   5 C     6.0000    0    12.011   -4.758330    0.270042    0.104880
   6 C     6.0000    0    12.011   -5.078072   -0.685593   -2.331922
   7 C     6.0000    0    12.011   -7.457048   -1.355879   -3.179275
   8 C     6.0000    0    12.011   -9.561636   -1.081868   -1.650109
   9 C     6.0000    0    12.011   -9.222053   -0.082959    0.742662
  10 F     9.0000    0    18.998  -11.247650    0.235649    2.253120
  11 C     6.0000    0    12.011   -6.875013    0.604712    1.643684
  12 C     6.0000    0    12.011    1.874986    1.820751    1.820751
  13 O     8.0000    0    15.999    1.193929    3.541536    3.193637
  14 C     6.0000    0    12.011    4.530996    1.207157    1.333958
  15 C     6.0000    0    12.011    6.417699    2.722528    2.374819
  16 C     6.0000    0    12.011    8.936893    2.179043    1.942827
  17 C     6.0000    0    12.011    9.594706    0.109793    0.475077
  18 C     6.0000    0    12.011    7.733326   -1.411814   -0.559170
  19 C     6.0000    0    12.011    5.195991   -0.881746   -0.148344
  20 H     1.0000    0     1.008   -0.761749   -3.098962   -1.641227
  21 H     1.0000    0     1.008   -2.455321    2.372173    2.416582
  22 H     1.0000    0     1.008   -3.481442   -0.836771   -3.584999
  23 H     1.0000    0     1.008   -7.675879   -2.089281   -5.069190
  24 H     1.0000    0     1.008  -11.425662   -1.601354   -2.283923
  25 H     1.0000    0     1.008   -6.694355    1.378366    3.521505
  26 H     1.0000    0     1.008    5.862308    4.321426    3.514891
  27 H     1.0000    0     1.008   10.387636    3.364657    2.750118
  28 H     1.0000    0     1.008   11.561156   -0.319742    0.140029
  29 H     1.0000    0     1.008    8.205947   -3.037357   -1.699053

--------------------------------
INTERNAL COORDINATES (ANGSTROEM)
--------------------------------
 O      0   0   0     0.000000000000     0.00000000     0.00000000
 C      1   0   0     1.222509672763     0.00000000     0.00000000
 C      2   1   0     1.445625300692   122.26798252     0.00000000
 C      3   2   1     1.356888816374   123.27957180   178.52348194
 N      4   3   2     1.357617943311   127.54475766   180.60608472
 C      5   4   3     1.384657896377   131.40180088   349.78778947
 C      6   5   4     1.395410828394   123.02046667   330.60181832
 C      7   6   5     1.382643793607   120.20291576   181.06638461
 C      8   7   6     1.384253347477   121.07035317     0.42440204
 C      9   8   7     1.383825310507   118.06170370     0.89433881
 F     10   9   8     1.347692865604   119.15534192   179.06130922
 C     10   9   8     1.379248146636   122.27811269   359.12015918
 C      4   3   2     1.495737039055   121.16651580   357.16645567
 O     13   4   3     1.219378025880   119.73490115   185.40913092
 C     13   4   3     1.465338902780   116.64344124     5.28550391
 C     15  13   4     1.393996703726   119.34303239   176.79305587
 C     16  15  13     1.382796922907   120.36519209   179.95101229
 C     17  16  15     1.386889144813   119.91843607   359.73378729
 C     18  17  16     1.384958241248   120.12102863     0.02920985
 C     19  18  17     1.388807510060   120.55180547     0.22116874
 H      3   2   1     1.079237907044   115.49210614     0.49612549
 H      5   4   3     1.019353996411   112.00203059   167.91386722
 H      7   6   5     1.077013286826   120.04968538   358.71811075
 H      8   7   6     1.078995486552   119.37891780   179.89777383
 H      9   8   7     1.077519433699   121.85883812   180.17638229
 H     12  10   9     1.078975166535   119.88557944   179.94709912
 H     16  15  13     1.079922825946   118.45827845   359.82298260
 H     17  16  15     1.079580423127   119.95137159   179.80080763
 H     18  17  16     1.079791155733   120.00264870   180.15601189
 H     19  18  17     1.079974208025   121.27136611   180.33019791

---------------------------
INTERNAL COORDINATES (A.U.)
---------------------------
 O      0   0   0     0.000000000000     0.00000000     0.00000000
 C      1   0   0     2.310208477592     0.00000000     0.00000000
 C      2   1   0     2.731835910575   122.26798252     0.00000000
 C      3   2   1     2.564148257127   123.27957180   178.52348194
 N      4   3   2     2.565526107355   127.54475766   180.60608472
 C      5   4   3     2.616624213325   131.40180088   349.78778947
 C      6   5   4     2.636944309973   123.02046667   330.60181832
 C      7   6   5     2.612818110683   120.20291576   181.06638461
 C      8   7   6     2.615859726694   121.07035317     0.42440204
 C      9   8   7     2.615050854047   118.06170370     0.89433881
 F     10   9   8     2.546770428631   119.15534192   179.06130922
 C     10   9   8     2.606401267861   122.27811269   359.12015918
 C      4   3   2     2.826533372176   121.16651580   357.16645567
 O     13   4   3     2.304290522636   119.73490115   185.40913092
 C     13   4   3     2.769089219635   116.64344124     5.28550391
 C     15  13   4     2.634272001632   119.34303239   176.79305587
 C     16  15  13     2.613107483123   120.36519209   179.95101229
 C     17  16  15     2.620840661805   119.91843607   359.73378729
 C     18  17  16     2.617191782875   120.12102863     0.02920985
 C     19  18  17     2.624465846747   120.55180547     0.22116874
 H      3   2   1     2.039464077659   115.49210614     0.49612549
 H      5   4   3     1.926299886736   112.00203059   167.91386722
 H      7   6   5     2.035260154696   120.04968538   358.71811075
 H      8   7   6     2.039005969321   119.37891780   179.89777383
 H      9   8   7     2.036216633670   121.85883812   180.17638229
 H     12  10   9     2.038967570054   119.88557944   179.94709912
 H     16  15  13     2.040758386809   118.45827845   359.82298260
 H     17  16  15     2.040111339254   119.95137159   179.80080763
 H     18  17  16     2.040509566166   120.00264870   180.15601189
 H     19  18  17     2.040855484866   121.27136611   180.33019791

---------------------
BASIS SET INFORMATION
---------------------
There are 5 groups of distinct atoms

 Group   1 Type O   : 19s6p3d2f contracted to 5s4p3d2f pattern {88111/3111/111/11}
 Group   2 Type C   : 19s6p3d2f contracted to 5s4p3d2f pattern {88111/3111/111/11}
 Group   3 Type N   : 19s6p3d2f contracted to 5s4p3d2f pattern {88111/3111/111/11}
 Group   4 Type F   : 19s6p3d2f contracted to 5s4p3d2f pattern {88111/3111/111/11}
 Group   5 Type H   : 5s2p1d contracted to 3s2p1d pattern {311/11/1}

Atom   0O    basis set group =>   1
Atom   1C    basis set group =>   2
Atom   2C    basis set group =>   2
Atom   3C    basis set group =>   2
Atom   4N    basis set group =>   3
Atom   5C    basis set group =>   2
Atom   6C    basis set group =>   2
Atom   7C    basis set group =>   2
Atom   8C    basis set group =>   2
Atom   9C    basis set group =>   2
Atom  10F    basis set group =>   4
Atom  11C    basis set group =>   2
Atom  12C    basis set group =>   2
Atom  13O    basis set group =>   1
Atom  14C    basis set group =>   2
Atom  15C    basis set group =>   2
Atom  16C    basis set group =>   2
Atom  17C    basis set group =>   2
Atom  18C    basis set group =>   2
Atom  19C    basis set group =>   2
Atom  20H    basis set group =>   5
Atom  21H    basis set group =>   5
Atom  22H    basis set group =>   5
Atom  23H    basis set group =>   5
Atom  24H    basis set group =>   5
Atom  25H    basis set group =>   5
Atom  26H    basis set group =>   5
Atom  27H    basis set group =>   5
Atom  28H    basis set group =>   5
Atom  29H    basis set group =>   5
---------------------------------
AUXILIARY/J BASIS SET INFORMATION
---------------------------------
There are 5 groups of distinct atoms

 Group   1 Type O   : 10s7p5d2f1g contracted to 10s7p5d2f1g pattern {1111111111/1111111/11111/11/1}
 Group   2 Type C   : 10s7p5d2f1g contracted to 10s7p5d2f1g pattern {1111111111/1111111/11111/11/1}
 Group   3 Type N   : 10s7p5d2f1g contracted to 10s7p5d2f1g pattern {1111111111/1111111/11111/11/1}
 Group   4 Type F   : 10s7p5d2f1g contracted to 10s7p5d2f1g pattern {1111111111/1111111/11111/11/1}
 Group   5 Type H   : 4s3p2d1f contracted to 4s3p2d1f pattern {1111/111/11/1}

Atom   0O    basis set group =>   1
Atom   1C    basis set group =>   2
Atom   2C    basis set group =>   2
Atom   3C    basis set group =>   2
Atom   4N    basis set group =>   3
Atom   5C    basis set group =>   2
Atom   6C    basis set group =>   2
Atom   7C    basis set group =>   2
Atom   8C    basis set group =>   2
Atom   9C    basis set group =>   2
Atom  10F    basis set group =>   4
Atom  11C    basis set group =>   2
Atom  12C    basis set group =>   2
Atom  13O    basis set group =>   1
Atom  14C    basis set group =>   2
Atom  15C    basis set group =>   2
Atom  16C    basis set group =>   2
Atom  17C    basis set group =>   2
Atom  18C    basis set group =>   2
Atom  19C    basis set group =>   2
Atom  20H    basis set group =>   5
Atom  21H    basis set group =>   5
Atom  22H    basis set group =>   5
Atom  23H    basis set group =>   5
Atom  24H    basis set group =>   5
Atom  25H    basis set group =>   5
Atom  26H    basis set group =>   5
Atom  27H    basis set group =>   5
Atom  28H    basis set group =>   5
Atom  29H    basis set group =>   5
---------------------------------
AUXILIARY/C BASIS SET INFORMATION
---------------------------------
There are 5 groups of distinct atoms

 Group   1 Type O   : 9s7p6d4f2g contracted to 9s7p6d4f2g pattern {111111111/1111111/111111/1111/11}
 Group   2 Type C   : 9s7p6d4f2g contracted to 9s7p6d4f2g pattern {111111111/1111111/111111/1111/11}
 Group   3 Type N   : 9s7p6d4f2g contracted to 9s7p6d4f2g pattern {111111111/1111111/111111/1111/11}
 Group   4 Type F   : 9s7p6d4f2g contracted to 9s7p6d4f2g pattern {111111111/1111111/111111/1111/11}
 Group   5 Type H   : 4s3p2d1f contracted to 4s3p2d1f pattern {1111/111/11/1}

Atom   0O    basis set group =>   1
Atom   1C    basis set group =>   2
Atom   2C    basis set group =>   2
Atom   3C    basis set group =>   2
Atom   4N    basis set group =>   3
Atom   5C    basis set group =>   2
Atom   6C    basis set group =>   2
Atom   7C    basis set group =>   2
Atom   8C    basis set group =>   2
Atom   9C    basis set group =>   2
Atom  10F    basis set group =>   4
Atom  11C    basis set group =>   2
Atom  12C    basis set group =>   2
Atom  13O    basis set group =>   1
Atom  14C    basis set group =>   2
Atom  15C    basis set group =>   2
Atom  16C    basis set group =>   2
Atom  17C    basis set group =>   2
Atom  18C    basis set group =>   2
Atom  19C    basis set group =>   2
Atom  20H    basis set group =>   5
Atom  21H    basis set group =>   5
Atom  22H    basis set group =>   5
Atom  23H    basis set group =>   5
Atom  24H    basis set group =>   5
Atom  25H    basis set group =>   5
Atom  26H    basis set group =>   5
Atom  27H    basis set group =>   5
Atom  28H    basis set group =>   5
Atom  29H    basis set group =>   5


           ************************************************************
           *        Program running with 4 parallel MPI-processes     *
           *              working on a common directory               *
           ************************************************************
------------------------------------------------------------------------------
                           ORCA GTO INTEGRAL CALCULATION
                           -- RI-GTO INTEGRALS CHOSEN --
------------------------------------------------------------------------------
------------------------------------------------------------------------------
                   ___                                                        
                  /   \      - P O W E R E D   B Y -                         
                 /     \                                                     
                 |  |  |   _    _      __       _____    __    __             
                 |  |  |  | |  | |    /  \     |  _  \  |  |  /  |          
                  \  \/   | |  | |   /    \    | | | |  |  | /  /          
                 / \  \   | |__| |  /  /\  \   | |_| |  |  |/  /          
                |  |  |   |  __  | /  /__\  \  |    /   |      \           
                |  |  |   | |  | | |   __   |  |    \   |  |\   \          
                \     /   | |  | | |  |  |  |  | |\  \  |  | \   \       
                 \___/    |_|  |_| |__|  |__|  |_| \__\ |__|  \__/        
                                                                              
                      - O R C A' S   B I G   F R I E N D -                    
                                      &                                       
                       - I N T E G R A L  F E E D E R -                       
                                                                              
 v1 FN, 2020, v2 2021                                                         
------------------------------------------------------------------------------


Reading SHARK input file optpbed3-b2plyp-test-588.SHARKINP.tmp ... ok
----------------------
SHARK INTEGRAL PACKAGE
----------------------

Number of atoms                             ...     30
Number of basis functions                   ...   1180
Number of shells                            ...    460
Maximum angular momentum                    ...      3
Integral batch strategy                     ... SHARK/LIBINT Hybrid
RI-J (if used) integral strategy            ... SPLIT-RIJ (Revised 2003 algorithm where possible)
Printlevel                                  ...      1
Contraction scheme used                     ... PARTIAL GENERAL contraction
Coulomb Range Separation                    ... NOT USED
Exchange Range Separation                   ... NOT USED
Finite Nucleus Model                        ... NOT USED
Auxiliary Coulomb fitting basis             ... AVAILABLE
   # of basis functions in Aux-J            ...   1880
   # of shells in Aux-J                     ...    600
   Maximum angular momentum in Aux-J        ...      4
Auxiliary J/K fitting basis                 ... NOT available
Auxiliary Correlation fitting basis         ... AVAILABLE
   # of basis functions in Aux-C            ...   2420
   # of shells in Aux-C                     ...    660
   Maximum angular momentum in Aux-C        ...      4
Auxiliary 'external' fitting basis          ... NOT available
Integral threshold                          ...     2.500000e-11
Primitive cut-off                           ...     2.500000e-12
Primitive pair pre-selection threshold      ...     2.500000e-12

Calculating pre-screening integrals         ... done (  0.3 sec) Dimension = 460
Calculating pre-screening integrals (ORCA)  ... done (  0.6 sec) Dimension = 340
Organizing shell pair data                  ... done (  0.9 sec)
Shell pair information
Total number of shell pairs                 ...    106030
Shell pairs after pre-screening             ...     68063
Total number of primitive shell pairs       ...    135550
Primitive shell pairs kept                  ...     79356
          la=0 lb=0:  15254 shell pairs
          la=1 lb=0:  17284 shell pairs
          la=1 lb=1:   4132 shell pairs
          la=2 lb=0:  11525 shell pairs
          la=2 lb=1:   5579 shell pairs
          la=2 lb=2:   1932 shell pairs
          la=3 lb=0:   6407 shell pairs
          la=3 lb=1:   3160 shell pairs
          la=3 lb=2:   2153 shell pairs
          la=3 lb=3:    637 shell pairs

Calculating one electron integrals          ... done (  0.3 sec)
Calculating RI/J V-Matrix + Cholesky decomp.... done (  0.3 sec)
Calculating RI/C V-Matrix + Cholesky decomp.... done (  0.5 sec)
Calculating Nuclear repulsion               ... done (  0.0 sec) ENN=   1382.909553896952 Eh

SHARK setup successfully completed in   4.2 seconds

Maximum memory used throughout the entire GTOINT-calculation: 107.2 MB


           ************************************************************
           *        Program running with 4 parallel MPI-processes     *
           *              working on a common directory               *
           ************************************************************
-------------------------------------------------------------------------------
                                 ORCA SCF
-------------------------------------------------------------------------------

------------
SCF SETTINGS
------------
Hamiltonian:
 Density Functional     Method          .... DFT(GTOs)
 Exchange Functional    Exchange        .... PBE
   PBE kappa parameter   XKappa         ....  0.804000
   PBE mue parameter    XMuePBE         ....  0.219520
 Correlation Functional Correlation     .... PBE
   PBE beta parameter  CBetaPBE         ....  0.066725
 LDA part of GGA corr.  LDAOpt          .... PW91-LDA
 Gradients option       PostSCFGGA      .... off
 Hybrid DFT is turned on
   Fraction HF Exchange ScalHFX         ....  0.250000
   Scaling of DF-GGA-X  ScalDFX         ....  0.750000
   Scaling of DF-GGA-C  ScalDFC         ....  1.000000
   Scaling of DF-LDA-C  ScalLDAC        ....  1.000000
   Perturbative correction              ....  0.000000
   Density functional embedding theory  .... OFF
   NL short-range parameter             ....  6.900000
 RI-approximation to the Coulomb term is turned on
   Number of AuxJ basis functions       .... 1880
   RIJ-COSX (HFX calculated with COS-X)).... on


General Settings:
 Integral files         IntName         .... optpbed3-b2plyp-test-588
 Hartree-Fock type      HFTyp           .... RHF
 Total Charge           Charge          ....    0
 Multiplicity           Mult            ....    1
 Number of Electrons    NEL             ....  138
 Basis Dimension        Dim             .... 1060
 Nuclear Repulsion      ENuc            ....   1382.9095538970 Eh

Convergence Acceleration:
 DIIS                   CNVDIIS         .... on
   Start iteration      DIISMaxIt       ....    12
   Startup error        DIISStart       ....  0.200000
   # of expansion vecs  DIISMaxEq       ....     5
   Bias factor          DIISBfac        ....   1.050
   Max. coefficient     DIISMaxC        ....  10.000
 Trust-Rad. Augm. Hess. CNVTRAH         .... auto
   Auto Start mean grad. ratio tolernc. ....  1.125000
   Auto Start start iteration           ....    20
   Auto Start num. interpolation iter.  ....    10
   Max. Number of Micro iterations      ....    16
   Max. Number of Macro iterations      .... Maxiter - #DIIS iter
   Number of Davidson start vectors     ....     2
   Converg. threshold I  (grad. norm)   ....   1.000e-05
   Converg. threshold II (energy diff.) ....   1.000e-08
   Grad. Scal. Fac. for Micro threshold ....   0.100
   Minimum threshold for Micro iter.    ....   0.010
   NR start threshold (gradient norm)   ....   0.001
   Initial trust radius                 ....   0.400
   Minimum AH scaling param. (alpha)    ....   1.000
   Maximum AH scaling param. (alpha)    .... 1000.000
   Orbital update algorithm             .... Taylor
   White noise on init. David. guess    .... on
   Maximum white noise                  ....   0.010
   Quad. conv. algorithm                .... NR
 SOSCF                  CNVSOSCF        .... on
   Start iteration      SOSCFMaxIt      ....   150
   Startup grad/error   SOSCFStart      ....  0.003300
 Level Shifting         CNVShift        .... on
   Level shift para.    LevelShift      ....    0.2500
   Turn off err/grad.   ShiftErr        ....    0.0010
 Zerner damping         CNVZerner       .... off
 Static damping         CNVDamp         .... on
   Fraction old density DampFac         ....    0.7000
   Max. Damping (<1)    DampMax         ....    0.9800
   Min. Damping (>=0)   DampMin         ....    0.0000
   Turn off err/grad.   DampErr         ....    0.1000
 Fernandez-Rico         CNVRico         .... off

SCF Procedure:
 Maximum # iterations   MaxIter         ....   125
 SCF integral mode      SCFMode         .... Direct
   Integral package                     .... SHARK and LIBINT hybrid scheme
 Reset frequency        DirectResetFreq ....    20
 Integral Threshold     Thresh          ....  2.500e-11 Eh
 Primitive CutOff       TCut            ....  2.500e-12 Eh

Convergence Tolerance:
 Convergence Check Mode ConvCheckMode   .... Total+1el-Energy
 Convergence forced     ConvForced      .... 0
 Energy Change          TolE            ....  1.000e-08 Eh
 1-El. energy change                    ....  1.000e-05 Eh
 Orbital Gradient       TolG            ....  1.000e-05
 Orbital Rotation angle TolX            ....  1.000e-05
 DIIS Error             TolErr          ....  5.000e-07


Diagonalization of the overlap matrix:
Smallest eigenvalue                        ... 3.745e-07
Time for diagonalization                   ...    0.291 sec
Threshold for overlap eigenvalues          ... 1.000e-08
Number of eigenvalues below threshold      ... 0
Time for construction of square roots      ...    0.191 sec
Total time needed                          ...    0.489 sec

Time for model grid setup =    0.681 sec

------------------------------
INITIAL GUESS: MODEL POTENTIAL
------------------------------
Loading Hartree-Fock densities                     ... done
Calculating cut-offs                               ... done
Initializing the effective Hamiltonian             ... done
Setting up the integral package (SHARK)            ... done
Starting the Coulomb interaction                   ... done (   2.2 sec)
Reading the grid                                   ... done
Mapping shells                                     ... done
Starting the XC term evaluation                    ... done (   1.9 sec)
  promolecular density results
     # of electrons  =    137.997977224
     EX              =   -117.703757428
     EC              =     -4.670805268
     EX+EC           =   -122.374562696
Transforming the Hamiltonian                       ... done (   0.1 sec)
Diagonalizing the Hamiltonian                      ... done (   0.3 sec)
Back transforming the eigenvectors                 ... done (   0.1 sec)
Now organizing SCF variables                       ... done
                      ------------------
                      INITIAL GUESS DONE (   5.8 sec)
                      ------------------
-------------------
DFT GRID GENERATION
-------------------

General Integration Accuracy     IntAcc      ... 4.388
Radial Grid Type                 RadialGrid  ... OptM3 with GC (2021)
Angular Grid (max. ang.)         AngularGrid ... 4 (Lebedev-302)
Angular grid pruning method      GridPruning ... 4 (adaptive)
Weight generation scheme         WeightScheme... Becke
Basis function cutoff            BFCut       ... 1.0000e-11
Integration weight cutoff        WCut        ... 1.0000e-14
Angular grids for H and He will be reduced by one unit
Partially contracted basis set               ... off
Rotationally invariant grid construction     ... off

Total number of grid points                  ...   156871
Total number of batches                      ...     2467
Average number of points per batch           ...       63
Average number of grid points per atom       ...     5229
Time for grid setup =    2.825 sec

--------------------
COSX GRID GENERATION
--------------------

GRIDX 1
-------
General Integration Accuracy     IntAcc      ... 3.816
Radial Grid Type                 RadialGrid  ... OptM3 with GC (2021)
Angular Grid (max. ang.)         AngularGrid ... 1 (Lebedev-50)
Angular grid pruning method      GridPruning ... 4 (adaptive)
Weight generation scheme         WeightScheme... Becke
Basis function cutoff            BFCut       ... 1.0000e-11
Integration weight cutoff        WCut        ... 1.0000e-14
Angular grids for H and He will be reduced by one unit
Partially contracted basis set               ... on
Rotationally invariant grid construction     ... off

Total number of grid points                  ...    19955
Total number of batches                      ...      328
Average number of points per batch           ...       60
Average number of grid points per atom       ...      665
UseSFitting                                  ... on

GRIDX 2
-------
General Integration Accuracy     IntAcc      ... 4.020
Radial Grid Type                 RadialGrid  ... OptM3 with GC (2021)
Angular Grid (max. ang.)         AngularGrid ... 2 (Lebedev-110)
Angular grid pruning method      GridPruning ... 4 (adaptive)
Weight generation scheme         WeightScheme... Becke
Basis function cutoff            BFCut       ... 1.0000e-11
Integration weight cutoff        WCut        ... 1.0000e-14
Angular grids for H and He will be reduced by one unit
Partially contracted basis set               ... on
Rotationally invariant grid construction     ... off

Total number of grid points                  ...    48636
Total number of batches                      ...      776
Average number of points per batch           ...       62
Average number of grid points per atom       ...     1621
UseSFitting                                  ... on

GRIDX 3
-------
General Integration Accuracy     IntAcc      ... 4.338
Radial Grid Type                 RadialGrid  ... OptM3 with GC (2021)
Angular Grid (max. ang.)         AngularGrid ... 3 (Lebedev-194)
Angular grid pruning method      GridPruning ... 4 (adaptive)
Weight generation scheme         WeightScheme... Becke
Basis function cutoff            BFCut       ... 1.0000e-11
Integration weight cutoff        WCut        ... 1.0000e-14
Angular grids for H and He will be reduced by one unit
Partially contracted basis set               ... on
Rotationally invariant grid construction     ... off

Total number of grid points                  ...   104880
Total number of batches                      ...     1655
Average number of points per batch           ...       63
Average number of grid points per atom       ...     3496
UseSFitting                                  ... on

Time for X-Grid setup             =    7.582 sec


--------------------
CPCM SOLVATION MODEL
--------------------
CPCM parameters:
  Epsilon                                         ...      32.6130
  Refrac                                          ...       1.3288
  Rsolv                                           ...       1.3000
  Surface type                                    ... GAUSSIAN VDW
  Epsilon function type                           ...         CPCM
Solvent:                                     ... METHANOL
SMD-CDS solvent descriptors:
  Soln                                       ...    1.3288
  Soln25                                     ...    1.3265
  Sola                                       ...    0.4300
  Solb                                       ...    0.4700
  Solg                                       ...   31.7700
  Solc                                       ...    0.0000
  Solh                                       ...    0.0000
Radii:
 Radius for O  used is    2.8724 Bohr (=   1.5200 Ang.)
 Radius for C  used is    3.4960 Bohr (=   1.8500 Ang.)
 Radius for N  used is    3.5716 Bohr (=   1.8900 Ang.)
 Radius for F  used is    3.2692 Bohr (=   1.7300 Ang.)
 Radius for H  used is    2.2677 Bohr (=   1.2000 Ang.)
Calculating surface                               ...        done! (  0.0s)
GEPOL surface points                              ...         1749
GEPOL Volume                                      ...    1698.2136
GEPOL Surface-area                                ...     964.5700
Calculating surface distance matrix               ...        done! (  0.0s)
Performing Cholesky decomposition & store         ...        done! (  0.2s)
Overall time for CPCM initialization              ...                 0.5s
 re-compute Schwartz prescreening matrix in partically contracted basis (1) ...done (   0.411 sec)
--------------
SCF ITERATIONS
--------------
ITER       Energy         Delta-E        Max-DP      RMS-DP      [F,P]     Damp
               ***  Starting incremental Fock matrix formation  ***
  0   -919.6827872450   0.000000000000 0.11171502  0.00133125  0.2754941 0.7000
  1   -919.8621488849  -0.179361639891 0.09251345  0.00106794  0.1125143 0.7000
                               ***Turning on DIIS***
  2   -919.9375777933  -0.075428908371 0.18916058  0.00225971  0.0394055 0.0000
  3   -920.0590291493  -0.121451355968 0.05395665  0.00060044  0.0602239 0.0000
  4   -920.0815325286  -0.022503379321 0.02771003  0.00026166  0.0148622 0.0000
  5   -920.0830258452  -0.001493316643 0.02015368  0.00009918  0.0078348 0.0000
                      *** Initiating the SOSCF procedure ***
                           *** Shutting down DIIS ***
                      *** Re-Reading the Fockian *** 
                      *** Removing any level shift *** 
ITER      Energy       Delta-E        Grad      Rot      Max-DP    RMS-DP
  6   -920.08316131  -0.0001354686  0.000406  0.000406  0.007670  0.000043
               *** Restarting incremental Fock matrix formation ***
  7   -920.08315911   0.0000022027  0.000323  0.002786  0.040353  0.000372
  8   -920.08316322  -0.0000041069  0.000091  0.001159  0.017170  0.000150
  9   -920.08316349  -0.0000002754  0.000114  0.000354  0.018141  0.000138
 10   -920.08316411  -0.0000006164  0.000022  0.000143  0.014122  0.000073
 11   -920.08316408   0.0000000345  0.000024  0.000117  0.010524  0.000065
 12   -920.08316413  -0.0000000553  0.000004  0.000030  0.009633  0.000061
 13   -920.08316411   0.0000000255  0.000003  0.000013  0.010056  0.000059
                  ***Gradient check signals convergence***
              ***Rediagonalizing the Fockian in SOSCF/NRSCF***

               *****************************************************
               *                     SUCCESS                       *
               *           SCF CONVERGED AFTER  14 CYCLES          *
               *****************************************************

Old exchange energy                            =    -29.927472995 Eh
New exchange energy                            =    -29.927414882 Eh
Exchange energy change after final integration =      0.000058113 Eh
Total energy after final integration           =   -920.083105971 Eh
Final COS-X integration done in                =   138.383 sec

SMD CDS free energy correction energy :                 1.85993     Kcal/mol
Total Energy after SMD CDS correction =              -920.080141983 Eh

----------------
TOTAL SCF ENERGY
----------------

Total Energy       :         -920.08014198 Eh          -25036.65350 eV

Components:
Nuclear Repulsion  :         1382.90955390 Eh           37630.88208 eV
Electronic Energy  :        -2302.98969588 Eh          -62667.53558 eV
One Electron Energy:        -3998.44450520 Eh         -108803.20643 eV
Two Electron Energy:         1695.45480932 Eh           46135.67085 eV
Max COSX asymmetry :            0.00002909 Eh               0.00079 eV
CPCM Dielectric    :           -0.02944854 Eh              -0.80134 eV
SMD CDS (Gcds)     :            0.00296399 Eh               0.08065 eV

Virial components:
Potential Energy   :        -1835.12150548 Eh          -49936.19487 eV
Kinetic Energy     :          915.04136350 Eh           24899.54137 eV
Virial Ratio       :            2.00550661


DFT components:
N(Alpha)           :       68.999962563823 electrons
N(Beta)            :       68.999962563823 electrons
N(Total)           :      137.999925127646 electrons
E(X)               :      -89.625825923382 Eh       
E(C)               :       -4.669969515712 Eh       
E(XC)              :      -94.295795439094 Eh       
DFET-embed. en.    :        0.000000000000 Eh       
CPCM Solvation Model Properties:
Surface-charge          :           -0.05722348
Charge-correction       :            0.00008585 Eh               0.00234 eV
Free-energy (cav+disp)  :            0.00296399 Eh               0.08065 eV

---------------
SCF CONVERGENCE
---------------

  Last Energy change         ...    2.0699e-08  Tolerance :   1.0000e-08
  Last MAX-Density change    ...    5.9952e-15  Tolerance :   1.0000e-07
  Last RMS-Density change    ...    1.7768e-17  Tolerance :   5.0000e-09
  Last Orbital Gradient      ...    1.5431e-06  Tolerance :   1.0000e-05
  Last Orbital Rotation      ...    9.6332e-06  Tolerance :   1.0000e-05

             **** THE GBW FILE WAS UPDATED (optpbed3-b2plyp-test-588.gbw) ****
             **** DENSITY optpbed3-b2plyp-test-588.scfp WAS UPDATED ****
             **** ENERGY FILE WAS UPDATED (optpbed3-b2plyp-test-588.en.tmp) ****
             **** THE GBW FILE WAS UPDATED (optpbed3-b2plyp-test-588.gbw) ****
             **** DENSITY optpbed3-b2plyp-test-588.scfp WAS UPDATED ****
----------------
ORBITAL ENERGIES
----------------

  NO   OCC          E(Eh)            E(eV) 
   0   2.0000     -24.795520      -674.7204 
   1   2.0000     -19.229719      -523.2673 
   2   2.0000     -19.204277      -522.5749 
   3   2.0000     -14.439755      -392.9257 
   4   2.0000     -10.343208      -281.4530 
   5   2.0000     -10.322079      -280.8781 
   6   2.0000     -10.319890      -280.8185 
   7   2.0000     -10.305716      -280.4328 
   8   2.0000     -10.290539      -280.0198 
   9   2.0000     -10.257141      -279.1110 
  10   2.0000     -10.255412      -279.0639 
  11   2.0000     -10.246702      -278.8269 
  12   2.0000     -10.244606      -278.7699 
  13   2.0000     -10.242272      -278.7064 
  14   2.0000     -10.241968      -278.6981 
  15   2.0000     -10.239856      -278.6406 
  16   2.0000     -10.238680      -278.6087 
  17   2.0000     -10.233835      -278.4768 
  18   2.0000     -10.233532      -278.4686 
  19   2.0000     -10.233145      -278.4580 
  20   2.0000      -1.269808       -34.5532 
  21   2.0000      -1.108080       -30.1524 
  22   2.0000      -1.081101       -29.4183 
  23   2.0000      -1.008262       -27.4362 
  24   2.0000      -0.913265       -24.8512 
  25   2.0000      -0.897870       -24.4323 
  26   2.0000      -0.850247       -23.1364 
  27   2.0000      -0.801063       -21.7980 
  28   2.0000      -0.796850       -21.6834 
  29   2.0000      -0.784151       -21.3378 
  30   2.0000      -0.773409       -21.0455 
  31   2.0000      -0.718485       -19.5510 
  32   2.0000      -0.676134       -18.3985 
  33   2.0000      -0.669642       -18.2219 
  34   2.0000      -0.649950       -17.6860 
  35   2.0000      -0.628855       -17.1120 
  36   2.0000      -0.606822       -16.5125 
  37   2.0000      -0.589612       -16.0442 
  38   2.0000      -0.574578       -15.6350 
  39   2.0000      -0.537114       -14.6156 
  40   2.0000      -0.536437       -14.5972 
  41   2.0000      -0.522017       -14.2048 
  42   2.0000      -0.516836       -14.0638 
  43   2.0000      -0.503729       -13.7072 
  44   2.0000      -0.498323       -13.5601 
  45   2.0000      -0.492273       -13.3954 
  46   2.0000      -0.480941       -13.0871 
  47   2.0000      -0.477281       -12.9875 
  48   2.0000      -0.464776       -12.6472 
  49   2.0000      -0.455219       -12.3871 
  50   2.0000      -0.453208       -12.3324 
  51   2.0000      -0.449905       -12.2425 
  52   2.0000      -0.435584       -11.8529 
  53   2.0000      -0.432741       -11.7755 
  54   2.0000      -0.429365       -11.6836 
  55   2.0000      -0.413272       -11.2457 
  56   2.0000      -0.394559       -10.7365 
  57   2.0000      -0.391675       -10.6580 
  58   2.0000      -0.384909       -10.4739 
  59   2.0000      -0.373296       -10.1579 
  60   2.0000      -0.370400       -10.0791 
  61   2.0000      -0.367009        -9.9868 
  62   2.0000      -0.309877        -8.4322 
  63   2.0000      -0.300590        -8.1795 
  64   2.0000      -0.287128        -7.8131 
  65   2.0000      -0.284750        -7.7484 
  66   2.0000      -0.283423        -7.7123 
  67   2.0000      -0.272208        -7.4072 
  68   2.0000      -0.232076        -6.3151 
  69   0.0000      -0.116289        -3.1644 
  70   0.0000      -0.044086        -1.1996 
  71   0.0000      -0.026990        -0.7344 
  72   0.0000      -0.014463        -0.3936 
  73   0.0000       0.005779         0.1572 
  74   0.0000       0.007782         0.2118 
  75   0.0000       0.012895         0.3509 
  76   0.0000       0.019197         0.5224 
  77   0.0000       0.025609         0.6969 
  78   0.0000       0.028136         0.7656 
  79   0.0000       0.033640         0.9154 
  80   0.0000       0.037347         1.0163 
  81   0.0000       0.040551         1.1034 
  82   0.0000       0.042246         1.1496 
  83   0.0000       0.045383         1.2349 
  84   0.0000       0.049205         1.3389 
  85   0.0000       0.051029         1.3886 
  86   0.0000       0.059559         1.6207 
  87   0.0000       0.062521         1.7013 
  88   0.0000       0.064546         1.7564 
  89   0.0000       0.068372         1.8605 
  90   0.0000       0.070027         1.9055 
  91   0.0000       0.081595         2.2203 
  92   0.0000       0.084366         2.2957 
  93   0.0000       0.086335         2.3493 
  94   0.0000       0.088526         2.4089 
  95   0.0000       0.090145         2.4530 
  96   0.0000       0.096517         2.6264 
  97   0.0000       0.101103         2.7512 
  98   0.0000       0.106318         2.8930 
  99   0.0000       0.109611         2.9827 
 100   0.0000       0.113469         3.0877 
 101   0.0000       0.116437         3.1684 
 102   0.0000       0.116890         3.1807 
 103   0.0000       0.117042         3.1849 
 104   0.0000       0.121164         3.2970 
 105   0.0000       0.123929         3.3723 
 106   0.0000       0.127613         3.4725 
 107   0.0000       0.129554         3.5253 
 108   0.0000       0.131478         3.5777 
 109   0.0000       0.133849         3.6422 
 110   0.0000       0.138347         3.7646 
 111   0.0000       0.140547         3.8245 
 112   0.0000       0.141930         3.8621 
 113   0.0000       0.145312         3.9541 
 114   0.0000       0.147131         4.0036 
 115   0.0000       0.149299         4.0626 
 116   0.0000       0.150566         4.0971 
 117   0.0000       0.153251         4.1702 
 118   0.0000       0.157247         4.2789 
 119   0.0000       0.159089         4.3290 
 120   0.0000       0.160738         4.3739 
 121   0.0000       0.161985         4.4078 
 122   0.0000       0.165581         4.5057 
 123   0.0000       0.167486         4.5575 
 124   0.0000       0.170825         4.6484 
 125   0.0000       0.172728         4.7002 
 126   0.0000       0.174825         4.7572 
 127   0.0000       0.178958         4.8697 
 128   0.0000       0.184739         5.0270 
 129   0.0000       0.190223         5.1762 
 130   0.0000       0.191828         5.2199 
 131   0.0000       0.193093         5.2543 
 132   0.0000       0.197499         5.3742 
 133   0.0000       0.198192         5.3931 
 134   0.0000       0.200407         5.4534 
 135   0.0000       0.202557         5.5119 
 136   0.0000       0.205912         5.6031 
 137   0.0000       0.209132         5.6908 
 138   0.0000       0.211799         5.7633 
 139   0.0000       0.213592         5.8121 
 140   0.0000       0.214839         5.8461 
 141   0.0000       0.217080         5.9071 
 142   0.0000       0.218349         5.9416 
 143   0.0000       0.220587         6.0025 
 144   0.0000       0.223945         6.0938 
 145   0.0000       0.227082         6.1792 
 146   0.0000       0.229705         6.2506 
 147   0.0000       0.233027         6.3410 
 148   0.0000       0.236605         6.4383 
 149   0.0000       0.241723         6.5776 
 150   0.0000       0.242484         6.5983 
 151   0.0000       0.244175         6.6443 
 152   0.0000       0.245721         6.6864 
 153   0.0000       0.246980         6.7207 
 154   0.0000       0.250696         6.8218 
 155   0.0000       0.251563         6.8454 
 156   0.0000       0.254175         6.9165 
 157   0.0000       0.255652         6.9566 
 158   0.0000       0.261757         7.1228 
 159   0.0000       0.264674         7.2021 
 160   0.0000       0.266701         7.2573 
 161   0.0000       0.269611         7.3365 
 162   0.0000       0.273093         7.4312 
 163   0.0000       0.274562         7.4712 
 164   0.0000       0.275716         7.5026 
 165   0.0000       0.281548         7.6613 
 166   0.0000       0.284652         7.7458 
 167   0.0000       0.290945         7.9170 
 168   0.0000       0.293064         7.9747 
 169   0.0000       0.297639         8.0992 
[...]
              <<< Entering MO-section for Build Sigma(Double) >>>
   Forming the XC and CPCM contribution:
   Time for densities:            0.333
   Time for XC-Integration:      26.845
   Time for LR-CPCM terms:       11.734
   Time for Sigma-Completion:     0.250
   Time for building 10 sigma-vectors
   Data Preparation Phase         ...     0.01 sec
   Transformed RI Coulomb         ...     1.08 sec
   Transformed RI-exchange        ...   552.22 sec
   (ab|v) reading and digestion   ...   530.01 sec
   Final sigma-completion         ...     0.02 sec
   Done building sigma-vectors             Size of expansion space: 40
   Lowest Energy          :     0.114109516595
   Maximum Energy change  :     0.016835749826 (vector 1)
   Maximum residual norm  :     0.001155258727

                       ****Iteration    2****
              <<< Entering MO-section for Build Sigma(Double) >>>
   Forming the XC and CPCM contribution:
   Time for densities:            0.336
   Time for XC-Integration:      26.848
   Time for LR-CPCM terms:       11.726
   Time for Sigma-Completion:     0.254
   Time for building 10 sigma-vectors
   Data Preparation Phase         ...     0.01 sec
   Transformed RI Coulomb         ...     1.08 sec
   Transformed RI-exchange        ...   571.52 sec
   (ab|v) reading and digestion   ...   548.61 sec
   Final sigma-completion         ...     0.02 sec
   Done building sigma-vectors             Size of expansion space: 50
   Lowest Energy          :     0.113502222518
   Maximum Energy change  :     0.002221177639 (vector 8)
   Maximum residual norm  :     0.000189879758

                       ****Iteration    3****
              <<< Entering MO-section for Build Sigma(Double) >>>
   Forming the XC and CPCM contribution:
   Time for densities:            0.298
   Time for XC-Integration:      23.844
   Time for LR-CPCM terms:       11.793
   Time for Sigma-Completion:     0.252
   Time for building 10 sigma-vectors
   Data Preparation Phase         ...     0.01 sec
   Transformed RI Coulomb         ...     1.06 sec
   Transformed RI-exchange        ...   573.87 sec
   (ab|v) reading and digestion   ...   550.75 sec
   Final sigma-completion         ...     0.01 sec
   Done building sigma-vectors             Size of expansion space: 60
   Lowest Energy          :     0.113474062749
   Maximum Energy change  :     0.000474731904 (vector 9)
   Maximum residual norm  :     0.000046108439

                       ****Iteration    4****
              <<< Entering MO-section for Build Sigma(Double) >>>
   Forming the XC and CPCM contribution:
   Time for densities:            0.324
   Time for XC-Integration:      27.298
   Time for LR-CPCM terms:       11.554
   Time for Sigma-Completion:     0.227
   Time for building 10 sigma-vectors
   Data Preparation Phase         ...     0.01 sec
   Transformed RI Coulomb         ...     1.09 sec
   Transformed RI-exchange        ...   538.26 sec
   (ab|v) reading and digestion   ...   516.70 sec
   Final sigma-completion         ...     0.02 sec
   Done building sigma-vectors             Size of expansion space: 70
   Lowest Energy          :     0.113471880115
   Maximum Energy change  :     0.000087820714 (vector 9)
   Maximum residual norm  :     0.000006113550
   Rebuilding the expansion space

                       ****Iteration    5****
              <<< Entering MO-section for Build Sigma(Double) >>>
   Forming the XC and CPCM contribution:
   Time for densities:            0.513
   Time for XC-Integration:      45.717
   Time for LR-CPCM terms:       18.346
   Time for Sigma-Completion:     0.522
   Time for building 20 sigma-vectors
   Data Preparation Phase         ...     0.02 sec
   Transformed RI Coulomb         ...     1.57 sec
   Transformed RI-exchange        ...  1095.97 sec
   (ab|v) reading and digestion   ...  1051.50 sec
   Final sigma-completion         ...     0.02 sec
   Done building sigma-vectors             Size of expansion space: 20
   Lowest Energy          :     0.113471806017
   Maximum Energy change  :     0.000006962434 (vector 9)
   Maximum residual norm  :     0.000000710004

      *** CONVERGENCE OF RESIDUAL NORM REACHED ***

Storing the converged CI vectors               ... optpbed3-b2plyp-test-588_job2.cis1

                 *** DAVIDSON DONE ***

Total time for solving the CIS problem:  3738.616sec

------------------
DOUBLES CORRECTION (Double precision version)
------------------

The (D) correction will be scaled by  0.2700
Doing v(i,a)*T(i,a) terms (RI)                    ... ok
Doing u(i,j,a,b) terms for state   0              ... ok
Doing u(i,j,a,b) terms for state   1              ... ok
Doing u(i,j,a,b) terms for state   2              ... ok
Doing u(i,j,a,b) terms for state   3              ... ok
Doing u(i,j,a,b) terms for state   4              ... ok
Doing u(i,j,a,b) terms for state   5              ... ok
Doing u(i,j,a,b) terms for state   6              ... ok
Doing u(i,j,a,b) terms for state   7              ... ok
Doing u(i,j,a,b) terms for state   8              ... ok
Doing u(i,j,a,b) terms for state   9              ... ok

Contributions to the (D) correction(s) (in eV)

STATE  Final   Init.   Total   v(ext)   v(int)  v(3)    u
       omega   omega     (D)                             
-----------------------------------------------------------------------------
   0   2.594   3.088  -0.494   0.742   0.958  -0.040  -2.153
   1   3.207   3.904  -0.697   0.758   0.788  -0.027  -2.215
   2   3.501   4.186  -0.685   0.749   0.779  -0.028  -2.186
   3   3.811   4.339  -0.528   0.723   0.931  -0.044  -2.138
   4   3.908   4.428  -0.520   0.737   0.936  -0.035  -2.159
   5   4.022   4.805  -0.784   0.714   0.901  -0.014  -2.385
   6   4.524   5.230  -0.706   0.524   0.958  -0.024  -2.163
   7   4.661   5.299  -0.638   0.685   0.934  -0.055  -2.202
   8   4.846   5.442  -0.596   0.507   0.944  -0.039  -2.008
   9   5.013   5.590  -0.577   0.411   0.957  -0.031  -1.914

(D)-timings
 V(i,a)*T(i,a) terms           ...   960.330 sec
 U(i,j,a,b) 3-internal         ...    11.760 sec
 U(i,j,a,b) 3-external         ...   328.565 sec
 U(i,j,a,b) pair terms         ...   432.965 sec
 Total measured time           ...  3407.883 sec

 Time for (ab|v) I/O           ...    97.543 sec


------------------------------------
TD-DFT/TDA EXCITED STATES (SINGLETS)
------------------------------------

the weight of the individual excitations are printed if larger than 1.0e-02

STATE  1:  E=   0.095334 au      2.594 eV    20923.5 cm**-1 <S**2> =   0.000000
    65a ->  69a  :     0.059010 (c=  0.24292006)
    68a ->  69a  :     0.895138 (c= -0.94611739)

STATE  2:  E=   0.117848 au      3.207 eV    25864.7 cm**-1 <S**2> =   0.000000
    62a ->  69a  :     0.125698 (c=  0.35453887)
    62a ->  70a  :     0.026932 (c=  0.16410963)
    62a ->  91a  :     0.010836 (c=  0.10409435)
    63a ->  69a  :     0.711029 (c= -0.84322533)
    63a ->  70a  :     0.014895 (c=  0.12204440)
    64a ->  69a  :     0.030467 (c= -0.17454662)

STATE  3:  E=   0.128663 au      3.501 eV    28238.2 cm**-1 <S**2> =   0.000000
    62a ->  69a  :     0.713922 (c= -0.84493889)
    63a ->  69a  :     0.126085 (c= -0.35508383)
    63a ->  70a  :     0.051931 (c=  0.22788295)
    63a ->  91a  :     0.019205 (c=  0.13858276)

STATE  4:  E=   0.140042 au      3.811 eV    30735.8 cm**-1 <S**2> =   0.000000
    65a ->  69a  :     0.054242 (c= -0.23289994)
    65a ->  70a  :     0.035297 (c=  0.18787505)
    66a ->  69a  :     0.848695 (c= -0.92124665)
    68a ->  70a  :     0.013225 (c= -0.11500079)

STATE  5:  E=   0.143616 au      3.908 eV    31520.2 cm**-1 <S**2> =   0.000000
    65a ->  69a  :     0.658276 (c=  0.81134190)
    66a ->  69a  :     0.039982 (c= -0.19995470)
    66a ->  70a  :     0.012076 (c=  0.10988978)
    67a ->  69a  :     0.167684 (c=  0.40949287)
    68a ->  69a  :     0.066573 (c=  0.25801800)

STATE  6:  E=   0.147790 au      4.022 eV    32436.1 cm**-1 <S**2> =   0.000000
    65a ->  69a  :     0.152064 (c= -0.38995331)
    67a ->  69a  :     0.700686 (c=  0.83707004)
    67a ->  71a  :     0.028301 (c=  0.16822891)
    68a ->  75a  :     0.035901 (c= -0.18947575)

STATE  7:  E=   0.166243 au      4.524 eV    36486.2 cm**-1 <S**2> =   0.000000
    64a ->  69a  :     0.068748 (c= -0.26219832)
    65a ->  70a  :     0.026178 (c= -0.16179753)
    66a ->  69a  :     0.011282 (c= -0.10621732)
    68a ->  70a  :     0.569679 (c=  0.75477060)
    68a ->  71a  :     0.214781 (c= -0.46344492)
    68a ->  72a  :     0.016388 (c= -0.12801586)

STATE  8:  E=   0.171291 au      4.661 eV    37594.1 cm**-1 <S**2> =   0.000000
    62a ->  69a  :     0.014478 (c=  0.12032320)
    63a ->  69a  :     0.016612 (c= -0.12888898)
    64a ->  69a  :     0.735398 (c=  0.85755373)
    66a ->  70a  :     0.017709 (c= -0.13307455)
    67a ->  71a  :     0.014167 (c= -0.11902448)
    68a ->  70a  :     0.048302 (c=  0.21977654)
    68a ->  71a  :     0.014805 (c= -0.12167620)
    68a ->  72a  :     0.010175 (c= -0.10087010)
    68a ->  75a  :     0.040864 (c=  0.20214868)

STATE  9:  E=   0.178074 au      4.846 eV    39082.6 cm**-1 <S**2> =   0.000000
    64a ->  69a  :     0.041833 (c= -0.20453218)
    65a ->  75a  :     0.015212 (c=  0.12333746)
    67a ->  69a  :     0.088140 (c=  0.29688350)
    67a ->  70a  :     0.011411 (c=  0.10682369)
    67a ->  71a  :     0.051382 (c= -0.22667563)
    67a ->  81a  :     0.016012 (c=  0.12653976)
    67a ->  82a  :     0.015149 (c=  0.12308220)
    68a ->  70a  :     0.087159 (c= -0.29522643)
    68a ->  71a  :     0.152132 (c= -0.39004039)
    68a ->  72a  :     0.114741 (c= -0.33873490)
    68a ->  75a  :     0.269327 (c=  0.51896693)
    68a ->  76a  :     0.011292 (c= -0.10626583)
    68a ->  78a  :     0.020321 (c=  0.14255312)

STATE 10:  E=   0.184209 au      5.013 eV    40429.3 cm**-1 <S**2> =   0.000000
    64a ->  69a  :     0.017788 (c= -0.13337218)
    65a ->  69a  :     0.013629 (c= -0.11674389)
    65a ->  70a  :     0.012150 (c= -0.11022814)
    67a ->  71a  :     0.022161 (c= -0.14886478)
    67a ->  75a  :     0.010378 (c=  0.10187306)
    68a ->  70a  :     0.146434 (c=  0.38266731)
    68a ->  71a  :     0.463457 (c=  0.68077686)
    68a ->  72a  :     0.019793 (c= -0.14068670)
    68a ->  73a  :     0.018808 (c= -0.13714189)
    68a ->  75a  :     0.149881 (c=  0.38714422)
    68a ->  81a  :     0.014899 (c= -0.12206196)


-----------------------------
TD-DFT/TDA-EXCITATION SPECTRA
-----------------------------

Center of mass = ( -0.3816, -0.0081,  0.2996)
Calculating the Dipole integrals                  ... done
Transforming integrals                            ... done
Calculating the Linear Momentum integrals         ... done
Transforming integrals                            ... done
Calculating angular momentum integrals            ... done
Transforming integrals                            ... done

-----------------------------------------------------------------------------
         ABSORPTION SPECTRUM VIA TRANSITION ELECTRIC DIPOLE MOMENTS
-----------------------------------------------------------------------------
State   Energy    Wavelength  fosc         T2        TX        TY        TZ  
        (cm-1)      (nm)                 (au**2)    (au)      (au)      (au) 
-----------------------------------------------------------------------------
   1   20923.5    477.9   0.169905207   2.67330  -1.55695   0.47044   0.16700
   2   25864.7    386.6   0.000785324   0.01000  -0.09664   0.02472  -0.00669
   3   28238.2    354.1   0.000977311   0.01139   0.08721   0.04242   0.04459
   4   30735.8    325.4   0.124038843   1.32858  -1.07373  -0.35984  -0.21494
   5   31520.2    317.3   0.228031713   2.38168   1.40925  -0.56138  -0.28378
   6   32436.1    308.3   0.044026863   0.44685  -0.33111   0.41296   0.40826
   7   36486.2    274.1   0.705760029   6.36801  -2.47066  -0.32824  -0.39511
   8   37594.1    266.0   0.304552458   2.66697  -0.89896   1.06259   0.85425
   9   39082.6    255.9   0.008740831   0.07363   0.08022  -0.02960   0.25752
  10   40429.3    247.3   0.026833078   0.21850  -0.24594  -0.39702   0.01972

-----------------------------------------------------------------------------
         ABSORPTION SPECTRUM VIA TRANSITION VELOCITY DIPOLE MOMENTS
-----------------------------------------------------------------------------
State   Energy    Wavelength   fosc        P2         PX        PY        PZ  
        (cm-1)      (nm)                 (au**2)     (au)      (au)      (au) 
-----------------------------------------------------------------------------
   1   20923.5    477.9   0.130420153   0.01865   0.13289   0.02189   0.02264
   2   25864.7    386.6   0.000641162   0.00011   0.01005  -0.00096   0.00337
   3   28238.2    354.1   0.000483783   0.00009  -0.00926   0.00050  -0.00273
   4   30735.8    325.4   0.036928393   0.00776   0.08571   0.01486   0.01378
   5   31520.2    317.3   0.091768200   0.01977  -0.14015  -0.00152  -0.01118
   6   32436.1    308.3   0.004339755   0.00096   0.03072  -0.00400   0.00161
   7   36486.2    274.1   0.492958082   0.12293   0.34804   0.02069   0.03694
   8   37594.1    266.0   0.047561805   0.01222   0.09860  -0.04215  -0.02689
   9   39082.6    255.9   0.001601649   0.00043  -0.02034   0.00341  -0.00163
  10   40429.3    247.3   0.002776474   0.00077  -0.00284   0.02755  -0.00033

-------------------------------------------------------------------
                             CD SPECTRUM
-------------------------------------------------------------------
State  Energy     Wavelength     R         MX        MY        MZ   
       (cm-1)       (nm)     (1e40*cgs)   (au)      (au)      (au)  
-------------------------------------------------------------------
   1   20923.5    477.9     36.10037  -0.03457   0.14506  -0.27237
   2   25864.7    386.6      7.26260  -0.09956   0.29509   0.22581
   3   28238.2    354.1     -0.20341   0.01209   0.00323  -0.03640
   4   30735.8    325.4      0.36525  -0.00705   0.02168  -0.00468
   5   31520.2    317.3    -17.99195   0.02877   0.32069  -0.35704
   6   32436.1    308.3     -9.96677   0.01154  -0.13076   0.08984
   7   36486.2    274.1     47.13059  -0.03247  -0.01966  -0.03366
   8   37594.1    266.0     39.92705  -0.03013   0.08864  -0.04283
   9   39082.6    255.9    -13.71462  -0.02633   0.22495  -0.07890
  10   40429.3    247.3    -60.33171   0.01991   0.29522  -0.29743

-------------------------------------------------------------------
         CD SPECTRUM VIA TRANSITION VELOCITY DIPOLE MOMENTS        
-------------------------------------------------------------------
State  Energy     Wavelength     R         MX        MY        MZ   
       (cm-1)       (nm)     (1e40*cgs)   (au)      (au)      (au)  
-------------------------------------------------------------------
   1   20923.5    477.9    -37.50915  -0.03457   0.14506  -0.27237
   2   25864.7    386.6     -2.08880  -0.09956   0.29509   0.22581
   3   28238.2    354.1     -0.04066   0.01209   0.00323  -0.03640
   4   30735.8    325.4     -1.16729  -0.00705   0.02168  -0.00468
   5   31520.2    317.3     -1.73636   0.02877   0.32069  -0.35704
   6   32436.1    308.3      3.26088   0.01154  -0.13076   0.08984
   7   36486.2    274.1    -36.72564  -0.03247  -0.01966  -0.03366
   8   37594.1    266.0    -15.29086  -0.03013   0.08864  -0.04283
   9   39082.6    255.9      3.78903  -0.02633   0.22495  -0.07890
  10   40429.3    247.3     20.92133   0.01991   0.29522  -0.29743

Total run time:     7156.450 sec

           *** ORCA-CIS/TD-DFT FINISHED WITHOUT ERROR ***

Maximum memory used throughout the entire CIS-calculation: 1251.9 MB

-----------------------
CIS/TD-DFT TOTAL ENERGY
-----------------------

    E(SCF)  =   -919.296867209 Eh
    DE(CIS) =      0.095334440 Eh (Root  1)
    ----------------------------- ---------
    E(tot)  =   -919.201532769 Eh



-------------------------------------------------------------------------------
                          DFT DISPERSION CORRECTION                            
                                                                               
                              DFTD3 V3.1  Rev 1                                
                          USING Becke-Johnson damping                          
-------------------------------------------------------------------------------
The B2PLYP functional is recognized
Active option DFTDOPT                   ...         4   

molecular C6(AA) [au] = 12356.047851 


            DFT-D V3
 parameters
 s6 scaling factor         :     0.6400 
 a1 scaling factor         :     0.3065 
 s8 scaling factor         :     0.9147 
 a2 scaling factor         :     5.0570 
 ad hoc parameters k1-k3   :    16.0000     1.3333    -4.0000 

 Edisp/kcal,au: -20.344393783522  -0.032420851723 
 E6   /kcal   : -11.294707650 
 E8   /kcal   :  -9.049686133 
 % E8         :  44.482456590 

-------------------------   ----------------
Dispersion correction           -0.032420852
-------------------------   ----------------


-------------------------   --------------------
FINAL SINGLE POINT ENERGY      -919.233953620769
-------------------------   --------------------


                            ***************************************
                            *     ORCA property calculations      *
                            ***************************************


  WARNING: The energy has been calculated at the MP2 level but the densities
           used in the property calculations are still SCF densities
           MP2 response densities have not been calculated 
           use %mp2 Density relaxed end
           or  %mp2 Density unrelaxed end

                                    ---------------------
                                    Active property flags
                                    ---------------------
   (+) Dipole Moment


------------------------------------------------------------------------------
                       ORCA ELECTRIC PROPERTIES CALCULATION
------------------------------------------------------------------------------

Dipole Moment Calculation                       ... on
Quadrupole Moment Calculation                   ... off
Polarizability Calculation                      ... off
GBWName                                         ... optpbed3-b2plyp-test-588_job2.gbw
Electron density                                ... optpbed3-b2plyp-test-588_job2.scfp
The origin for moment calculation is the CENTER OF MASS  = (-0.381603, -0.008118  0.299644)

-------------
DIPOLE MOMENT
-------------
                                X             Y             Z
Electronic contribution:     -8.56438       1.28442       3.60431
Nuclear contribution   :      9.00417      -0.07769      -3.39726
                        -----------------------------------------
Total Dipole Moment    :      0.43979       1.20673       0.20706
                        -----------------------------------------
Magnitude (a.u.)       :      1.30096
Magnitude (Debye)      :      3.30677



--------------------
Rotational spectrum 
--------------------
 
Rotational constants in cm-1:     0.032059     0.005273     0.004602 
Rotational constants in MHz :   961.119463   158.081262   137.978158 

 Dipole components along the rotational axes: 
x,y,z [a.u.] :     0.473012     0.992127    -0.696011 
x,y,z [Debye]:     1.202300     2.521787    -1.769120 

 

Timings for individual modules:

Sum of individual times         ...     9398.864 sec (= 156.648 min)
GTO integral calculation        ...       11.171 sec (=   0.186 min)   0.1 %
SCF iterations                  ...      983.842 sec (=  16.397 min)  10.5 %
MP2 module                      ...     1243.917 sec (=  20.732 min)  13.2 %
CIS module                      ...     7159.933 sec (= 119.332 min)  76.2 %



                             ****ORCA TERMINATED NORMALLY****
TOTAL RUN TIME: 0 days 5 hours 53 minutes 17 seconds 18 msec
