
                                 *****************
                                 * O   R   C   A *
                                 *****************

                                            #,                                       
                                            ###                                      
                                            ####                                     
                                            #####                                    
                                            ######                                   
                                           ########,                                 
                                     ,,################,,,,,                         
                               ,,#################################,,                 
                          ,,##########################################,,             
                       ,#########################################, ''#####,          
                    ,#############################################,,   '####,        
                  ,##################################################,,,,####,       
                ,###########''''           ''''###############################       
              ,#####''   ,,,,##########,,,,          '''####'''          '####       
            ,##' ,,,,###########################,,,                        '##       
           ' ,,###''''                  '''############,,,                           
         ,,##''                                '''############,,,,        ,,,,,,###''
      ,#''                                            '''#######################'''  
     '                                                          ''''####''''         
             ,#######,   #######,   ,#######,      ##                                
            ,#'     '#,  ##    ##  ,#'     '#,    #''#        ######   ,####,        
            ##       ##  ##   ,#'  ##            #'  '#       #        #'  '#        
            ##       ##  #######   ##           ,######,      #####,   #    #        
            '#,     ,#'  ##    ##  '#,     ,#' ,#      #,         ##   #,  ,#        
             '#######'   ##     ##  '#######'  #'      '#     #####' # '####'        



                  #######################################################
                  #                        -***-                        #
                  #          Department of theory and spectroscopy      #
                  #    Directorship and core code : Frank Neese         #
                  #        Max Planck Institute fuer Kohlenforschung    #
                  #                Kaiser Wilhelm Platz 1               #
                  #                 D-45470 Muelheim/Ruhr               #
                  #                      Germany                        #
                  #                                                     #
                  #                  All rights reserved                #
                  #                        -***-                        #
                  #######################################################


                         Program Version 5.0.2 -  RELEASE  -


 With contributions from (in alphabetic order):
   Daniel Aravena         : Magnetic Suceptibility
   Michael Atanasov       : Ab Initio Ligand Field Theory (pilot matlab implementation)
   Alexander A. Auer      : GIAO ZORA, VPT2 properties, NMR spectrum
   Ute Becker             : Parallelization
   Giovanni Bistoni       : ED, misc. LED, open-shell LED, HFLD
   Martin Brehm           : Molecular dynamics
   Dmytro Bykov           : SCF Hessian
   Vijay G. Chilkuri      : MRCI spin determinant printing, contributions to CSF-ICE
   Dipayan Datta          : RHF DLPNO-CCSD density
   Achintya Kumar Dutta   : EOM-CC, STEOM-CC
   Dmitry Ganyushin       : Spin-Orbit,Spin-Spin,Magnetic field MRCI
   Miquel Garcia          : C-PCM and meta-GGA Hessian, CC/C-PCM, Gaussian charge scheme
   Yang Guo               : DLPNO-NEVPT2, F12-NEVPT2, CIM, IAO-localization
   Andreas Hansen         : Spin unrestricted coupled pair/coupled cluster methods
   Benjamin Helmich-Paris : MC-RPA, TRAH-SCF, COSX integrals
   Lee Huntington         : MR-EOM, pCC
   Robert Izsak           : Overlap fitted RIJCOSX, COSX-SCS-MP3, EOM
   Marcus Kettner         : VPT2
   Christian Kollmar      : KDIIS, OOCD, Brueckner-CCSD(T), CCSD density, CASPT2, CASPT2-K
   Simone Kossmann        : Meta GGA functionals, TD-DFT gradient, OOMP2, MP2 Hessian
   Martin Krupicka        : Initial AUTO-CI
   Lucas Lang             : DCDCAS
   Marvin Lechner         : AUTO-CI (C++ implementation), FIC-MRCC
   Dagmar Lenk            : GEPOL surface, SMD
   Dimitrios Liakos       : Extrapolation schemes; Compound Job, initial MDCI parallelization
   Dimitrios Manganas     : Further ROCIS development; embedding schemes
   Dimitrios Pantazis     : SARC Basis sets
   Anastasios Papadopoulos: AUTO-CI, single reference methods and gradients
   Taras Petrenko         : DFT Hessian,TD-DFT gradient, ASA, ECA, R-Raman, ABS, FL, XAS/XES, NRVS
   Peter Pinski           : DLPNO-MP2, DLPNO-MP2 Gradient
   Christoph Reimann      : Effective Core Potentials
   Marius Retegan         : Local ZFS, SOC
   Christoph Riplinger    : Optimizer, TS searches, QM/MM, DLPNO-CCSD(T), (RO)-DLPNO pert. Triples
   Tobias Risthaus        : Range-separated hybrids, TD-DFT gradient, RPA, STAB
   Michael Roemelt        : Original ROCIS implementation
   Masaaki Saitow         : Open-shell DLPNO-CCSD energy and density
   Barbara Sandhoefer     : DKH picture change effects
   Avijit Sen             : IP-ROCIS
   Kantharuban Sivalingam : CASSCF convergence, NEVPT2, FIC-MRCI
   Bernardo de Souza      : ESD, SOC TD-DFT
   Georgi Stoychev        : AutoAux, RI-MP2 NMR, DLPNO-MP2 response
   Willem Van den Heuvel  : Paramagnetic NMR
   Boris Wezisla          : Elementary symmetry handling
   Frank Wennmohs         : Technical directorship


 We gratefully acknowledge several colleagues who have allowed us to
 interface, adapt or use parts of their codes:
   Stefan Grimme, W. Hujo, H. Kruse, P. Pracht,  : VdW corrections, initial TS optimization,
                  C. Bannwarth, S. Ehlert          DFT functionals, gCP, sTDA/sTD-DF
   Ed Valeev, F. Pavosevic, A. Kumar             : LibInt (2-el integral package), F12 methods
   Garnet Chan, S. Sharma, J. Yang, R. Olivares  : DMRG
   Ulf Ekstrom                                   : XCFun DFT Library
   Mihaly Kallay                                 : mrcc  (arbitrary order and MRCC methods)
   Jiri Pittner, Ondrej Demel                    : Mk-CCSD
   Frank Weinhold                                : gennbo (NPA and NBO analysis)
   Christopher J. Cramer and Donald G. Truhlar   : smd solvation model
   Lars Goerigk                                  : TD-DFT with DH, B97 family of functionals
   V. Asgeirsson, H. Jonsson                     : NEB implementation
   FAccTs GmbH                                   : IRC, NEB, NEB-TS, DLPNO-Multilevel, CI-OPT
                                                   MM, QMMM, 2- and 3-layer-ONIOM, Crystal-QMMM,
                                                   LR-CPCM, SF, NACMEs, symmetry and pop. for TD-DFT,
                                                   nearIR, NL-DFT gradient (VV10), updates on ESD,
                                                   ML-optimized integration grids
   S Lehtola, MJT Oliveira, MAL Marques          : LibXC Library
   Liviu Ungur et al                             : ANISO software


 Your calculation uses the libint2 library for the computation of 2-el integrals
 For citations please refer to: http://libint.valeyev.net

 Your ORCA version has been built with support for libXC version: 5.1.0
 For citations please refer to: https://tddft.org/programs/libxc/

 This ORCA versions uses:
   CBLAS   interface :  Fast vector & matrix operations
   LAPACKE interface :  Fast linear algebra routines
   SCALAPACK package :  Parallel linear algebra routines
   Shared memory     :  Shared parallel matrices
   BLAS/LAPACK       :  OpenBLAS 0.3.15  USE64BITINT DYNAMIC_ARCH NO_AFFINITY Haswell SINGLE_THREADED
        Core in use  :  Haswell
   Copyright (c) 2011-2014, The OpenBLAS Project


Your calculation utilizes the atom-pairwise dispersion correction
with the Becke-Johnson damping scheme (D3BJ)
Cite in your paper:
S.Grimme, S.Ehrlich, L.Goerigk, J Comput Chem, (2011), 32, 1456–1465 
S.Grimme, J.Antony, S.Ehrlich and H.Krieg, J.Chem.Phys., 132, (2010), 154104 
   

Your calculation utilizes the SMD solvation module
Please cite in your paper:
A.V. Marenich, C.J. Cramer, D.G. Truhlar J. Phys. Chem. B, 113, (2009), 6378 

================================================================================

----- Orbital basis set information -----
Your calculation utilizes the basis: aug-cc-pVTZ 
    H, B-Ne : Obtained from the ccRepo (grant-hill.group.shef.ac.uk/ccrepo) Feb. 2017
              R. A. Kendall, T. H. Dunning, Jr., R. J. Harrison, J. Chem. Phys. 96, 6796 (1992)
         He : Obtained from the ccRepo (grant-hill.group.shef.ac.uk/ccrepo) Feb. 2017
              D. E. Woon, T. H. Dunning, Jr., J. Chem. Phys. 100, 2975 (1994)
  Li-Be, Na : Obtained from the ccRepo (grant-hill.group.shef.ac.uk/ccrepo) Feb. 2017
              B. P. Prascher, D. E. Woon, K. A. Peterson, T. H. Dunning, Jr., A. K. Wilson, Theor. Chem. Acc. 128, 69 (2011)
         Mg : Obtained from the Peterson Research Group Website (tyr0.chem.wsu.edu/~kipeters) Feb. 2017
              B. P. Prascher, D. E. Woon, K. A. Peterson, T. H. Dunning, Jr., A. K. Wilson, Theor. Chem. Acc. 128, 69 (2011)
      Al-Ar : Obtained from the ccRepo (grant-hill.group.shef.ac.uk/ccrepo) Feb. 2017
              D. E. Woon, T. H. Dunning, Jr., J. Chem. Phys. 98, 1358 (1993)
      Sc-Zn : Obtained from the ccRepo (grant-hill.group.shef.ac.uk/ccrepo) Feb. 2017
              N. B. Balabanov, K. A. Peterson, J. Chem. Phys. 123, 064107 (2005)
              N. B. Balabanov, K. A. Peterson, J. Chem. Phys. 125, 074110 (2006)
      Ga-Kr : Obtained from the ccRepo (grant-hill.group.shef.ac.uk/ccrepo) Feb. 2017
              A. K. Wilson, D. E. Woon, K. A. Peterson, T. H. Dunning, Jr., J. Chem. Phys. 110, 7667 (1999)
     Ag, Au : Obtained from the Peterson Research Group Website (tyr0.chem.wsu.edu/~kipeters) Feb. 2017
              K. A. Peterson, C. Puzzarini, Theor. Chem. Acc. 114, 283 (2005)

The basis set includes element-specific modifications.

Your calculation utilizes the basis: cc-pVTZ 
       H, B-Ne : Obtained from the ccRepo (grant-hill.group.shef.ac.uk/ccrepo) Feb. 2017
                 T. H. Dunning, Jr., J. Chem. Phys. 90, 1007 (1989)
            He : Obtained from the ccRepo (grant-hill.group.shef.ac.uk/ccrepo) Feb. 2017
                 D. E. Woon, T. H. Dunning, Jr., J. Chem. Phys. 100, 2975 (1994)
  Li-Be, Na-Mg : Obtained from the ccRepo (grant-hill.group.shef.ac.uk/ccrepo) Feb. 2017
                 B. P. Prascher, D. E. Woon, K. A. Peterson, T. H. Dunning, Jr., A. K. Wilson, Theor. Chem. Acc. 128, 69 (2011)
         Al-Ar : Obtained from the ccRepo (grant-hill.group.shef.ac.uk/ccrepo) Feb. 2017
                 D. E. Woon, T. H. Dunning, Jr., J. Chem. Phys. 98, 1358 (1993)
            Ca : Obtained from the Peterson Research Group Website (tyr0.chem.wsu.edu/~kipeters) Feb. 2017
                 J. Koput, K. A. Peterson, J. Phys. Chem. 106, 9595 (2002)
         Sc-Zn : Obtained from the ccRepo (grant-hill.group.shef.ac.uk/ccrepo) Feb. 2017
                 N. B. Balabanov, K. A. Peterson, J. Chem. Phys. 123, 064107 (2005)
                 N. B. Balabanov, K. A. Peterson, J. Chem. Phys. 125, 074110 (2006)
         Ga-Kr : Obtained from the ccRepo (grant-hill.group.shef.ac.uk/ccrepo) Feb. 2017
                 A. K. Wilson, D. E. Woon, K. A. Peterson, T. H. Dunning, Jr., J. Chem. Phys. 110, 7667 (1999)
             Y : Obtained from the ccRepo (grant-hill.group.shef.ac.uk/ccrepo) Feb. 2017
                 K. A. Peterson, D. Figgen, M. Dolg, H. Stoll, J. Chem. Phys. 126, 124101 (2007)
        Ag, Au : Obtained from the Peterson Research Group Website (tyr0.chem.wsu.edu/~kipeters) Feb. 2017
                 K. A. Peterson, C. Puzzarini, Theor. Chem. Acc. 114, 283 (2005)

----- AuxJ basis set information -----
Your calculation utilizes the auxiliary basis: aug-cc-pVTZ/JK 
  H, B-F, Al-Cl, Ga-Br : Obtained from the TURBOMOLE 7.0 basis set library

The basis set includes element-specific modifications.

Your calculation utilizes the auxiliary basis: cc-pVTZ/JK 
  H, B-F, Al-Cl, Ga-Br : Obtained from the TURBOMOLE 7.0 basis set library

----- AuxC basis set information -----
Your calculation utilizes the auxiliary basis: aug-cc-pVTZ/C 
  H-He, B-F, Al-Ar, Ga-Kr : Obtained from the EMSL Basis Set Exchange (bse.pnl.gov) Feb. 2017
                            F. Weigend, A. Kohn, C. Hattig, J. Chem. Phys. 116, 3175 (2002)
                   Be, Mg : Obtained from the TURBOMOLE 7.0 basis set library
                            C. Haettig, Phys. Chem. Chem. Phys. 7, 59 (2005)
                       Ne : Obtained from the EMSL Basis Set Exchange (bse.pnl.gov) Feb. 2017
                            C. Haettig, Phys. Chem. Chem. Phys. 7, 59 (2005)
                            F. Weigend, A. Kohn, C. Hattig, J. Chem. Phys. 116, 3175 (2002)
                    Sc-Zn : Obtained from the EMSL Basis Set Exchange (bse.pnl.gov) Feb. 2017
                            J. G. Hill, J. A. Platts, J. Chem. Phys. 128, 044104 (2008)

The basis set includes element-specific modifications.

Your calculation utilizes the auxiliary basis: cc-pVTZ/C 
  Obtained from the EMSL Basis Set Exchange (bse.pnl.gov) Feb. 2017
  H-He, B-F, Al-Ar, Ga-Kr : F. Weigend, A. Kohn, C. Hattig, J. Chem. Phys. 116, 3175 (2002)
             Li-Be, Na-Mg : C. Haettig, Phys. Chem. Chem. Phys. 7, 59 (2005)
                       Ne : C. Haettig, Phys. Chem. Chem. Phys. 7, 59 (2005)
                            F. Weigend, A. Kohn, C. Hattig, J. Chem. Phys. 116, 3175 (2002)
                    Sc-Zn : J. G. Hill, J. A. Platts, J. Chem. Phys. 128, 044104 (2008)

================================================================================
                                        WARNINGS
                       Please study these warnings very carefully!
================================================================================


WARNING: Geometry Optimization
  ===> : Switching off AutoStart
         For restart on a previous wavefunction, please use MOREAD

INFO   : the flag for use of the SHARK integral package has been found!



***************************************
The coordinates will be read from file: 
***************************************


Your calculation utilizes the atom-pairwise dispersion correction
with the Becke-Johnson damping scheme (D3BJ)
Cite in your paper:
S.Grimme, S.Ehrlich, L.Goerigk, J Comput Chem, (2011), 32, 1456–1465 
S.Grimme, J.Antony, S.Ehrlich and H.Krieg, J.Chem.Phys., 132, (2010), 154104 
   

Your calculation utilizes the SMD solvation module
Please cite in your paper:
A.V. Marenich, C.J. Cramer, D.G. Truhlar J. Phys. Chem. B, 113, (2009), 6378 

================================================================================

----- Orbital basis set information -----
Your calculation utilizes the basis: aug-cc-pVTZ 
    H, B-Ne : Obtained from the ccRepo (grant-hill.group.shef.ac.uk/ccrepo) Feb. 2017
              R. A. Kendall, T. H. Dunning, Jr., R. J. Harrison, J. Chem. Phys. 96, 6796 (1992)
         He : Obtained from the ccRepo (grant-hill.group.shef.ac.uk/ccrepo) Feb. 2017
              D. E. Woon, T. H. Dunning, Jr., J. Chem. Phys. 100, 2975 (1994)
  Li-Be, Na : Obtained from the ccRepo (grant-hill.group.shef.ac.uk/ccrepo) Feb. 2017
              B. P. Prascher, D. E. Woon, K. A. Peterson, T. H. Dunning, Jr., A. K. Wilson, Theor. Chem. Acc. 128, 69 (2011)
         Mg : Obtained from the Peterson Research Group Website (tyr0.chem.wsu.edu/~kipeters) Feb. 2017
              B. P. Prascher, D. E. Woon, K. A. Peterson, T. H. Dunning, Jr., A. K. Wilson, Theor. Chem. Acc. 128, 69 (2011)
      Al-Ar : Obtained from the ccRepo (grant-hill.group.shef.ac.uk/ccrepo) Feb. 2017
              D. E. Woon, T. H. Dunning, Jr., J. Chem. Phys. 98, 1358 (1993)
      Sc-Zn : Obtained from the ccRepo (grant-hill.group.shef.ac.uk/ccrepo) Feb. 2017
              N. B. Balabanov, K. A. Peterson, J. Chem. Phys. 123, 064107 (2005)
              N. B. Balabanov, K. A. Peterson, J. Chem. Phys. 125, 074110 (2006)
      Ga-Kr : Obtained from the ccRepo (grant-hill.group.shef.ac.uk/ccrepo) Feb. 2017
              A. K. Wilson, D. E. Woon, K. A. Peterson, T. H. Dunning, Jr., J. Chem. Phys. 110, 7667 (1999)
     Ag, Au : Obtained from the Peterson Research Group Website (tyr0.chem.wsu.edu/~kipeters) Feb. 2017
              K. A. Peterson, C. Puzzarini, Theor. Chem. Acc. 114, 283 (2005)

The basis set includes element-specific modifications.

Your calculation utilizes the basis: cc-pVTZ 
       H, B-Ne : Obtained from the ccRepo (grant-hill.group.shef.ac.uk/ccrepo) Feb. 2017
                 T. H. Dunning, Jr., J. Chem. Phys. 90, 1007 (1989)
            He : Obtained from the ccRepo (grant-hill.group.shef.ac.uk/ccrepo) Feb. 2017
                 D. E. Woon, T. H. Dunning, Jr., J. Chem. Phys. 100, 2975 (1994)
  Li-Be, Na-Mg : Obtained from the ccRepo (grant-hill.group.shef.ac.uk/ccrepo) Feb. 2017
                 B. P. Prascher, D. E. Woon, K. A. Peterson, T. H. Dunning, Jr., A. K. Wilson, Theor. Chem. Acc. 128, 69 (2011)
         Al-Ar : Obtained from the ccRepo (grant-hill.group.shef.ac.uk/ccrepo) Feb. 2017
                 D. E. Woon, T. H. Dunning, Jr., J. Chem. Phys. 98, 1358 (1993)
            Ca : Obtained from the Peterson Research Group Website (tyr0.chem.wsu.edu/~kipeters) Feb. 2017
                 J. Koput, K. A. Peterson, J. Phys. Chem. 106, 9595 (2002)
         Sc-Zn : Obtained from the ccRepo (grant-hill.group.shef.ac.uk/ccrepo) Feb. 2017
                 N. B. Balabanov, K. A. Peterson, J. Chem. Phys. 123, 064107 (2005)
                 N. B. Balabanov, K. A. Peterson, J. Chem. Phys. 125, 074110 (2006)
         Ga-Kr : Obtained from the ccRepo (grant-hill.group.shef.ac.uk/ccrepo) Feb. 2017
                 A. K. Wilson, D. E. Woon, K. A. Peterson, T. H. Dunning, Jr., J. Chem. Phys. 110, 7667 (1999)
             Y : Obtained from the ccRepo (grant-hill.group.shef.ac.uk/ccrepo) Feb. 2017
                 K. A. Peterson, D. Figgen, M. Dolg, H. Stoll, J. Chem. Phys. 126, 124101 (2007)
        Ag, Au : Obtained from the Peterson Research Group Website (tyr0.chem.wsu.edu/~kipeters) Feb. 2017
                 K. A. Peterson, C. Puzzarini, Theor. Chem. Acc. 114, 283 (2005)

----- AuxJ basis set information -----
Your calculation utilizes the auxiliary basis: aug-cc-pVTZ/JK 
  H, B-F, Al-Cl, Ga-Br : Obtained from the TURBOMOLE 7.0 basis set library

The basis set includes element-specific modifications.

Your calculation utilizes the auxiliary basis: cc-pVTZ/JK 
  H, B-F, Al-Cl, Ga-Br : Obtained from the TURBOMOLE 7.0 basis set library

----- AuxC basis set information -----
Your calculation utilizes the auxiliary basis: aug-cc-pVTZ/C 
  H-He, B-F, Al-Ar, Ga-Kr : Obtained from the EMSL Basis Set Exchange (bse.pnl.gov) Feb. 2017
                            F. Weigend, A. Kohn, C. Hattig, J. Chem. Phys. 116, 3175 (2002)
                   Be, Mg : Obtained from the TURBOMOLE 7.0 basis set library
                            C. Haettig, Phys. Chem. Chem. Phys. 7, 59 (2005)
                       Ne : Obtained from the EMSL Basis Set Exchange (bse.pnl.gov) Feb. 2017
                            C. Haettig, Phys. Chem. Chem. Phys. 7, 59 (2005)
                            F. Weigend, A. Kohn, C. Hattig, J. Chem. Phys. 116, 3175 (2002)
                    Sc-Zn : Obtained from the EMSL Basis Set Exchange (bse.pnl.gov) Feb. 2017
                            J. G. Hill, J. A. Platts, J. Chem. Phys. 128, 044104 (2008)

The basis set includes element-specific modifications.

Your calculation utilizes the auxiliary basis: cc-pVTZ/C 
  Obtained from the EMSL Basis Set Exchange (bse.pnl.gov) Feb. 2017
  H-He, B-F, Al-Ar, Ga-Kr : F. Weigend, A. Kohn, C. Hattig, J. Chem. Phys. 116, 3175 (2002)
             Li-Be, Na-Mg : C. Haettig, Phys. Chem. Chem. Phys. 7, 59 (2005)
                       Ne : C. Haettig, Phys. Chem. Chem. Phys. 7, 59 (2005)
                            F. Weigend, A. Kohn, C. Hattig, J. Chem. Phys. 116, 3175 (2002)
                    Sc-Zn : J. G. Hill, J. A. Platts, J. Chem. Phys. 128, 044104 (2008)

================================================================================
                                        WARNINGS
                       Please study these warnings very carefully!
================================================================================

INFO   : Checking CIS options ...
  ===> : (D) CORRECTION FOUND - SETTING MODE=3
  ===> : JK MODE FOUND - ACTIVATING RI-MP2 CODE
  ===> : MP2 AND CIS FOUND - CHECKING
WARNING: CIS(D) and MP2 runs must have the same orbital window
  ===> : adjusting orbital windows

WARNING: No MP2 level density has been requested!
         To caclulate MP2 level properties use
         %mp2 Density relaxed end
         or
         %mp2 Density unrelaxed end
         Otherwise for double-hybrid DFT only the energy is correct!

WARNING: The frozen-core approximation is turned on by default for 
         the MP2 part of double-hybrid DFT.

INFO   : the flag for use of the SHARK integral package has been found!

================================================================================
                                       INPUT FILE
================================================================================
NAME = optpbed3-b2plyp-test-359.inp
|  1> ! pbe0 d3bj aug-cc-PVTZ RIJCOSX Opt
|  2> %maxcore 4000
|  3> %basis
|  4>  AuxJ "aug-cc-PVTZ/JK"
|  5>  AuxC "aug-cc-PVTZ/C"
|  6>  newGTO H "cc-PVTZ" end
|  7>  newAuxJGTO H "cc-PVTZ/JK" end
|  8>  newAuxCGTO H "cc-PVTZ/C" end
|  9> end
| 10> %cpcm
| 11>  SMD true
| 12>  SMDsolvent "chloroform"
| 13> end
| 14> %pal nprocs 4 end
| 15> * xyz 0 1
| 16> O         -1.24220        3.25390        1.58860
| 17> C         -0.39480        2.82510        0.84430
| 18> C         -0.41050        1.49420        0.22890
| 19> C         -1.38300        0.62780        0.57350
| 20> C         -1.43920       -0.74180        0.14820
| 21> C         -2.53470       -1.56570        0.08910
| 22> O         -2.18090       -2.81060       -0.25470
| 23> C         -0.84950       -2.83320       -0.38090
| 24> C         -0.31420       -1.58740       -0.16590
| 25> C          1.07260       -1.21810       -0.11800
| 26> C          1.52840        0.03210       -0.32560
| 27> C          2.94730        0.33440       -0.14050
| 28> O          3.44780        1.42330       -0.27870
| 29> C          0.64260        1.15650       -0.78930
| 30> H          0.48690        3.43600        0.57240
| 31> H         -2.16210        0.97020        1.24220
| 32> H         -3.57680       -1.36750        0.24360
| 33> H         -0.38980       -3.76480       -0.64660
| 34> H          1.77080       -2.00940        0.12390
| 35> H          3.55810       -0.54250        0.15130
| 36> H          0.15190        0.86030       -1.72170
| 37> H          1.27140        2.02730       -0.98410
| 38> *
| 39> 
| 40> 
| 41> $new_job
| 42> ! b2plyp aug-cc-PVTZ RIJCOSX SP
| 43> %maxcore 4000
| 44> %basis
| 45>  AuxJ "aug-cc-PVTZ/JK"
| 46>  AuxC "aug-cc-PVTZ/C"
| 47>  newGTO H "cc-PVTZ" end
| 48>  newAuxJGTO H "cc-PVTZ/JK" end
| 49>  newAuxCGTO H "cc-PVTZ/C" end
| 50> end
| 51> %cpcm
| 52>  SMD true
| 53>  SMDsolvent "chloroform"
| 54> end
| 55> %pal nprocs 4 end
| 56> %tddft
| 57>  nroots 10
| 58>  maxdim 7
| 59> end
| 60> * xyzfile 0 1
| 61> 
| 62>                          ****END OF INPUT****
================================================================================


                 $$$$$$$$$$$$$$$$$$$$$$$$$$$$$$$$$$$$$$$$$$$$$$ 
                 $ THERE ARE  2 JOBS TO BE PROCESSED THIS RUN $
                 $$$$$$$$$$$$$$$$$$$$$$$$$$$$$$$$$$$$$$$$$$$$$$ 




                 $$$$$$$$$$$$$$$$  JOB NUMBER  1 $$$$$$$$$$$$$$


                       *****************************
                       * Geometry Optimization Run *
                       *****************************

Geometry optimization settings:
Update method            Update   .... BFGS
Choice of coordinates    CoordSys .... Z-matrix Internals
Initial Hessian          InHess   .... Almoef's Model

Convergence Tolerances:
Energy Change            TolE     ....  5.0000e-06 Eh
Max. Gradient            TolMAXG  ....  3.0000e-04 Eh/bohr
RMS Gradient             TolRMSG  ....  1.0000e-04 Eh/bohr
Max. Displacement        TolMAXD  ....  4.0000e-03 bohr
RMS Displacement         TolRMSD  ....  2.0000e-03 bohr
Strict Convergence                ....  False
------------------------------------------------------------------------------
                        ORCA OPTIMIZATION COORDINATE SETUP
------------------------------------------------------------------------------

The optimization will be done in new redundant internal coordinates
Making redundant internal coordinates   ...  (new redundants) done
Evaluating the initial hessian          ...  (Almloef) done
Evaluating the coordinates              ...  done
Calculating the B-matrix                .... done
Calculating the G-matrix                .... done
Diagonalizing the G-matrix              .... done
The first mode is                       ....   52
The number of degrees of freedom        ....   60

    -----------------------------------------------------------------
                    Redundant Internal Coordinates


    -----------------------------------------------------------------
         Definition                    Initial Value    Approx d2E/dq
    -----------------------------------------------------------------
      1. B(C   1,O   0)                  1.2066         1.097595   
      2. B(C   2,C   1)                  1.4664         0.471939   
      3. B(C   3,C   2)                  1.3473         0.730972   
      4. B(C   4,C   3)                  1.4352         0.529177   
      5. B(C   5,C   4)                  1.3720         0.667472   
      6. B(O   6,C   5)                  1.3391         0.674694   
      7. B(C   7,O   6)                  1.3376         0.678488   
      8. B(C   8,C   7)                  1.3729         0.665363   
      9. B(C   8,C   4)                  1.4420         0.516177   
     10. B(C   9,C   8)                  1.4359         0.527791   
     11. B(C  10,C   9)                  1.3468         0.732272   
     12. B(C  11,C  10)                  1.4625         0.478696   
     13. B(O  12,C  11)                  1.2064         1.098658   
     14. B(C  13,C  10)                  1.5046         0.410054   
     15. B(C  13,C   2)                  1.5033         0.412134   
     16. B(H  14,C   1)                  1.1066         0.338819   
     17. B(H  15,C   3)                  1.0823         0.370418   
     18. B(H  16,C   5)                  1.0720         0.384755   
     19. B(H  17,C   7)                  1.0723         0.384311   
     20. B(H  18,C   9)                  1.0827         0.369941   
     21. B(H  19,C  11)                  1.1078         0.337330   
     22. B(H  20,C  13)                  1.0945         0.354220   
     23. B(H  21,C  13)                  1.0916         0.357966   
     24. A(C   2,C   1,H  14)          113.9832         0.333706   
     25. A(O   0,C   1,H  14)          120.9940         0.382779   
     26. A(O   0,C   1,C   2)          125.0223         0.455129   
     27. A(C   1,C   2,C  13)          118.7277         0.384759   
     28. A(C   3,C   2,C  13)          122.3067         0.415547   
     29. A(C   1,C   2,C   3)          118.9502         0.425717   
     30. A(C   4,C   3,H  15)          117.1806         0.345248   
     31. A(C   2,C   3,H  15)          118.3068         0.364687   
     32. A(C   2,C   3,C   4)          124.4819         0.434555   
     33. A(C   3,C   4,C   8)          126.4131         0.408387   
     34. A(C   3,C   4,C   5)          128.1033         0.427520   
     35. A(C   5,C   4,C   8)          105.1539         0.425620   
     36. A(O   6,C   5,H  16)          117.7581         0.359823   
     37. A(C   4,C   5,H  16)          131.2216         0.361406   
     38. A(C   4,C   5,O   6)          110.9998         0.443712   
     39. A(C   5,O   6,C   7)          107.6334         0.442099   
     40. A(C   8,C   7,H  17)          131.3018         0.361139   
     41. A(O   6,C   7,H  17)          117.6969         0.360096   
     42. A(O   6,C   7,C   8)          110.9779         0.443908   
     43. A(C   7,C   8,C   9)          127.9646         0.427077   
     44. A(C   4,C   8,C   9)          126.5410         0.408198   
     45. A(C   4,C   8,C   7)          105.1916         0.425379   
     46. A(C  10,C   9,H  18)          119.6468         0.364717   
     47. A(C   8,C   9,H  18)          116.2513         0.345022   
     48. A(C   8,C   9,C  10)          124.0871         0.434489   
     49. A(C   9,C  10,C  11)          120.0469         0.426938   
     50. A(C  11,C  10,C  13)          117.1100         0.385373   
     51. A(C   9,C  10,C  13)          122.8170         0.415305   
     52. A(C  10,C  11,H  19)          113.8693         0.334250   
     53. A(C  10,C  11,O  12)          125.0709         0.456390   
     54. A(O  12,C  11,H  19)          121.0596         0.382551   
     55. A(C   2,C  13,C  10)          111.8116         0.375498   
     56. A(H  20,C  13,H  21)          108.7910         0.289818   
     57. A(C  10,C  13,H  21)          108.1801         0.329011   
     58. A(C   2,C  13,H  21)          110.1939         0.329286   
     59. A(C  10,C  13,H  20)          108.9199         0.328440   
     60. A(C   2,C  13,H  20)          108.8890         0.328714   
     61. D(C   3,C   2,C   1,H  14)    174.8351         0.015165   
     62. D(C  13,C   2,C   1,O   0)    173.6929         0.015165   
     63. D(C   3,C   2,C   1,O   0)     -4.9091         0.015165   
     64. D(C  13,C   2,C   1,H  14)     -6.5628         0.015165   
     65. D(H  15,C   3,C   2,C  13)   -174.2643         0.037921   
     66. D(H  15,C   3,C   2,C   1)      4.2852         0.037921   
     67. D(C   4,C   3,C   2,C   1)   -173.6370         0.037921   
     68. D(C   4,C   3,C   2,C  13)      7.8134         0.037921   
     69. D(C   8,C   4,C   3,C   2)     29.4197         0.019113   
     70. D(C   5,C   4,C   3,C   2)   -158.1728         0.019113   
     71. D(C   5,C   4,C   3,H  15)     23.8836         0.019113   
     72. D(C   8,C   4,C   3,H  15)   -148.5239         0.019113   
     73. D(H  16,C   5,C   4,C   3)      6.7955         0.031140   
     74. D(O   6,C   5,C   4,C   8)     -1.2512         0.031140   
     75. D(O   6,C   5,C   4,C   3)   -174.9266         0.031140   
     76. D(H  16,C   5,C   4,C   8)   -179.5291         0.031140   
     77. D(C   7,O   6,C   5,H  16)   -179.3862         0.033858   
     78. D(C   7,O   6,C   5,C   4)      2.0775         0.033858   
     79. D(H  17,C   7,O   6,C   5)    179.4620         0.034274   
     80. D(C   8,C   7,O   6,C   5)     -2.0965         0.034274   
     81. D(C   9,C   8,C   7,H  17)     -6.5848         0.030929   
     82. D(C   4,C   8,C   7,H  17)    179.4647         0.030929   
     83. D(C   9,C   8,C   4,C   3)     -0.2769         0.018165   
     84. D(C   9,C   8,C   4,C   5)   -174.0932         0.018165   
     85. D(C   4,C   8,C   7,O   6)      1.3016         0.030929   
     86. D(C   9,C   8,C   7,O   6)    175.2521         0.030929   
     87. D(C   7,C   8,C   4,C   5)     -0.0290         0.018165   
     88. D(C   7,C   8,C   4,C   3)    173.7873         0.018165   
     89. D(H  18,C   9,C   8,C   4)    149.3201         0.019010   
     90. D(C  10,C   9,C   8,C   7)    158.0020         0.019010   
     91. D(C  10,C   9,C   8,C   4)    -29.2705         0.019010   
     92. D(H  18,C   9,C   8,C   7)    -23.4074         0.019010   
     93. D(C  13,C  10,C   9,H  18)    174.1733         0.038068   
     94. D(C  13,C  10,C   9,C   8)     -7.2811         0.038068   
     95. D(C  11,C  10,C   9,H  18)     -3.9123         0.038068   
     96. D(C  11,C  10,C   9,C   8)    174.6332         0.038068   
     97. D(H  19,C  11,C  10,C  13)   -177.0466         0.015602   
     98. D(H  19,C  11,C  10,C   9)      1.1460         0.015602   
     99. D(O  12,C  11,C  10,C  13)      3.1443         0.015602   
    100. D(O  12,C  11,C  10,C   9)   -178.6631         0.015602   
    101. D(H  21,C  13,C  10,C  11)      4.2854         0.012453   
    102. D(H  21,C  13,C  10,C   9)   -173.8530         0.012453   
    103. D(H  20,C  13,C  10,C  11)    122.3826         0.012453   
    104. D(H  20,C  13,C  10,C   9)    -55.7557         0.012453   
    105. D(C   2,C  13,C  10,C  11)   -117.2335         0.012453   
    106. D(C   2,C  13,C  10,C   9)     64.6281         0.012453   
    107. D(H  21,C  13,C   2,C   3)    174.7627         0.012575   
    108. D(H  21,C  13,C   2,C   1)     -3.7899         0.012575   
    109. D(H  20,C  13,C   2,C   3)     55.5141         0.012575   
    110. D(H  20,C  13,C   2,C   1)   -123.0385         0.012575   
    111. D(C  10,C  13,C   2,C   3)    -64.8878         0.012575   
    112. D(C  10,C  13,C   2,C   1)    116.5596         0.012575   
    -----------------------------------------------------------------

Number of atoms                         .... 22
Number of degrees of freedom            .... 112

         *************************************************************
         *                GEOMETRY OPTIMIZATION CYCLE   1            *
         *************************************************************
---------------------------------
CARTESIAN COORDINATES (ANGSTROEM)
---------------------------------
  O     -1.242200    3.253900    1.588600
  C     -0.394800    2.825100    0.844300
  C     -0.410500    1.494200    0.228900
  C     -1.383000    0.627800    0.573500
  C     -1.439200   -0.741800    0.148200
  C     -2.534700   -1.565700    0.089100
  O     -2.180900   -2.810600   -0.254700
  C     -0.849500   -2.833200   -0.380900
  C     -0.314200   -1.587400   -0.165900
  C      1.072600   -1.218100   -0.118000
  C      1.528400    0.032100   -0.325600
  C      2.947300    0.334400   -0.140500
  O      3.447800    1.423300   -0.278700
  C      0.642600    1.156500   -0.789300
  H      0.486900    3.436000    0.572400
  H     -2.162100    0.970200    1.242200
  H     -3.576800   -1.367500    0.243600
  H     -0.389800   -3.764800   -0.646600
  H      1.770800   -2.009400    0.123900
  H      3.558100   -0.542500    0.151300
  H      0.151900    0.860300   -1.721700
  H      1.271400    2.027300   -0.984100

----------------------------
CARTESIAN COORDINATES (A.U.)
----------------------------
  NO LB      ZA    FRAG     MASS         X           Y           Z
   0 O     8.0000    0    15.999   -2.347418    6.148980    3.002019
   1 C     6.0000    0    12.011   -0.746064    5.338665    1.595496
   2 C     6.0000    0    12.011   -0.775733    2.823629    0.432558
   3 C     6.0000    0    12.011   -2.613491    1.186370    1.083758
   4 C     6.0000    0    12.011   -2.719694   -1.401799    0.280057
   5 C     6.0000    0    12.011   -4.789889   -2.958744    0.168375
   6 O     8.0000    0    15.999   -4.121304   -5.311264   -0.481313
   7 C     6.0000    0    12.011   -1.605322   -5.353972   -0.719797
   8 C     6.0000    0    12.011   -0.593752   -2.999751   -0.313506
   9 C     6.0000    0    12.011    2.026920   -2.301875   -0.222988
  10 C     6.0000    0    12.011    2.888257    0.060660   -0.615295
  11 C     6.0000    0    12.011    5.569590    0.631924   -0.265507
  12 O     8.0000    0    15.999    6.515398    2.689647   -0.526667
  13 C     6.0000    0    12.011    1.214338    2.185468   -1.491561
  14 H     1.0000    0     1.008    0.920108    6.493099    1.081679
  15 H     1.0000    0     1.008   -4.085777    1.833412    2.347418
  16 H     1.0000    0     1.008   -6.759172   -2.584200    0.460337
  17 H     1.0000    0     1.008   -0.736615   -7.114441   -1.221897
  18 H     1.0000    0     1.008    3.346327   -3.797216    0.234137
  19 H     1.0000    0     1.008    6.723835   -1.025176    0.285916
  20 H     1.0000    0     1.008    0.287049    1.625731   -3.253541
  21 H     1.0000    0     1.008    2.402598    3.831042   -1.859679

--------------------------------
INTERNAL COORDINATES (ANGSTROEM)
--------------------------------
 O      0   0   0     0.000000000000     0.00000000     0.00000000
 C      1   0   0     1.206622844969     0.00000000     0.00000000
 C      2   1   0     1.466375961341   125.02226660     0.00000000
 C      3   2   1     1.347276649393   118.95015589   355.09086978
 C      4   3   2     1.435215206859   124.48189420   186.36297478
 C      5   4   3     1.372014675577   128.10325437   201.82716844
 O      6   5   4     1.339085094383   110.99980896   185.07338091
 C      7   6   5     1.337558656658   107.63341002     2.07749455
 C      8   7   6     1.372876079623   110.97789179   357.90347317
 C      9   8   7     1.435928668145   127.96463496   175.25210805
 C     10   9   8     1.346793020475   124.08709313   158.00199883
 C     11  10   9     1.462506242722   120.04692513   174.63322708
 O     12  11  10     1.206359274843   125.07090023   181.33689401
 C      3   2   1     1.503260503040   118.72765816   173.69288149
 H      2   1   3     1.106581813514   120.99404990   180.27256686
 H      4   3   2     1.082309687659   118.30678065     4.28519331
 H      6   5   4     1.071972900777   131.22158500     6.79553595
 H      8   7   6     1.072286873929   117.69693016   179.46196618
 H     10   9   8     1.082660861027   116.25128086   336.59261503
 H     12  11  10     1.107780434021   113.86925338     1.14599432
 H     14   3   2     1.094481927672   108.88901999   236.96148796
 H     14   3   2     1.091617662004   110.19390123   356.21008010

---------------------------
INTERNAL COORDINATES (A.U.)
---------------------------
 O      0   0   0     0.000000000000     0.00000000     0.00000000
 C      1   0   0     2.280186723923     0.00000000     0.00000000
 C      2   1   0     2.771048976301   125.02226660     0.00000000
 C      3   2   1     2.545983893980   118.95015589   355.09086978
 C      4   3   2     2.712163684203   124.48189420   186.36297478
 C      5   4   3     2.592731988562   128.10325437   201.82716844
 O      6   5   4     2.530504098401   110.99980896   185.07338091
 C      7   6   5     2.527619549139   107.63341002     2.07749455
 C      8   7   6     2.594359806298   110.97789179   357.90347317
 C      9   8   7     2.713511930640   127.96463496   175.25210805
 C     10   9   8     2.545069967774   124.08709313   158.00199883
 C     11  10   9     2.763736267894   120.04692513   174.63322708
 O     12  11  10     2.279688648569   125.07090023   181.33689401
 C      3   2   1     2.840750658686   118.72765816   173.69288149
 H      2   1   3     2.091136572319   120.99404990   180.27256686
 H      4   3   2     2.045268901765   118.30678065     4.28519331
 H      6   5   4     2.025735205453   131.22158500     6.79553595
 H      8   7   6     2.026328528724   117.69693016   179.46196618
 H     10   9   8     2.045932523257   116.25128086   336.59261503
 H     12  11  10     2.093401636816   113.86925338     1.14599432
 H     14   3   2     2.068271101826   108.88901999   236.96148796
 H     14   3   2     2.062858424140   110.19390123   356.21008010

---------------------
BASIS SET INFORMATION
---------------------
There are 3 groups of distinct atoms

 Group   1 Type O   : 19s6p3d2f contracted to 5s4p3d2f pattern {88111/3111/111/11}
 Group   2 Type C   : 19s6p3d2f contracted to 5s4p3d2f pattern {88111/3111/111/11}
 Group   3 Type H   : 5s2p1d contracted to 3s2p1d pattern {311/11/1}

Atom   0O    basis set group =>   1
Atom   1C    basis set group =>   2
Atom   2C    basis set group =>   2
Atom   3C    basis set group =>   2
Atom   4C    basis set group =>   2
Atom   5C    basis set group =>   2
Atom   6O    basis set group =>   1
Atom   7C    basis set group =>   2
Atom   8C    basis set group =>   2
Atom   9C    basis set group =>   2
Atom  10C    basis set group =>   2
Atom  11C    basis set group =>   2
Atom  12O    basis set group =>   1
Atom  13C    basis set group =>   2
Atom  14H    basis set group =>   3
Atom  15H    basis set group =>   3
Atom  16H    basis set group =>   3
Atom  17H    basis set group =>   3
Atom  18H    basis set group =>   3
Atom  19H    basis set group =>   3
Atom  20H    basis set group =>   3
Atom  21H    basis set group =>   3
---------------------------------
AUXILIARY/J BASIS SET INFORMATION
---------------------------------
There are 3 groups of distinct atoms

 Group   1 Type O   : 10s7p5d2f1g contracted to 10s7p5d2f1g pattern {1111111111/1111111/11111/11/1}
 Group   2 Type C   : 10s7p5d2f1g contracted to 10s7p5d2f1g pattern {1111111111/1111111/11111/11/1}
 Group   3 Type H   : 4s3p2d1f contracted to 4s3p2d1f pattern {1111/111/11/1}

Atom   0O    basis set group =>   1
Atom   1C    basis set group =>   2
Atom   2C    basis set group =>   2
Atom   3C    basis set group =>   2
Atom   4C    basis set group =>   2
Atom   5C    basis set group =>   2
Atom   6O    basis set group =>   1
Atom   7C    basis set group =>   2
Atom   8C    basis set group =>   2
Atom   9C    basis set group =>   2
Atom  10C    basis set group =>   2
Atom  11C    basis set group =>   2
Atom  12O    basis set group =>   1
Atom  13C    basis set group =>   2
Atom  14H    basis set group =>   3
Atom  15H    basis set group =>   3
Atom  16H    basis set group =>   3
Atom  17H    basis set group =>   3
Atom  18H    basis set group =>   3
Atom  19H    basis set group =>   3
Atom  20H    basis set group =>   3
Atom  21H    basis set group =>   3
---------------------------------
AUXILIARY/C BASIS SET INFORMATION
---------------------------------
There are 3 groups of distinct atoms

 Group   1 Type O   : 9s7p6d4f2g contracted to 9s7p6d4f2g pattern {111111111/1111111/111111/1111/11}
 Group   2 Type C   : 9s7p6d4f2g contracted to 9s7p6d4f2g pattern {111111111/1111111/111111/1111/11}
 Group   3 Type H   : 4s3p2d1f contracted to 4s3p2d1f pattern {1111/111/11/1}

Atom   0O    basis set group =>   1
Atom   1C    basis set group =>   2
Atom   2C    basis set group =>   2
Atom   3C    basis set group =>   2
Atom   4C    basis set group =>   2
Atom   5C    basis set group =>   2
Atom   6O    basis set group =>   1
Atom   7C    basis set group =>   2
Atom   8C    basis set group =>   2
Atom   9C    basis set group =>   2
Atom  10C    basis set group =>   2
Atom  11C    basis set group =>   2
Atom  12O    basis set group =>   1
Atom  13C    basis set group =>   2
Atom  14H    basis set group =>   3
Atom  15H    basis set group =>   3
Atom  16H    basis set group =>   3
Atom  17H    basis set group =>   3
Atom  18H    basis set group =>   3
Atom  19H    basis set group =>   3
Atom  20H    basis set group =>   3
Atom  21H    basis set group =>   3


           ************************************************************
           *        Program running with 4 parallel MPI-processes     *
           *              working on a common directory               *
           ************************************************************
------------------------------------------------------------------------------
                           ORCA GTO INTEGRAL CALCULATION
                           -- RI-GTO INTEGRALS CHOSEN --
------------------------------------------------------------------------------
------------------------------------------------------------------------------
                   ___                                                        
                  /   \      - P O W E R E D   B Y -                         
                 /     \                                                     
                 |  |  |   _    _      __       _____    __    __             
                 |  |  |  | |  | |    /  \     |  _  \  |  |  /  |          
                  \  \/   | |  | |   /    \    | | | |  |  | /  /          
                 / \  \   | |__| |  /  /\  \   | |_| |  |  |/  /          
                |  |  |   |  __  | /  /__\  \  |    /   |      \           
                |  |  |   | |  | | |   __   |  |    \   |  |\   \          
                \     /   | |  | | |  |  |  |  | |\  \  |  | \   \       
                 \___/    |_|  |_| |__|  |__|  |_| \__\ |__|  \__/        
                                                                              
                      - O R C A' S   B I G   F R I E N D -                    
                                      &                                       
                       - I N T E G R A L  F E E D E R -                       
                                                                              
 v1 FN, 2020, v2 2021                                                         
------------------------------------------------------------------------------


Reading SHARK input file optpbed3-b2plyp-test-359.SHARKINP.tmp ... ok
----------------------
SHARK INTEGRAL PACKAGE
----------------------

Number of atoms                             ...     22
Number of basis functions                   ...    840
Number of shells                            ...    328
Maximum angular momentum                    ...      3
Integral batch strategy                     ... SHARK/LIBINT Hybrid
RI-J (if used) integral strategy            ... SPLIT-RIJ (Revised 2003 algorithm where possible)
Printlevel                                  ...      1
Contraction scheme used                     ... PARTIAL GENERAL contraction
Coulomb Range Separation                    ... NOT USED
Exchange Range Separation                   ... NOT USED
Finite Nucleus Model                        ... NOT USED
Auxiliary Coulomb fitting basis             ... AVAILABLE
   # of basis functions in Aux-J            ...   1346
   # of shells in Aux-J                     ...    430
   Maximum angular momentum in Aux-J        ...      4
Auxiliary J/K fitting basis                 ... NOT available
Auxiliary Correlation fitting basis         ... AVAILABLE
   # of basis functions in Aux-C            ...   1724
   # of shells in Aux-C                     ...    472
   Maximum angular momentum in Aux-C        ...      4
Auxiliary 'external' fitting basis          ... NOT available
Integral threshold                          ...     2.500000e-11
Primitive cut-off                           ...     2.500000e-12
Primitive pair pre-selection threshold      ...     2.500000e-12

Calculating pre-screening integrals         ... done (  0.2 sec) Dimension = 328
Calculating pre-screening integrals (ORCA)  ... done (  0.3 sec) Dimension = 244
Organizing shell pair data                  ... done (  0.5 sec)
Shell pair information
Total number of shell pairs                 ...     53956
Shell pairs after pre-screening             ...     40389
Total number of primitive shell pairs       ...     69444
Primitive shell pairs kept                  ...     47923
          la=0 lb=0:   9244 shell pairs
          la=1 lb=0:  10146 shell pairs
          la=1 lb=1:   2386 shell pairs
          la=2 lb=0:   6852 shell pairs
          la=2 lb=1:   3223 shell pairs
          la=2 lb=2:   1129 shell pairs
          la=3 lb=0:   3934 shell pairs
          la=3 lb=1:   1842 shell pairs
          la=3 lb=2:   1262 shell pairs
          la=3 lb=3:    371 shell pairs

Calculating one electron integrals          ... done (  0.1 sec)
Calculating RI/J V-Matrix + Cholesky decomp.... done (  0.2 sec)
Calculating RI/C V-Matrix + Cholesky decomp.... done (  0.2 sec)
Calculating Nuclear repulsion               ... done (  0.0 sec) ENN=    819.272837763806 Eh

SHARK setup successfully completed in   2.6 seconds

Maximum memory used throughout the entire GTOINT-calculation: 60.8 MB


           ************************************************************
           *        Program running with 4 parallel MPI-processes     *
           *              working on a common directory               *
           ************************************************************
-------------------------------------------------------------------------------
                                 ORCA SCF
-------------------------------------------------------------------------------

------------
SCF SETTINGS
------------
Hamiltonian:
 Density Functional     Method          .... DFT(GTOs)
 Exchange Functional    Exchange        .... PBE
   PBE kappa parameter   XKappa         ....  0.804000
   PBE mue parameter    XMuePBE         ....  0.219520
 Correlation Functional Correlation     .... PBE
   PBE beta parameter  CBetaPBE         ....  0.066725
 LDA part of GGA corr.  LDAOpt          .... PW91-LDA
 Gradients option       PostSCFGGA      .... off
 Hybrid DFT is turned on
   Fraction HF Exchange ScalHFX         ....  0.250000
   Scaling of DF-GGA-X  ScalDFX         ....  0.750000
   Scaling of DF-GGA-C  ScalDFC         ....  1.000000
   Scaling of DF-LDA-C  ScalLDAC        ....  1.000000
   Perturbative correction              ....  0.000000
   Density functional embedding theory  .... OFF
   NL short-range parameter             ....  6.900000
 RI-approximation to the Coulomb term is turned on
   Number of AuxJ basis functions       .... 1346
   RIJ-COSX (HFX calculated with COS-X)).... on


General Settings:
 Integral files         IntName         .... optpbed3-b2plyp-test-359
 Hartree-Fock type      HFTyp           .... RHF
 Total Charge           Charge          ....    0
 Multiplicity           Mult            ....    1
 Number of Electrons    NEL             ....   98
 Basis Dimension        Dim             ....  756
 Nuclear Repulsion      ENuc            ....    819.2728377638 Eh

Convergence Acceleration:
 DIIS                   CNVDIIS         .... on
   Start iteration      DIISMaxIt       ....    12
   Startup error        DIISStart       ....  0.200000
   # of expansion vecs  DIISMaxEq       ....     5
   Bias factor          DIISBfac        ....   1.050
   Max. coefficient     DIISMaxC        ....  10.000
 Trust-Rad. Augm. Hess. CNVTRAH         .... auto
   Auto Start mean grad. ratio tolernc. ....  1.125000
   Auto Start start iteration           ....    20
   Auto Start num. interpolation iter.  ....    10
   Max. Number of Micro iterations      ....    16
   Max. Number of Macro iterations      .... Maxiter - #DIIS iter
   Number of Davidson start vectors     ....     2
   Converg. threshold I  (grad. norm)   ....   1.000e-05
   Converg. threshold II (energy diff.) ....   1.000e-08
   Grad. Scal. Fac. for Micro threshold ....   0.100
   Minimum threshold for Micro iter.    ....   0.010
   NR start threshold (gradient norm)   ....   0.001
   Initial trust radius                 ....   0.400
   Minimum AH scaling param. (alpha)    ....   1.000
   Maximum AH scaling param. (alpha)    .... 1000.000
   Orbital update algorithm             .... Taylor
   White noise on init. David. guess    .... on
   Maximum white noise                  ....   0.010
   Quad. conv. algorithm                .... NR
 SOSCF                  CNVSOSCF        .... on
   Start iteration      SOSCFMaxIt      ....   150
   Startup grad/error   SOSCFStart      ....  0.003300
 Level Shifting         CNVShift        .... on
   Level shift para.    LevelShift      ....    0.2500
   Turn off err/grad.   ShiftErr        ....    0.0010
 Zerner damping         CNVZerner       .... off
 Static damping         CNVDamp         .... on
   Fraction old density DampFac         ....    0.7000
   Max. Damping (<1)    DampMax         ....    0.9800
   Min. Damping (>=0)   DampMin         ....    0.0000
   Turn off err/grad.   DampErr         ....    0.1000
 Fernandez-Rico         CNVRico         .... off

SCF Procedure:
 Maximum # iterations   MaxIter         ....   125
 SCF integral mode      SCFMode         .... Direct
   Integral package                     .... SHARK and LIBINT hybrid scheme
 Reset frequency        DirectResetFreq ....    20
 Integral Threshold     Thresh          ....  2.500e-11 Eh
 Primitive CutOff       TCut            ....  2.500e-12 Eh

Convergence Tolerance:
 Convergence Check Mode ConvCheckMode   .... Total+1el-Energy
 Convergence forced     ConvForced      .... 0
 Energy Change          TolE            ....  1.000e-08 Eh
 1-El. energy change                    ....  1.000e-05 Eh
 Orbital Gradient       TolG            ....  1.000e-05
 Orbital Rotation angle TolX            ....  1.000e-05
 DIIS Error             TolErr          ....  5.000e-07


Diagonalization of the overlap matrix:
Smallest eigenvalue                        ... 1.198e-06
Time for diagonalization                   ...    0.175 sec
Threshold for overlap eigenvalues          ... 1.000e-08
Number of eigenvalues below threshold      ... 0
Time for construction of square roots      ...    0.078 sec
Total time needed                          ...    0.256 sec

Time for model grid setup =    0.510 sec

------------------------------
INITIAL GUESS: MODEL POTENTIAL
------------------------------
Loading Hartree-Fock densities                     ... done
Calculating cut-offs                               ... done
Initializing the effective Hamiltonian             ... done
Setting up the integral package (SHARK)            ... done
Starting the Coulomb interaction                   ... done (   1.1 sec)
Reading the grid                                   ... done
Mapping shells                                     ... done
Starting the XC term evaluation                    ... done (   1.3 sec)
  promolecular density results
     # of electrons  =     98.000965369
     EX              =    -83.107808157
     EC              =     -3.300799949
     EX+EC           =    -86.408608106
Transforming the Hamiltonian                       ... done (   0.1 sec)
Diagonalizing the Hamiltonian                      ... done (   0.2 sec)
Back transforming the eigenvectors                 ... done (   0.0 sec)
Now organizing SCF variables                       ... done
                      ------------------
                      INITIAL GUESS DONE (   3.3 sec)
                      ------------------
-------------------
DFT GRID GENERATION
-------------------

General Integration Accuracy     IntAcc      ... 4.388
Radial Grid Type                 RadialGrid  ... OptM3 with GC (2021)
Angular Grid (max. ang.)         AngularGrid ... 4 (Lebedev-302)
Angular grid pruning method      GridPruning ... 4 (adaptive)
Weight generation scheme         WeightScheme... Becke
Basis function cutoff            BFCut       ... 1.0000e-11
Integration weight cutoff        WCut        ... 1.0000e-14
Angular grids for H and He will be reduced by one unit
Partially contracted basis set               ... off
Rotationally invariant grid construction     ... off

Total number of grid points                  ...   113217
Total number of batches                      ...     1779
Average number of points per batch           ...       63
Average number of grid points per atom       ...     5146
Time for grid setup =    1.701 sec

--------------------
COSX GRID GENERATION
--------------------

GRIDX 1
-------
General Integration Accuracy     IntAcc      ... 3.816
Radial Grid Type                 RadialGrid  ... OptM3 with GC (2021)
Angular Grid (max. ang.)         AngularGrid ... 1 (Lebedev-50)
Angular grid pruning method      GridPruning ... 4 (adaptive)
Weight generation scheme         WeightScheme... Becke
Basis function cutoff            BFCut       ... 1.0000e-11
Integration weight cutoff        WCut        ... 1.0000e-14
Angular grids for H and He will be reduced by one unit
Partially contracted basis set               ... on
Rotationally invariant grid construction     ... off

Total number of grid points                  ...    14416
Total number of batches                      ...      235
Average number of points per batch           ...       61
Average number of grid points per atom       ...      655
UseSFitting                                  ... on

GRIDX 2
-------
General Integration Accuracy     IntAcc      ... 4.020
Radial Grid Type                 RadialGrid  ... OptM3 with GC (2021)
Angular Grid (max. ang.)         AngularGrid ... 2 (Lebedev-110)
Angular grid pruning method      GridPruning ... 4 (adaptive)
Weight generation scheme         WeightScheme... Becke
Basis function cutoff            BFCut       ... 1.0000e-11
Integration weight cutoff        WCut        ... 1.0000e-14
Angular grids for H and He will be reduced by one unit
Partially contracted basis set               ... on
Rotationally invariant grid construction     ... off

Total number of grid points                  ...    34977
Total number of batches                      ...      558
Average number of points per batch           ...       62
Average number of grid points per atom       ...     1590
UseSFitting                                  ... on

GRIDX 3
-------
General Integration Accuracy     IntAcc      ... 4.338
Radial Grid Type                 RadialGrid  ... OptM3 with GC (2021)
Angular Grid (max. ang.)         AngularGrid ... 3 (Lebedev-194)
Angular grid pruning method      GridPruning ... 4 (adaptive)
Weight generation scheme         WeightScheme... Becke
Basis function cutoff            BFCut       ... 1.0000e-11
Integration weight cutoff        WCut        ... 1.0000e-14
Angular grids for H and He will be reduced by one unit
Partially contracted basis set               ... on
Rotationally invariant grid construction     ... off

Total number of grid points                  ...    75548
Total number of batches                      ...     1191
Average number of points per batch           ...       63
Average number of grid points per atom       ...     3434
UseSFitting                                  ... on

Time for X-Grid setup             =    3.777 sec


--------------------
CPCM SOLVATION MODEL
--------------------
CPCM parameters:
  Epsilon                                         ...       4.7113
  Refrac                                          ...       1.4459
  Rsolv                                           ...       1.3000
  Surface type                                    ... GAUSSIAN VDW
  Epsilon function type                           ...         CPCM
Solvent:                                     ... CHLOROFORM
SMD-CDS solvent descriptors:
  Soln                                       ...    1.4459
  Soln25                                     ...    1.4431
  Sola                                       ...    0.1500
  Solb                                       ...    0.0200
  Solg                                       ...   38.3900
  Solc                                       ...    0.0000
  Solh                                       ...    0.7500
Radii:
 Radius for O  used is    3.8248 Bohr (=   2.0240 Ang.)
 Radius for C  used is    3.4960 Bohr (=   1.8500 Ang.)
 Radius for H  used is    2.2677 Bohr (=   1.2000 Ang.)
Calculating surface                               ...        done! (  0.0s)
GEPOL surface points                              ...         1266
GEPOL Volume                                      ...    1412.8828
GEPOL Surface-area                                ...     800.6196
Calculating surface distance matrix               ...        done! (  0.0s)
Performing Cholesky decomposition & store         ...        done! (  0.1s)
Overall time for CPCM initialization              ...                 0.1s
 re-compute Schwartz prescreening matrix in partically contracted basis (1) ...done (   0.176 sec)
--------------
SCF ITERATIONS
--------------
ITER       Energy         Delta-E        Max-DP      RMS-DP      [F,P]     Damp
               ***  Starting incremental Fock matrix formation  ***
  0   -648.8227151263   0.000000000000 0.12457431  0.00110392  0.2745044 0.7000
  1   -648.9486075825  -0.125892456181 0.09180120  0.00085639  0.1141739 0.7000
                               ***Turning on DIIS***
  2   -648.9990929776  -0.050485395116 0.19467279  0.00177095  0.0363432 0.0000
  3   -649.0838980107  -0.084805033084 0.03402434  0.00043489  0.0571204 0.0000
  4   -649.0986568420  -0.014758831356 0.01079453  0.00016156  0.0163603 0.0000
  5   -649.0999415427  -0.001284700671 0.00461770  0.00006900  0.0053566 0.0000
                      *** Initiating the SOSCF procedure ***
                           *** Shutting down DIIS ***
                      *** Re-Reading the Fockian *** 
                      *** Removing any level shift *** 
ITER      Energy       Delta-E        Grad      Rot      Max-DP    RMS-DP
  6   -649.10003249  -0.0000909462  0.000452  0.000452  0.003171  0.000038
               *** Restarting incremental Fock matrix formation ***
  7   -649.10003063   0.0000018603  0.000300  0.001856  0.004583  0.000069
  8   -649.10003352  -0.0000028900  0.000150  0.000720  0.002216  0.000032
  9   -649.10003360  -0.0000000807  0.000159  0.000377  0.001514  0.000023
 10   -649.10003423  -0.0000006271  0.000014  0.000063  0.001570  0.000011
 11   -649.10003422   0.0000000044  0.000014  0.000035  0.000809  0.000007
 12   -649.10003426  -0.0000000333  0.000006  0.000035  0.001594  0.000013
 13   -649.10003427  -0.0000000145  0.000005  0.000016  0.000646  0.000007
                  ***Gradient check signals convergence***
              ***Rediagonalizing the Fockian in SOSCF/NRSCF***

               *****************************************************
               *                     SUCCESS                       *
               *           SCF CONVERGED AFTER  14 CYCLES          *
               *****************************************************

Old exchange energy                            =    -21.136321990 Eh
New exchange energy                            =    -21.136293915 Eh
Exchange energy change after final integration =      0.000028076 Eh
Total energy after final integration           =   -649.100006184 Eh
Final COS-X integration done in                =    61.926 sec

SMD CDS free energy correction energy :                -1.48544     Kcal/mol
Total Energy after SMD CDS correction =              -649.102373385 Eh

----------------
TOTAL SCF ENERGY
----------------

Total Energy       :         -649.10237338 Eh          -17662.97355 eV

Components:
Nuclear Repulsion  :          819.27283776 Eh           22293.54730 eV
Electronic Energy  :        -1468.37521115 Eh          -39956.52085 eV
One Electron Energy:        -2507.52744439 Eh          -68233.29068 eV
Two Electron Energy:         1039.15223325 Eh           28276.76983 eV
Max COSX asymmetry :            0.00003668 Eh               0.00100 eV
CPCM Dielectric    :           -0.01720869 Eh              -0.46827 eV
SMD CDS (Gcds)     :           -0.00236720 Eh              -0.06441 eV

Virial components:
Potential Energy   :        -1294.64386249 Eh          -35229.05051 eV
Kinetic Energy     :          645.54148910 Eh           17566.07696 eV
Virial Ratio       :            2.00551612


DFT components:
N(Alpha)           :       49.000082020282 electrons
N(Beta)            :       49.000082020282 electrons
N(Total)           :       98.000164040565 electrons
E(X)               :      -63.313725166123 Eh       
E(C)               :       -3.302039558175 Eh       
E(XC)              :      -66.615764724298 Eh       
DFET-embed. en.    :        0.000000000000 Eh       
CPCM Solvation Model Properties:
Surface-charge          :           -0.03178501
Charge-correction       :            0.00019670 Eh               0.00535 eV
Free-energy (cav+disp)  :           -0.00236720 Eh              -0.06441 eV

---------------
SCF CONVERGENCE
---------------

  Last Energy change         ...    1.0264e-08  Tolerance :   1.0000e-08
  Last MAX-Density change    ...    3.5527e-15  Tolerance :   1.0000e-07
  Last RMS-Density change    ...    1.6094e-17  Tolerance :   5.0000e-09
  Last Orbital Gradient      ...    1.3462e-06  Tolerance :   1.0000e-05
  Last Orbital Rotation      ...    7.3813e-06  Tolerance :   1.0000e-05

             **** THE GBW FILE WAS UPDATED (optpbed3-b2plyp-test-359.gbw) ****
             **** DENSITY optpbed3-b2plyp-test-359.scfp WAS UPDATED ****
             **** ENERGY FILE WAS UPDATED (optpbed3-b2plyp-test-359.en.tmp) ****
             **** THE GBW FILE WAS UPDATED (optpbed3-b2plyp-test-359.gbw) ****
             **** DENSITY optpbed3-b2plyp-test-359.scfp WAS UPDATED ****
----------------
ORBITAL ENERGIES
----------------

  NO   OCC          E(Eh)            E(eV) 
   0   2.0000     -19.308849      -525.4205 
   1   2.0000     -19.208473      -522.6891 
   2   2.0000     -19.204971      -522.5938 
   3   2.0000     -10.309487      -280.5354 
   4   2.0000     -10.307660      -280.4857 
   5   2.0000     -10.294287      -280.1218 
   6   2.0000     -10.292976      -280.0861 
   7   2.0000     -10.259104      -279.1644 
   8   2.0000     -10.253250      -279.0051 
   9   2.0000     -10.252415      -278.9824 
  10   2.0000     -10.251930      -278.9692 
  11   2.0000     -10.248897      -278.8867 
  12   2.0000     -10.244634      -278.7707 
  13   2.0000     -10.233877      -278.4780 
  14   2.0000      -1.180701       -32.1285 
  15   2.0000      -1.082785       -29.4641 
  16   2.0000      -1.079347       -29.3705 
  17   2.0000      -0.899687       -24.4817 
  18   2.0000      -0.838860       -22.8265 
  19   2.0000      -0.836195       -22.7540 
  20   2.0000      -0.789230       -21.4760 
  21   2.0000      -0.725933       -19.7536 
  22   2.0000      -0.703565       -19.1450 
  23   2.0000      -0.673506       -18.3270 
  24   2.0000      -0.612735       -16.6734 
  25   2.0000      -0.606244       -16.4967 
  26   2.0000      -0.572504       -15.5786 
  27   2.0000      -0.555908       -15.1270 
  28   2.0000      -0.533486       -14.5169 
  29   2.0000      -0.511713       -13.9244 
  30   2.0000      -0.503058       -13.6889 
  31   2.0000      -0.499147       -13.5825 
  32   2.0000      -0.477799       -13.0016 
  33   2.0000      -0.472997       -12.8709 
  34   2.0000      -0.464638       -12.6434 
  35   2.0000      -0.445982       -12.1358 
  36   2.0000      -0.430232       -11.7072 
  37   2.0000      -0.422314       -11.4918 
  38   2.0000      -0.419873       -11.4253 
  39   2.0000      -0.413033       -11.2392 
  40   2.0000      -0.401978       -10.9384 
  41   2.0000      -0.391598       -10.6559 
  42   2.0000      -0.376548       -10.2464 
  43   2.0000      -0.344277        -9.3683 
  44   2.0000      -0.316793        -8.6204 
  45   2.0000      -0.283751        -7.7213 
  46   2.0000      -0.271312        -7.3828 
  47   2.0000      -0.261557        -7.1173 
  48   2.0000      -0.241283        -6.5657 
  49   0.0000      -0.079859        -2.1731 
  50   0.0000      -0.070062        -1.9065 
  51   0.0000      -0.001817        -0.0494 
  52   0.0000       0.005034         0.1370 
  53   0.0000       0.016704         0.4545 
  54   0.0000       0.017856         0.4859 
  55   0.0000       0.021513         0.5854 
  56   0.0000       0.032682         0.8893 
  57   0.0000       0.034771         0.9462 
  58   0.0000       0.036968         1.0059 
  59   0.0000       0.041628         1.1328 
  60   0.0000       0.046448         1.2639 
  61   0.0000       0.052946         1.4407 
  62   0.0000       0.059017         1.6059 
  63   0.0000       0.061156         1.6641 
  64   0.0000       0.065572         1.7843 
  65   0.0000       0.069775         1.8987 
  66   0.0000       0.075241         2.0474 
  67   0.0000       0.082670         2.2496 
  68   0.0000       0.083425         2.2701 
  69   0.0000       0.087387         2.3779 
  70   0.0000       0.090443         2.4611 
  71   0.0000       0.101572         2.7639 
  72   0.0000       0.110779         3.0145 
  73   0.0000       0.112009         3.0479 
  74   0.0000       0.116410         3.1677 
  75   0.0000       0.120060         3.2670 
  76   0.0000       0.120824         3.2878 
  77   0.0000       0.124977         3.4008 
  78   0.0000       0.126466         3.4413 
  79   0.0000       0.131452         3.5770 
  80   0.0000       0.134716         3.6658 
  81   0.0000       0.135433         3.6853 
  82   0.0000       0.137299         3.7361 
  83   0.0000       0.140228         3.8158 
  84   0.0000       0.144592         3.9345 
  85   0.0000       0.144804         3.9403 
  86   0.0000       0.148191         4.0325 
  87   0.0000       0.152754         4.1566 
  88   0.0000       0.157168         4.2768 
  89   0.0000       0.163246         4.4422 
  90   0.0000       0.164015         4.4631 
  91   0.0000       0.169552         4.6138 
  92   0.0000       0.172873         4.7041 
  93   0.0000       0.174796         4.7564 
  94   0.0000       0.175654         4.7798 
  95   0.0000       0.181011         4.9256 
  96   0.0000       0.185651         5.0518 
  97   0.0000       0.188035         5.1167 
  98   0.0000       0.197776         5.3818 
  99   0.0000       0.198159         5.3922 
 100   0.0000       0.203946         5.5497 
 101   0.0000       0.209288         5.6950 
 102   0.0000       0.212276         5.7763 
 103   0.0000       0.215082         5.8527 
 104   0.0000       0.215900         5.8749 
 105   0.0000       0.218096         5.9347 
 106   0.0000       0.221891         6.0380 
 107   0.0000       0.228570         6.2197 
 108   0.0000       0.231692         6.3047 
 109   0.0000       0.235732         6.4146 
 110   0.0000       0.244594         6.6557 
 111   0.0000       0.245011         6.6671 
 112   0.0000       0.249070         6.7775 
 113   0.0000       0.250499         6.8164 
 114   0.0000       0.257469         7.0061 
 115   0.0000       0.268243         7.2993 
 116   0.0000       0.273604         7.4452 
 117   0.0000       0.275960         7.5092 
 118   0.0000       0.278758         7.5854 
 119   0.0000       0.283128         7.7043 
 120   0.0000       0.287785         7.8310 
 121   0.0000       0.289849         7.8872 
 122   0.0000       0.293432         7.9847 
 123   0.0000       0.297924         8.1069 
 124   0.0000       0.300921         8.1885 
 125   0.0000       0.305116         8.3026 
 126   0.0000       0.311333         8.4718 
 127   0.0000       0.313663         8.5352 
 128   0.0000       0.314977         8.5710 
 129   0.0000       0.326661         8.8889 
 130   0.0000       0.328598         8.9416 
 131   0.0000       0.334296         9.0967 
 132   0.0000       0.335877         9.1397 
 133   0.0000       0.342692         9.3251 
 134   0.0000       0.345346         9.3973 
 135   0.0000       0.350009         9.5242 
 136   0.0000       0.355887         9.6842 
 137   0.0000       0.361081         9.8255 
 138   0.0000       0.367407         9.9977 
 139   0.0000       0.372359        10.1324 
 140   0.0000       0.379036        10.3141 
 141   0.0000       0.381818        10.3898 
 142   0.0000       0.389452        10.5975 
 143   0.0000       0.391798        10.6614 
 144   0.0000       0.395389        10.7591 
 145   0.0000       0.398105        10.8330 
 146   0.0000       0.398818        10.8524 
 147   0.0000       0.407624        11.0920 
 148   0.0000       0.413390        11.2489 
 149   0.0000       0.417499        11.3607 
 150   0.0000       0.418680        11.3929 
 151   0.0000       0.424895        11.5620 
 152   0.0000       0.430043        11.7021 
 153   0.0000       0.433282        11.7902 
 154   0.0000       0.437813        11.9135 
 155   0.0000       0.443633        12.0719 
 156   0.0000       0.447882        12.1875 
 157   0.0000       0.449386        12.2284 
 158   0.0000       0.454418        12.3653 
 159   0.0000       0.459842        12.5129 
 160   0.0000       0.461717        12.5640 
 161   0.0000       0.468462        12.7475 
 162   0.0000       0.472393        12.8545 
 163   0.0000       0.478862        13.0305 
 164   0.0000       0.485065        13.1993 
 165   0.0000       0.489480        13.3194 
 166   0.0000       0.494890        13.4666 
 167   0.0000       0.496825        13.5193 
 168   0.0000       0.503195        13.6926 
 169   0.0000       0.507712        13.8156 
 170   0.0000       0.510970        13.9042 
 171   0.0000       0.516388        14.0516 
 172   0.0000       0.517756        14.0889 
 173   0.0000       0.529517        14.4089 
 174   0.0000       0.536729        14.6052 
 175   0.0000       0.543620        14.7927 
 176   0.0000       0.546662        14.8754 
 177   0.0000       0.548529        14.9262 
 178   0.0000       0.551960        15.0196 
 179   0.0000       0.561123        15.2689 
 180   0.0000       0.567987        15.4557 
 181   0.0000       0.576020        15.6743 
 182   0.0000       0.585832        15.9413 
 183   0.0000       0.593712        16.1557 
 184   0.0000       0.596786        16.2394 
 185   0.0000       0.608819        16.5668 
 186   0.0000       0.611056        16.6277 
 187   0.0000       0.613338        16.6898 
 188   0.0000       0.619633        16.8611 
 189   0.0000       0.632189        17.2028 
 190   0.0000       0.638378        17.3712 
 191   0.0000       0.644191        17.5293 
 192   0.0000       0.648076        17.6350 
 193   0.0000       0.654569        17.8117 
 194   0.0000       0.667485        18.1632 
 195   0.0000       0.669567        18.2198 
 196   0.0000       0.674593        18.3566 
 197   0.0000       0.679210        18.4822 
 198   0.0000       0.683569        18.6009 
 199   0.0000       0.688987        18.7483 
 200   0.0000       0.696574        18.9548 
 201   0.0000       0.703699        19.1486 
 202   0.0000       0.708527        19.2800 
 203   0.0000       0.712366        19.3845 
 204   0.0000       0.719125        19.5684 
 205   0.0000       0.724714        19.7205 
 206   0.0000       0.727090        19.7851 
 207   0.0000       0.732329        19.9277 
 208   0.0000       0.738621        20.0989 
 209   0.0000       0.741083        20.1659 
 210   0.0000       0.746056        20.3012 
 211   0.0000       0.757369        20.6090 
 212   0.0000       0.760612        20.6973 
 213   0.0000       0.764210        20.7952 
 214   0.0000       0.771006        20.9801 
 215   0.0000       0.771515        20.9940 
 216   0.0000       0.776618        21.1329 
 217   0.0000       0.781913        21.2769 
 218   0.0000       0.784126        21.3372 
 219   0.0000       0.787283        21.4231 
 220   0.0000       0.795770        21.6540 
 221   0.0000       0.803877        21.8746 
 222   0.0000       0.804732        21.8979 
 223   0.0000       0.815648        22.1949 
 224   0.0000       0.822358        22.3775 
 225   0.0000       0.828596        22.5473 
 226   0.0000       0.830242        22.5920 
 227   0.0000       0.842054        22.9135 
 228   0.0000       0.846195        23.0261 
 229   0.0000       0.849273        23.1099 
 230   0.0000       0.853324        23.2201 
 231   0.0000       0.859252        23.3814 
 232   0.0000       0.862205        23.4618 
 233   0.0000       0.871620        23.7180 
 234   0.0000       0.873961        23.7817 
 235   0.0000       0.878727        23.9114 
 236   0.0000       0.889833        24.2136 
 237   0.0000       0.894852        24.3502 
 238   0.0000       0.899895        24.4874 
 239   0.0000       0.909579        24.7509 
 240   0.0000       0.912843        24.8397 
 241   0.0000       0.916501        24.9393 
 242   0.0000       0.921964        25.0879 
 243   0.0000       0.932922        25.3861 
 244   0.0000       0.936970        25.4962 
 245   0.0000       0.948311        25.8048 
 246   0.0000       0.953070        25.9343 
 247   0.0000       0.958875        26.0923 
 248   0.0000       0.965894        26.2833 
 249   0.0000       0.969602        26.3842 
 250   0.0000       0.977017        26.5860 
 251   0.0000       0.986802        26.8522 
 252   0.0000       0.990452        26.9516 
 253   0.0000       0.993848        27.0440 
 254   0.0000       0.995696        27.0943 
 255   0.0000       1.010527        27.4978 
 256   0.0000       1.012613        27.5546 
 257   0.0000       1.021107        27.7857 
 258   0.0000       1.029743        28.0207 
 259   0.0000       1.033452        28.1217 
 260   0.0000       1.038757        28.2660 
 261   0.0000       1.043744        28.4017 
 262   0.0000       1.054118        28.6840 
 263   0.0000       1.066539        29.0220 
 264   0.0000       1.069060        29.0906 
 265   0.0000       1.072186        29.1757 
 266   0.0000       1.082771        29.4637 
 267   0.0000       1.085506        29.5381 
 268   0.0000       1.096475        29.8366 
 269   0.0000       1.103510        30.0280 
 270   0.0000       1.110363        30.2145 
 271   0.0000       1.117526        30.4094 
 272   0.0000       1.118423        30.4338 
 273   0.0000       1.136496        30.9256 
 274   0.0000       1.139596        31.0100 
 275   0.0000       1.146612        31.2009 
 276   0.0000       1.157145        31.4875 
 277   0.0000       1.161497        31.6059 
 278   0.0000       1.169011        31.8104 
 279   0.0000       1.179788        32.1037 
 280   0.0000       1.183558        32.2063 
 281   0.0000       1.187125        32.3033 
 282   0.0000       1.198724        32.6189 
 283   0.0000       1.200137        32.6574 
 284   0.0000       1.204919        32.7875 
 285   0.0000       1.211833        32.9756 
 286   0.0000       1.215310        33.0703 
 287   0.0000       1.229396        33.4536 
 288   0.0000       1.238629        33.7048 
 289   0.0000       1.243830        33.8463 
 290   0.0000       1.250333        34.0233 
 291   0.0000       1.261592        34.3297 
 292   0.0000       1.263258        34.3750 
 293   0.0000       1.275697        34.7135 
 294   0.0000       1.281340        34.8670 
 295   0.0000       1.288832        35.0709 
 296   0.0000       1.304066        35.4854 
 297   0.0000       1.305491        35.5242 
 298   0.0000       1.318141        35.8684 
 299   0.0000       1.330331        36.2002 
 300   0.0000       1.335169        36.3318 
 301   0.0000       1.342689        36.5364 
 302   0.0000       1.352162        36.7942 
 303   0.0000       1.357641        36.9433 
 304   0.0000       1.365874        37.1673 
 305   0.0000       1.370427        37.2912 
 306   0.0000       1.374133        37.3921 
 307   0.0000       1.376377        37.4531 
 308   0.0000       1.378933        37.5227 
 309   0.0000       1.389194        37.8019 
 310   0.0000       1.401014        38.1235 
 311   0.0000       1.410192        38.3733 
 312   0.0000       1.411003        38.3953 
 313   0.0000       1.423675        38.7402 
 314   0.0000       1.428370        38.8679 
 315   0.0000       1.439924        39.1823 
 316   0.0000       1.441444        39.2237 
 317   0.0000       1.447996        39.4020 
 318   0.0000       1.451417        39.4951 
 319   0.0000       1.463624        39.8272 
 320   0.0000       1.471444        40.0400 
 321   0.0000       1.474482        40.1227 
 322   0.0000       1.479597        40.2619 
 323   0.0000       1.488966        40.5168 
 324   0.0000       1.497656        40.7533 
 325   0.0000       1.503348        40.9082 
 326   0.0000       1.506342        40.9897 
 327   0.0000       1.518129        41.3104 
 328   0.0000       1.519305        41.3424 
 329   0.0000       1.525202        41.5029 
[...]

                       ****Iteration    1****
              <<< Entering MO-section for Build Sigma(Double) >>>
   Forming the XC and CPCM contribution:
   Time for densities:            0.111
   Time for XC-Integration:      10.350
   Time for LR-CPCM terms:        5.016
   Time for Sigma-Completion:     0.079
   Time for building 10 sigma-vectors
   Data Preparation Phase         ...     0.00 sec
   Transformed RI Coulomb         ...     0.22 sec
   Transformed RI-exchange        ...    57.83 sec
   (ab|v) reading and digestion   ...    54.48 sec
   Final sigma-completion         ...     0.00 sec
   Done building sigma-vectors             Size of expansion space: 40
   Lowest Energy          :     0.149463314602
   Maximum Energy change  :     0.021606889563 (vector 5)
   Maximum residual norm  :     0.001123715072

                       ****Iteration    2****
              <<< Entering MO-section for Build Sigma(Double) >>>
   Forming the XC and CPCM contribution:
   Time for densities:            0.131
   Time for XC-Integration:      12.405
   Time for LR-CPCM terms:        5.203
   Time for Sigma-Completion:     0.088
   Time for building 10 sigma-vectors
   Data Preparation Phase         ...     0.00 sec
   Transformed RI Coulomb         ...     0.26 sec
   Transformed RI-exchange        ...    94.40 sec
   (ab|v) reading and digestion   ...    90.41 sec
   Final sigma-completion         ...     0.00 sec
   Done building sigma-vectors             Size of expansion space: 50
   Lowest Energy          :     0.148378584169
   Maximum Energy change  :     0.001401240137 (vector 2)
   Maximum residual norm  :     0.000109507042

                       ****Iteration    3****
              <<< Entering MO-section for Build Sigma(Double) >>>
   Forming the XC and CPCM contribution:
   Time for densities:            0.113
   Time for XC-Integration:      11.294
   Time for LR-CPCM terms:        5.151
   Time for Sigma-Completion:     0.091
   Time for building 10 sigma-vectors
   Data Preparation Phase         ...     0.00 sec
   Transformed RI Coulomb         ...     0.31 sec
   Transformed RI-exchange        ...   107.26 sec
   (ab|v) reading and digestion   ...   100.97 sec
   Final sigma-completion         ...     0.00 sec
   Done building sigma-vectors             Size of expansion space: 60
   Lowest Energy          :     0.148280245888
   Maximum Energy change  :     0.000245806126 (vector 7)
   Maximum residual norm  :     0.000013880607

                       ****Iteration    4****
              <<< Entering MO-section for Build Sigma(Double) >>>
   Forming the XC and CPCM contribution:
   Time for densities:            0.112
   Time for XC-Integration:      10.729
   Time for LR-CPCM terms:        5.073
   Time for Sigma-Completion:     0.082
   Time for building 10 sigma-vectors
   Data Preparation Phase         ...     0.00 sec
   Transformed RI Coulomb         ...     0.28 sec
   Transformed RI-exchange        ...    76.51 sec
   (ab|v) reading and digestion   ...    72.95 sec
   Final sigma-completion         ...     0.00 sec
   Done building sigma-vectors             Size of expansion space: 70
   Lowest Energy          :     0.148273869982
   Maximum Energy change  :     0.000028025108 (vector 9)
   Maximum residual norm  :     0.000003749164
   Rebuilding the expansion space

                       ****Iteration    5****
              <<< Entering MO-section for Build Sigma(Double) >>>
   Forming the XC and CPCM contribution:
   Time for densities:            0.188
   Time for XC-Integration:      18.970
   Time for LR-CPCM terms:        7.797
   Time for Sigma-Completion:     0.158
   Time for building 20 sigma-vectors
   Data Preparation Phase         ...     0.01 sec
   Transformed RI Coulomb         ...     0.45 sec
   Transformed RI-exchange        ...   212.93 sec
   (ab|v) reading and digestion   ...   203.72 sec
   Final sigma-completion         ...     0.01 sec
   Done building sigma-vectors             Size of expansion space: 20
   Lowest Energy          :     0.148273541224
   Maximum Energy change  :     0.000006422186 (vector 9)
   Maximum residual norm  :     0.000000821032

      *** CONVERGENCE OF RESIDUAL NORM REACHED ***

Storing the converged CI vectors               ... optpbed3-b2plyp-test-359_job2.cis1

                 *** DAVIDSON DONE ***

Total time for solving the CIS problem:   692.575sec

------------------
DOUBLES CORRECTION (Double precision version)
------------------

The (D) correction will be scaled by  0.2700
Doing v(i,a)*T(i,a) terms (RI)                    ... ok
Doing u(i,j,a,b) terms for state   0              ... ok
Doing u(i,j,a,b) terms for state   1              ... ok
Doing u(i,j,a,b) terms for state   2              ... ok
Doing u(i,j,a,b) terms for state   3              ... ok
Doing u(i,j,a,b) terms for state   4              ... ok
Doing u(i,j,a,b) terms for state   5              ... ok
Doing u(i,j,a,b) terms for state   6              ... ok
Doing u(i,j,a,b) terms for state   7              ... ok
Doing u(i,j,a,b) terms for state   8              ... ok
Doing u(i,j,a,b) terms for state   9              ... ok

Contributions to the (D) correction(s) (in eV)

STATE  Final   Init.   Total   v(ext)   v(int)  v(3)    u
       omega   omega     (D)                             
-----------------------------------------------------------------------------
   0   3.521   4.035  -0.514   0.600   0.737  -0.029  -1.823
   1   3.808   4.259  -0.451   0.613   0.816  -0.038  -1.842
   2   4.016   4.362  -0.346   0.598   0.866  -0.052  -1.758
   3   4.000   4.591  -0.590   0.588   0.951  -0.039  -2.090
   4   4.226   4.832  -0.607   0.608   0.948  -0.032  -2.130
   5   4.788   5.251  -0.463   0.591   0.932  -0.086  -1.901
   6   5.811   5.884  -0.074   0.037   0.963  -0.002  -1.072
   7   5.910   6.048  -0.138   0.240   0.958  -0.032  -1.304
   8   6.086   6.224  -0.138   0.045   0.953  -0.003  -1.133
   9   6.241   6.426  -0.185   0.065   0.960  -0.003  -1.206

(D)-timings
 V(i,a)*T(i,a) terms           ...   104.589 sec
 U(i,j,a,b) 3-internal         ...     3.000 sec
 U(i,j,a,b) 3-external         ...    92.535 sec
 U(i,j,a,b) pair terms         ...    48.977 sec
 Total measured time           ...   479.024 sec

 Time for (ab|v) I/O           ...    36.297 sec


------------------------------------
TD-DFT/TDA EXCITED STATES (SINGLETS)
------------------------------------

the weight of the individual excitations are printed if larger than 1.0e-02

STATE  1:  E=   0.129388 au      3.521 eV    28397.3 cm**-1 <S**2> =   0.000000
    44a ->  49a  :     0.010498 (c= -0.10245780)
    45a ->  49a  :     0.205810 (c= -0.45366295)
    45a ->  50a  :     0.071337 (c=  0.26708922)
    46a ->  49a  :     0.411593 (c= -0.64155552)
    46a ->  50a  :     0.095066 (c=  0.30832766)
    46a ->  56a  :     0.010237 (c=  0.10117888)
    47a ->  49a  :     0.066709 (c=  0.25828011)

STATE  2:  E=   0.139958 au      3.808 eV    30717.2 cm**-1 <S**2> =   0.000000
    44a ->  50a  :     0.010328 (c=  0.10162466)
    45a ->  49a  :     0.068728 (c= -0.26216083)
    45a ->  50a  :     0.164720 (c= -0.40585659)
    45a ->  62a  :     0.013653 (c= -0.11684485)
    46a ->  49a  :     0.091534 (c=  0.30254647)
    46a ->  50a  :     0.115692 (c=  0.34013493)
    46a ->  62a  :     0.010333 (c=  0.10165037)
    47a ->  49a  :     0.229463 (c=  0.47902275)
    47a ->  50a  :     0.043408 (c=  0.20834492)
    48a ->  49a  :     0.161460 (c=  0.40182061)

STATE  3:  E=   0.147597 au      4.016 eV    32393.7 cm**-1 <S**2> =   0.000000
    45a ->  49a  :     0.111212 (c=  0.33348492)
    45a ->  50a  :     0.085330 (c=  0.29211242)
    45a ->  62a  :     0.010031 (c=  0.10015568)
    46a ->  49a  :     0.013510 (c= -0.11623083)
    46a ->  50a  :     0.125809 (c= -0.35469625)
    47a ->  49a  :     0.283645 (c=  0.53258346)
    48a ->  49a  :     0.101703 (c=  0.31890903)
    48a ->  50a  :     0.183362 (c= -0.42820824)

STATE  4:  E=   0.147011 au      4.000 eV    32265.2 cm**-1 <S**2> =   0.000000
    45a ->  50a  :     0.016520 (c= -0.12853114)
    46a ->  49a  :     0.029186 (c=  0.17083967)
    47a ->  49a  :     0.197926 (c=  0.44488830)
    47a ->  50a  :     0.019350 (c= -0.13910265)
    48a ->  49a  :     0.644568 (c= -0.80284986)
    48a ->  50a  :     0.048362 (c= -0.21991468)

STATE  5:  E=   0.155289 au      4.226 eV    34081.9 cm**-1 <S**2> =   0.000000
    45a ->  49a  :     0.020736 (c=  0.14399910)
    46a ->  50a  :     0.017965 (c= -0.13403507)
    47a ->  49a  :     0.187653 (c=  0.43318886)
    48a ->  50a  :     0.728351 (c=  0.85343488)

STATE  6:  E=   0.175951 au      4.788 eV    38616.7 cm**-1 <S**2> =   0.000000
    47a ->  50a  :     0.878918 (c=  0.93750601)
    48a ->  49a  :     0.045549 (c= -0.21342238)

STATE  7:  E=   0.213537 au      5.811 eV    46865.8 cm**-1 <S**2> =   0.000000
    47a ->  53a  :     0.012362 (c= -0.11118556)
    48a ->  51a  :     0.750786 (c= -0.86647887)
    48a ->  52a  :     0.102816 (c= -0.32064926)
    48a ->  58a  :     0.051130 (c=  0.22611906)

STATE  8:  E=   0.217193 au      5.910 eV    47668.3 cm**-1 <S**2> =   0.000000
    48a ->  53a  :     0.033973 (c= -0.18431880)
    48a ->  54a  :     0.721516 (c=  0.84942094)
    48a ->  55a  :     0.018784 (c=  0.13705493)
    48a ->  56a  :     0.129840 (c=  0.36033249)

STATE  9:  E=   0.223639 au      6.086 eV    49083.1 cm**-1 <S**2> =   0.000000
    47a ->  51a  :     0.444030 (c= -0.66635612)
    47a ->  57a  :     0.023581 (c= -0.15356050)
    47a ->  58a  :     0.018944 (c=  0.13763591)
    48a ->  51a  :     0.010737 (c=  0.10361961)
    48a ->  52a  :     0.211096 (c= -0.45945236)
    48a ->  53a  :     0.181082 (c= -0.42553677)
    48a ->  54a  :     0.011598 (c= -0.10769252)
    48a ->  55a  :     0.023019 (c=  0.15171996)

STATE 10:  E=   0.229360 au      6.241 eV    50338.8 cm**-1 <S**2> =   0.000000
    44a ->  49a  :     0.015748 (c=  0.12549141)
    44a ->  51a  :     0.010407 (c= -0.10201344)
    47a ->  52a  :     0.019073 (c=  0.13810409)
    47a ->  53a  :     0.026758 (c=  0.16357902)
    48a ->  51a  :     0.032157 (c=  0.17932373)
    48a ->  52a  :     0.419355 (c= -0.64757645)
    48a ->  53a  :     0.249969 (c=  0.49996883)
    48a ->  56a  :     0.032866 (c=  0.18129010)
    48a ->  57a  :     0.088009 (c=  0.29666283)
    48a ->  58a  :     0.012866 (c= -0.11342891)


-----------------------------
TD-DFT/TDA-EXCITATION SPECTRA
-----------------------------

Center of mass = ( -0.1335,  0.0863,  0.1512)
Calculating the Dipole integrals                  ... done
Transforming integrals                            ... done
Calculating the Linear Momentum integrals         ... done
Transforming integrals                            ... done
Calculating angular momentum integrals            ... done
Transforming integrals                            ... done

-----------------------------------------------------------------------------
         ABSORPTION SPECTRUM VIA TRANSITION ELECTRIC DIPOLE MOMENTS
-----------------------------------------------------------------------------
State   Energy    Wavelength  fosc         T2        TX        TY        TZ  
        (cm-1)      (nm)                 (au**2)    (au)      (au)      (au) 
-----------------------------------------------------------------------------
   1   28397.3    352.1   0.002682730   0.03110  -0.14465   0.09977  -0.01494
   2   30717.2    325.6   0.057063557   0.61158  -0.02772   0.75015   0.21928
   3   32393.7    308.7   0.060530771   0.61516  -0.11146   0.75702   0.17221
   4   32265.2    309.9   0.322766967   3.29329  -1.23313  -1.33079  -0.04105
   5   34081.9    293.4   0.021038379   0.20322  -0.23941   0.36926   0.09773
   6   38616.7    259.0   1.140505101   9.72294  -1.85685  -2.50398  -0.07148
   7   46865.8    213.4   0.000805764   0.00566  -0.06865   0.00433   0.03048
   8   47668.3    209.8   0.149220583   1.03056   0.95907  -0.24846  -0.22139
   9   49083.1    203.7   0.005638975   0.03782   0.06929   0.05287   0.17386
  10   50338.8    198.7   0.008444212   0.05522   0.17759  -0.14509  -0.05134

-----------------------------------------------------------------------------
         ABSORPTION SPECTRUM VIA TRANSITION VELOCITY DIPOLE MOMENTS
-----------------------------------------------------------------------------
State   Energy    Wavelength   fosc        P2         PX        PY        PZ  
        (cm-1)      (nm)                 (au**2)     (au)      (au)      (au) 
-----------------------------------------------------------------------------
   1   28397.3    352.1   0.004186257   0.00081   0.02166  -0.01536   0.01036
   2   30717.2    325.6   0.036019027   0.00756   0.02946  -0.07612  -0.03000
   3   32393.7    308.7   0.052775756   0.01168   0.05349  -0.09242  -0.01679
   4   32265.2    309.9   0.093103764   0.02053   0.10937   0.09201  -0.01018
   5   34081.9    293.4   0.004022551   0.00094  -0.02921   0.00507   0.00761
   6   38616.7    259.0   0.339127657   0.08950   0.20424   0.21836   0.01053
   7   46865.8    213.4   0.000174861   0.00006   0.00625  -0.00051  -0.00408
   8   47668.3    209.8   0.040553409   0.01321  -0.10887   0.02720   0.02489
   9   49083.1    203.7   0.006192779   0.00208  -0.01613  -0.00195  -0.04258
  10   50338.8    198.7   0.002397139   0.00082  -0.02210   0.01675   0.00747

-------------------------------------------------------------------
                             CD SPECTRUM
-------------------------------------------------------------------
State  Energy     Wavelength     R         MX        MY        MZ   
       (cm-1)       (nm)     (1e40*cgs)   (au)      (au)      (au)  
-------------------------------------------------------------------
   1   28397.3    352.1     32.12815  -0.34886   0.19463   0.11606
   2   30717.2    325.6    -147.57467  -0.28128  -0.27747  -0.51382
   3   32393.7    308.7     25.87241   0.05403   0.25596  -0.77150
   4   32265.2    309.9     84.14158  -0.09266  -0.03754  -0.34744
   5   34081.9    293.4      0.60071   0.07384   0.05846  -0.02696
   6   38616.7    259.0    -16.10711  -0.03992   0.05154  -0.29079
   7   46865.8    213.4     -2.84836   0.11628   0.13774   0.04411
   8   47668.3    209.8     -6.48390   0.04930  -0.03341   0.31321
   9   49083.1    203.7      5.33855  -0.07820   0.12527   0.05821
  10   50338.8    198.7     -2.73134   0.09905   0.17206  -0.03078

-------------------------------------------------------------------
         CD SPECTRUM VIA TRANSITION VELOCITY DIPOLE MOMENTS        
-------------------------------------------------------------------
State  Energy     Wavelength     R         MX        MY        MZ   
       (cm-1)       (nm)     (1e40*cgs)   (au)      (au)      (au)  
-------------------------------------------------------------------
   1   28397.3    352.1    -34.04764  -0.34886   0.19463   0.11606
   2   30717.2    325.6     95.15775  -0.28128  -0.27747  -0.51382
   3   32393.7    308.7    -24.95462   0.05403   0.25596  -0.77150
   4   32265.2    309.9    -32.23226  -0.09266  -0.03754  -0.34744
   5   34081.9    293.4     -6.27313   0.07384   0.05846  -0.02696
   6   38616.7    259.0      0.10705  -0.03992   0.05154  -0.29079
   7   46865.8    213.4      1.05102   0.11628   0.13774   0.04411
   8   47668.3    209.8      3.29488   0.04930  -0.03341   0.31321
   9   49083.1    203.7     -3.08027  -0.07820   0.12527   0.05821
  10   50338.8    198.7      0.95190   0.09905   0.17206  -0.03078

Total run time:     1176.264 sec

           *** ORCA-CIS/TD-DFT FINISHED WITHOUT ERROR ***

Maximum memory used throughout the entire CIS-calculation: 515.0 MB

-----------------------
CIS/TD-DFT TOTAL ENERGY
-----------------------

    E(SCF)  =   -648.545942689 Eh
    DE(CIS) =      0.129387789 Eh (Root  1)
    ----------------------------- ---------
    E(tot)  =   -648.416554901 Eh



-------------------------------------------------------------------------------
                          DFT DISPERSION CORRECTION                            
                                                                               
                              DFTD3 V3.1  Rev 1                                
                          USING Becke-Johnson damping                          
-------------------------------------------------------------------------------
The B2PLYP functional is recognized
Active option DFTDOPT                   ...         4   

molecular C6(AA) [au] = 6104.607811 


            DFT-D V3
 parameters
 s6 scaling factor         :     0.6400 
 a1 scaling factor         :     0.3065 
 s8 scaling factor         :     0.9147 
 a2 scaling factor         :     5.0570 
 ad hoc parameters k1-k3   :    16.0000     1.3333    -4.0000 

 Edisp/kcal,au: -13.377506902093  -0.021318411957 
 E6   /kcal   :  -7.450420730 
 E8   /kcal   :  -5.927086172 
 % E8         :  44.306358540 

-------------------------   ----------------
Dispersion correction           -0.021318412
-------------------------   ----------------


-------------------------   --------------------
FINAL SINGLE POINT ENERGY      -648.437873312769
-------------------------   --------------------


                            ***************************************
                            *     ORCA property calculations      *
                            ***************************************


  WARNING: The energy has been calculated at the MP2 level but the densities
           used in the property calculations are still SCF densities
           MP2 response densities have not been calculated 
           use %mp2 Density relaxed end
           or  %mp2 Density unrelaxed end

                                    ---------------------
                                    Active property flags
                                    ---------------------
   (+) Dipole Moment


------------------------------------------------------------------------------
                       ORCA ELECTRIC PROPERTIES CALCULATION
------------------------------------------------------------------------------

Dipole Moment Calculation                       ... on
Quadrupole Moment Calculation                   ... off
Polarizability Calculation                      ... off
GBWName                                         ... optpbed3-b2plyp-test-359_job2.gbw
Electron density                                ... optpbed3-b2plyp-test-359_job2.scfp
The origin for moment calculation is the CENTER OF MASS  = (-0.133509,  0.086341  0.151173)

-------------
DIPOLE MOMENT
-------------
                                X             Y             Z
Electronic contribution:     -2.20263      -2.08247       0.76524
Nuclear contribution   :      1.65266      -0.48585      -1.52862
                        -----------------------------------------
Total Dipole Moment    :     -0.54997      -2.56833      -0.76338
                        -----------------------------------------
Magnitude (a.u.)       :      2.73524
Magnitude (Debye)      :      6.95242



--------------------
Rotational spectrum 
--------------------
 
Rotational constants in cm-1:     0.028815     0.019930     0.012068 
Rotational constants in MHz :   863.847517   597.485838   361.792409 

 Dipole components along the rotational axes: 
x,y,z [a.u.] :    -2.354301    -1.358293    -0.306309 
x,y,z [Debye]:    -5.984158    -3.452506    -0.778575 

 

Timings for individual modules:

Sum of individual times         ...     1848.623 sec (=  30.810 min)
GTO integral calculation        ...        2.905 sec (=   0.048 min)   0.2 %
SCF iterations                  ...      439.192 sec (=   7.320 min)  23.8 %
MP2 module                      ...      229.621 sec (=   3.827 min)  12.4 %
CIS module                      ...     1176.905 sec (=  19.615 min)  63.7 %



                             ****ORCA TERMINATED NORMALLY****
TOTAL RUN TIME: 0 days 2 hours 39 minutes 55 seconds 44 msec
