
                                 *****************
                                 * O   R   C   A *
                                 *****************

                                            #,                                       
                                            ###                                      
                                            ####                                     
                                            #####                                    
                                            ######                                   
                                           ########,                                 
                                     ,,################,,,,,                         
                               ,,#################################,,                 
                          ,,##########################################,,             
                       ,#########################################, ''#####,          
                    ,#############################################,,   '####,        
                  ,##################################################,,,,####,       
                ,###########''''           ''''###############################       
              ,#####''   ,,,,##########,,,,          '''####'''          '####       
            ,##' ,,,,###########################,,,                        '##       
           ' ,,###''''                  '''############,,,                           
         ,,##''                                '''############,,,,        ,,,,,,###''
      ,#''                                            '''#######################'''  
     '                                                          ''''####''''         
             ,#######,   #######,   ,#######,      ##                                
            ,#'     '#,  ##    ##  ,#'     '#,    #''#        ######   ,####,        
            ##       ##  ##   ,#'  ##            #'  '#       #        #'  '#        
            ##       ##  #######   ##           ,######,      #####,   #    #        
            '#,     ,#'  ##    ##  '#,     ,#' ,#      #,         ##   #,  ,#        
             '#######'   ##     ##  '#######'  #'      '#     #####' # '####'        



                  #######################################################
                  #                        -***-                        #
                  #          Department of theory and spectroscopy      #
                  #    Directorship and core code : Frank Neese         #
                  #        Max Planck Institute fuer Kohlenforschung    #
                  #                Kaiser Wilhelm Platz 1               #
                  #                 D-45470 Muelheim/Ruhr               #
                  #                      Germany                        #
                  #                                                     #
                  #                  All rights reserved                #
                  #                        -***-                        #
                  #######################################################


                         Program Version 5.0.2 -  RELEASE  -


 With contributions from (in alphabetic order):
   Daniel Aravena         : Magnetic Suceptibility
   Michael Atanasov       : Ab Initio Ligand Field Theory (pilot matlab implementation)
   Alexander A. Auer      : GIAO ZORA, VPT2 properties, NMR spectrum
   Ute Becker             : Parallelization
   Giovanni Bistoni       : ED, misc. LED, open-shell LED, HFLD
   Martin Brehm           : Molecular dynamics
   Dmytro Bykov           : SCF Hessian
   Vijay G. Chilkuri      : MRCI spin determinant printing, contributions to CSF-ICE
   Dipayan Datta          : RHF DLPNO-CCSD density
   Achintya Kumar Dutta   : EOM-CC, STEOM-CC
   Dmitry Ganyushin       : Spin-Orbit,Spin-Spin,Magnetic field MRCI
   Miquel Garcia          : C-PCM and meta-GGA Hessian, CC/C-PCM, Gaussian charge scheme
   Yang Guo               : DLPNO-NEVPT2, F12-NEVPT2, CIM, IAO-localization
   Andreas Hansen         : Spin unrestricted coupled pair/coupled cluster methods
   Benjamin Helmich-Paris : MC-RPA, TRAH-SCF, COSX integrals
   Lee Huntington         : MR-EOM, pCC
   Robert Izsak           : Overlap fitted RIJCOSX, COSX-SCS-MP3, EOM
   Marcus Kettner         : VPT2
   Christian Kollmar      : KDIIS, OOCD, Brueckner-CCSD(T), CCSD density, CASPT2, CASPT2-K
   Simone Kossmann        : Meta GGA functionals, TD-DFT gradient, OOMP2, MP2 Hessian
   Martin Krupicka        : Initial AUTO-CI
   Lucas Lang             : DCDCAS
   Marvin Lechner         : AUTO-CI (C++ implementation), FIC-MRCC
   Dagmar Lenk            : GEPOL surface, SMD
   Dimitrios Liakos       : Extrapolation schemes; Compound Job, initial MDCI parallelization
   Dimitrios Manganas     : Further ROCIS development; embedding schemes
   Dimitrios Pantazis     : SARC Basis sets
   Anastasios Papadopoulos: AUTO-CI, single reference methods and gradients
   Taras Petrenko         : DFT Hessian,TD-DFT gradient, ASA, ECA, R-Raman, ABS, FL, XAS/XES, NRVS
   Peter Pinski           : DLPNO-MP2, DLPNO-MP2 Gradient
   Christoph Reimann      : Effective Core Potentials
   Marius Retegan         : Local ZFS, SOC
   Christoph Riplinger    : Optimizer, TS searches, QM/MM, DLPNO-CCSD(T), (RO)-DLPNO pert. Triples
   Tobias Risthaus        : Range-separated hybrids, TD-DFT gradient, RPA, STAB
   Michael Roemelt        : Original ROCIS implementation
   Masaaki Saitow         : Open-shell DLPNO-CCSD energy and density
   Barbara Sandhoefer     : DKH picture change effects
   Avijit Sen             : IP-ROCIS
   Kantharuban Sivalingam : CASSCF convergence, NEVPT2, FIC-MRCI
   Bernardo de Souza      : ESD, SOC TD-DFT
   Georgi Stoychev        : AutoAux, RI-MP2 NMR, DLPNO-MP2 response
   Willem Van den Heuvel  : Paramagnetic NMR
   Boris Wezisla          : Elementary symmetry handling
   Frank Wennmohs         : Technical directorship


 We gratefully acknowledge several colleagues who have allowed us to
 interface, adapt or use parts of their codes:
   Stefan Grimme, W. Hujo, H. Kruse, P. Pracht,  : VdW corrections, initial TS optimization,
                  C. Bannwarth, S. Ehlert          DFT functionals, gCP, sTDA/sTD-DF
   Ed Valeev, F. Pavosevic, A. Kumar             : LibInt (2-el integral package), F12 methods
   Garnet Chan, S. Sharma, J. Yang, R. Olivares  : DMRG
   Ulf Ekstrom                                   : XCFun DFT Library
   Mihaly Kallay                                 : mrcc  (arbitrary order and MRCC methods)
   Jiri Pittner, Ondrej Demel                    : Mk-CCSD
   Frank Weinhold                                : gennbo (NPA and NBO analysis)
   Christopher J. Cramer and Donald G. Truhlar   : smd solvation model
   Lars Goerigk                                  : TD-DFT with DH, B97 family of functionals
   V. Asgeirsson, H. Jonsson                     : NEB implementation
   FAccTs GmbH                                   : IRC, NEB, NEB-TS, DLPNO-Multilevel, CI-OPT
                                                   MM, QMMM, 2- and 3-layer-ONIOM, Crystal-QMMM,
                                                   LR-CPCM, SF, NACMEs, symmetry and pop. for TD-DFT,
                                                   nearIR, NL-DFT gradient (VV10), updates on ESD,
                                                   ML-optimized integration grids
   S Lehtola, MJT Oliveira, MAL Marques          : LibXC Library
   Liviu Ungur et al                             : ANISO software


 Your calculation uses the libint2 library for the computation of 2-el integrals
 For citations please refer to: http://libint.valeyev.net

 Your ORCA version has been built with support for libXC version: 5.1.0
 For citations please refer to: https://tddft.org/programs/libxc/

 This ORCA versions uses:
   CBLAS   interface :  Fast vector & matrix operations
   LAPACKE interface :  Fast linear algebra routines
   SCALAPACK package :  Parallel linear algebra routines
   Shared memory     :  Shared parallel matrices
   BLAS/LAPACK       :  OpenBLAS 0.3.15  USE64BITINT DYNAMIC_ARCH NO_AFFINITY Haswell SINGLE_THREADED
        Core in use  :  Haswell
   Copyright (c) 2011-2014, The OpenBLAS Project


Your calculation utilizes the atom-pairwise dispersion correction
with the Becke-Johnson damping scheme (D3BJ)
Cite in your paper:
S.Grimme, S.Ehrlich, L.Goerigk, J Comput Chem, (2011), 32, 1456–1465 
S.Grimme, J.Antony, S.Ehrlich and H.Krieg, J.Chem.Phys., 132, (2010), 154104 
   

Your calculation utilizes the SMD solvation module
Please cite in your paper:
A.V. Marenich, C.J. Cramer, D.G. Truhlar J. Phys. Chem. B, 113, (2009), 6378 

================================================================================

----- Orbital basis set information -----
Your calculation utilizes the basis: aug-cc-pVTZ 
    H, B-Ne : Obtained from the ccRepo (grant-hill.group.shef.ac.uk/ccrepo) Feb. 2017
              R. A. Kendall, T. H. Dunning, Jr., R. J. Harrison, J. Chem. Phys. 96, 6796 (1992)
         He : Obtained from the ccRepo (grant-hill.group.shef.ac.uk/ccrepo) Feb. 2017
              D. E. Woon, T. H. Dunning, Jr., J. Chem. Phys. 100, 2975 (1994)
  Li-Be, Na : Obtained from the ccRepo (grant-hill.group.shef.ac.uk/ccrepo) Feb. 2017
              B. P. Prascher, D. E. Woon, K. A. Peterson, T. H. Dunning, Jr., A. K. Wilson, Theor. Chem. Acc. 128, 69 (2011)
         Mg : Obtained from the Peterson Research Group Website (tyr0.chem.wsu.edu/~kipeters) Feb. 2017
              B. P. Prascher, D. E. Woon, K. A. Peterson, T. H. Dunning, Jr., A. K. Wilson, Theor. Chem. Acc. 128, 69 (2011)
      Al-Ar : Obtained from the ccRepo (grant-hill.group.shef.ac.uk/ccrepo) Feb. 2017
              D. E. Woon, T. H. Dunning, Jr., J. Chem. Phys. 98, 1358 (1993)
      Sc-Zn : Obtained from the ccRepo (grant-hill.group.shef.ac.uk/ccrepo) Feb. 2017
              N. B. Balabanov, K. A. Peterson, J. Chem. Phys. 123, 064107 (2005)
              N. B. Balabanov, K. A. Peterson, J. Chem. Phys. 125, 074110 (2006)
      Ga-Kr : Obtained from the ccRepo (grant-hill.group.shef.ac.uk/ccrepo) Feb. 2017
              A. K. Wilson, D. E. Woon, K. A. Peterson, T. H. Dunning, Jr., J. Chem. Phys. 110, 7667 (1999)
     Ag, Au : Obtained from the Peterson Research Group Website (tyr0.chem.wsu.edu/~kipeters) Feb. 2017
              K. A. Peterson, C. Puzzarini, Theor. Chem. Acc. 114, 283 (2005)

The basis set includes element-specific modifications.

Your calculation utilizes the basis: cc-pVTZ 
       H, B-Ne : Obtained from the ccRepo (grant-hill.group.shef.ac.uk/ccrepo) Feb. 2017
                 T. H. Dunning, Jr., J. Chem. Phys. 90, 1007 (1989)
            He : Obtained from the ccRepo (grant-hill.group.shef.ac.uk/ccrepo) Feb. 2017
                 D. E. Woon, T. H. Dunning, Jr., J. Chem. Phys. 100, 2975 (1994)
  Li-Be, Na-Mg : Obtained from the ccRepo (grant-hill.group.shef.ac.uk/ccrepo) Feb. 2017
                 B. P. Prascher, D. E. Woon, K. A. Peterson, T. H. Dunning, Jr., A. K. Wilson, Theor. Chem. Acc. 128, 69 (2011)
         Al-Ar : Obtained from the ccRepo (grant-hill.group.shef.ac.uk/ccrepo) Feb. 2017
                 D. E. Woon, T. H. Dunning, Jr., J. Chem. Phys. 98, 1358 (1993)
            Ca : Obtained from the Peterson Research Group Website (tyr0.chem.wsu.edu/~kipeters) Feb. 2017
                 J. Koput, K. A. Peterson, J. Phys. Chem. 106, 9595 (2002)
         Sc-Zn : Obtained from the ccRepo (grant-hill.group.shef.ac.uk/ccrepo) Feb. 2017
                 N. B. Balabanov, K. A. Peterson, J. Chem. Phys. 123, 064107 (2005)
                 N. B. Balabanov, K. A. Peterson, J. Chem. Phys. 125, 074110 (2006)
         Ga-Kr : Obtained from the ccRepo (grant-hill.group.shef.ac.uk/ccrepo) Feb. 2017
                 A. K. Wilson, D. E. Woon, K. A. Peterson, T. H. Dunning, Jr., J. Chem. Phys. 110, 7667 (1999)
             Y : Obtained from the ccRepo (grant-hill.group.shef.ac.uk/ccrepo) Feb. 2017
                 K. A. Peterson, D. Figgen, M. Dolg, H. Stoll, J. Chem. Phys. 126, 124101 (2007)
        Ag, Au : Obtained from the Peterson Research Group Website (tyr0.chem.wsu.edu/~kipeters) Feb. 2017
                 K. A. Peterson, C. Puzzarini, Theor. Chem. Acc. 114, 283 (2005)

----- AuxJ basis set information -----
Your calculation utilizes the auxiliary basis: aug-cc-pVTZ/JK 
  H, B-F, Al-Cl, Ga-Br : Obtained from the TURBOMOLE 7.0 basis set library

The basis set includes element-specific modifications.

Your calculation utilizes the auxiliary basis: cc-pVTZ/JK 
  H, B-F, Al-Cl, Ga-Br : Obtained from the TURBOMOLE 7.0 basis set library

----- AuxC basis set information -----
Your calculation utilizes the auxiliary basis: aug-cc-pVTZ/C 
  H-He, B-F, Al-Ar, Ga-Kr : Obtained from the EMSL Basis Set Exchange (bse.pnl.gov) Feb. 2017
                            F. Weigend, A. Kohn, C. Hattig, J. Chem. Phys. 116, 3175 (2002)
                   Be, Mg : Obtained from the TURBOMOLE 7.0 basis set library
                            C. Haettig, Phys. Chem. Chem. Phys. 7, 59 (2005)
                       Ne : Obtained from the EMSL Basis Set Exchange (bse.pnl.gov) Feb. 2017
                            C. Haettig, Phys. Chem. Chem. Phys. 7, 59 (2005)
                            F. Weigend, A. Kohn, C. Hattig, J. Chem. Phys. 116, 3175 (2002)
                    Sc-Zn : Obtained from the EMSL Basis Set Exchange (bse.pnl.gov) Feb. 2017
                            J. G. Hill, J. A. Platts, J. Chem. Phys. 128, 044104 (2008)

The basis set includes element-specific modifications.

Your calculation utilizes the auxiliary basis: cc-pVTZ/C 
  Obtained from the EMSL Basis Set Exchange (bse.pnl.gov) Feb. 2017
  H-He, B-F, Al-Ar, Ga-Kr : F. Weigend, A. Kohn, C. Hattig, J. Chem. Phys. 116, 3175 (2002)
             Li-Be, Na-Mg : C. Haettig, Phys. Chem. Chem. Phys. 7, 59 (2005)
                       Ne : C. Haettig, Phys. Chem. Chem. Phys. 7, 59 (2005)
                            F. Weigend, A. Kohn, C. Hattig, J. Chem. Phys. 116, 3175 (2002)
                    Sc-Zn : J. G. Hill, J. A. Platts, J. Chem. Phys. 128, 044104 (2008)

================================================================================
                                        WARNINGS
                       Please study these warnings very carefully!
================================================================================


WARNING: Geometry Optimization
  ===> : Switching off AutoStart
         For restart on a previous wavefunction, please use MOREAD

INFO   : the flag for use of the SHARK integral package has been found!



***************************************
The coordinates will be read from file: 
***************************************


Your calculation utilizes the atom-pairwise dispersion correction
with the Becke-Johnson damping scheme (D3BJ)
Cite in your paper:
S.Grimme, S.Ehrlich, L.Goerigk, J Comput Chem, (2011), 32, 1456–1465 
S.Grimme, J.Antony, S.Ehrlich and H.Krieg, J.Chem.Phys., 132, (2010), 154104 
   

Your calculation utilizes the SMD solvation module
Please cite in your paper:
A.V. Marenich, C.J. Cramer, D.G. Truhlar J. Phys. Chem. B, 113, (2009), 6378 

================================================================================

----- Orbital basis set information -----
Your calculation utilizes the basis: aug-cc-pVTZ 
    H, B-Ne : Obtained from the ccRepo (grant-hill.group.shef.ac.uk/ccrepo) Feb. 2017
              R. A. Kendall, T. H. Dunning, Jr., R. J. Harrison, J. Chem. Phys. 96, 6796 (1992)
         He : Obtained from the ccRepo (grant-hill.group.shef.ac.uk/ccrepo) Feb. 2017
              D. E. Woon, T. H. Dunning, Jr., J. Chem. Phys. 100, 2975 (1994)
  Li-Be, Na : Obtained from the ccRepo (grant-hill.group.shef.ac.uk/ccrepo) Feb. 2017
              B. P. Prascher, D. E. Woon, K. A. Peterson, T. H. Dunning, Jr., A. K. Wilson, Theor. Chem. Acc. 128, 69 (2011)
         Mg : Obtained from the Peterson Research Group Website (tyr0.chem.wsu.edu/~kipeters) Feb. 2017
              B. P. Prascher, D. E. Woon, K. A. Peterson, T. H. Dunning, Jr., A. K. Wilson, Theor. Chem. Acc. 128, 69 (2011)
      Al-Ar : Obtained from the ccRepo (grant-hill.group.shef.ac.uk/ccrepo) Feb. 2017
              D. E. Woon, T. H. Dunning, Jr., J. Chem. Phys. 98, 1358 (1993)
      Sc-Zn : Obtained from the ccRepo (grant-hill.group.shef.ac.uk/ccrepo) Feb. 2017
              N. B. Balabanov, K. A. Peterson, J. Chem. Phys. 123, 064107 (2005)
              N. B. Balabanov, K. A. Peterson, J. Chem. Phys. 125, 074110 (2006)
      Ga-Kr : Obtained from the ccRepo (grant-hill.group.shef.ac.uk/ccrepo) Feb. 2017
              A. K. Wilson, D. E. Woon, K. A. Peterson, T. H. Dunning, Jr., J. Chem. Phys. 110, 7667 (1999)
     Ag, Au : Obtained from the Peterson Research Group Website (tyr0.chem.wsu.edu/~kipeters) Feb. 2017
              K. A. Peterson, C. Puzzarini, Theor. Chem. Acc. 114, 283 (2005)

The basis set includes element-specific modifications.

Your calculation utilizes the basis: cc-pVTZ 
       H, B-Ne : Obtained from the ccRepo (grant-hill.group.shef.ac.uk/ccrepo) Feb. 2017
                 T. H. Dunning, Jr., J. Chem. Phys. 90, 1007 (1989)
            He : Obtained from the ccRepo (grant-hill.group.shef.ac.uk/ccrepo) Feb. 2017
                 D. E. Woon, T. H. Dunning, Jr., J. Chem. Phys. 100, 2975 (1994)
  Li-Be, Na-Mg : Obtained from the ccRepo (grant-hill.group.shef.ac.uk/ccrepo) Feb. 2017
                 B. P. Prascher, D. E. Woon, K. A. Peterson, T. H. Dunning, Jr., A. K. Wilson, Theor. Chem. Acc. 128, 69 (2011)
         Al-Ar : Obtained from the ccRepo (grant-hill.group.shef.ac.uk/ccrepo) Feb. 2017
                 D. E. Woon, T. H. Dunning, Jr., J. Chem. Phys. 98, 1358 (1993)
            Ca : Obtained from the Peterson Research Group Website (tyr0.chem.wsu.edu/~kipeters) Feb. 2017
                 J. Koput, K. A. Peterson, J. Phys. Chem. 106, 9595 (2002)
         Sc-Zn : Obtained from the ccRepo (grant-hill.group.shef.ac.uk/ccrepo) Feb. 2017
                 N. B. Balabanov, K. A. Peterson, J. Chem. Phys. 123, 064107 (2005)
                 N. B. Balabanov, K. A. Peterson, J. Chem. Phys. 125, 074110 (2006)
         Ga-Kr : Obtained from the ccRepo (grant-hill.group.shef.ac.uk/ccrepo) Feb. 2017
                 A. K. Wilson, D. E. Woon, K. A. Peterson, T. H. Dunning, Jr., J. Chem. Phys. 110, 7667 (1999)
             Y : Obtained from the ccRepo (grant-hill.group.shef.ac.uk/ccrepo) Feb. 2017
                 K. A. Peterson, D. Figgen, M. Dolg, H. Stoll, J. Chem. Phys. 126, 124101 (2007)
        Ag, Au : Obtained from the Peterson Research Group Website (tyr0.chem.wsu.edu/~kipeters) Feb. 2017
                 K. A. Peterson, C. Puzzarini, Theor. Chem. Acc. 114, 283 (2005)

----- AuxJ basis set information -----
Your calculation utilizes the auxiliary basis: aug-cc-pVTZ/JK 
  H, B-F, Al-Cl, Ga-Br : Obtained from the TURBOMOLE 7.0 basis set library

The basis set includes element-specific modifications.

Your calculation utilizes the auxiliary basis: cc-pVTZ/JK 
  H, B-F, Al-Cl, Ga-Br : Obtained from the TURBOMOLE 7.0 basis set library

----- AuxC basis set information -----
Your calculation utilizes the auxiliary basis: aug-cc-pVTZ/C 
  H-He, B-F, Al-Ar, Ga-Kr : Obtained from the EMSL Basis Set Exchange (bse.pnl.gov) Feb. 2017
                            F. Weigend, A. Kohn, C. Hattig, J. Chem. Phys. 116, 3175 (2002)
                   Be, Mg : Obtained from the TURBOMOLE 7.0 basis set library
                            C. Haettig, Phys. Chem. Chem. Phys. 7, 59 (2005)
                       Ne : Obtained from the EMSL Basis Set Exchange (bse.pnl.gov) Feb. 2017
                            C. Haettig, Phys. Chem. Chem. Phys. 7, 59 (2005)
                            F. Weigend, A. Kohn, C. Hattig, J. Chem. Phys. 116, 3175 (2002)
                    Sc-Zn : Obtained from the EMSL Basis Set Exchange (bse.pnl.gov) Feb. 2017
                            J. G. Hill, J. A. Platts, J. Chem. Phys. 128, 044104 (2008)

The basis set includes element-specific modifications.

Your calculation utilizes the auxiliary basis: cc-pVTZ/C 
  Obtained from the EMSL Basis Set Exchange (bse.pnl.gov) Feb. 2017
  H-He, B-F, Al-Ar, Ga-Kr : F. Weigend, A. Kohn, C. Hattig, J. Chem. Phys. 116, 3175 (2002)
             Li-Be, Na-Mg : C. Haettig, Phys. Chem. Chem. Phys. 7, 59 (2005)
                       Ne : C. Haettig, Phys. Chem. Chem. Phys. 7, 59 (2005)
                            F. Weigend, A. Kohn, C. Hattig, J. Chem. Phys. 116, 3175 (2002)
                    Sc-Zn : J. G. Hill, J. A. Platts, J. Chem. Phys. 128, 044104 (2008)

================================================================================
                                        WARNINGS
                       Please study these warnings very carefully!
================================================================================

INFO   : Checking CIS options ...
  ===> : (D) CORRECTION FOUND - SETTING MODE=3
  ===> : JK MODE FOUND - ACTIVATING RI-MP2 CODE
  ===> : MP2 AND CIS FOUND - CHECKING
WARNING: CIS(D) and MP2 runs must have the same orbital window
  ===> : adjusting orbital windows

WARNING: No MP2 level density has been requested!
         To caclulate MP2 level properties use
         %mp2 Density relaxed end
         or
         %mp2 Density unrelaxed end
         Otherwise for double-hybrid DFT only the energy is correct!

WARNING: The frozen-core approximation is turned on by default for 
         the MP2 part of double-hybrid DFT.

INFO   : the flag for use of the SHARK integral package has been found!

================================================================================
                                       INPUT FILE
================================================================================
NAME = optpbed3-b2plyp-test-572.inp
|  1> ! pbe0 d3bj aug-cc-PVTZ RIJCOSX Opt
|  2> %maxcore 4000
|  3> %basis
|  4>  AuxJ "aug-cc-PVTZ/JK"
|  5>  AuxC "aug-cc-PVTZ/C"
|  6>  newGTO H "cc-PVTZ" end
|  7>  newAuxJGTO H "cc-PVTZ/JK" end
|  8>  newAuxCGTO H "cc-PVTZ/C" end
|  9> end
| 10> %cpcm
| 11>  SMD true
| 12>  SMDsolvent "ethyl ethanoate"
| 13> end
| 14> %pal nprocs 4 end
| 15> * xyz 0 1
| 16> C         -7.87220       -0.08940       -0.34830
| 17> C         -6.69530        0.77130        0.09630
| 18> N         -5.55330       -0.04670        0.46510
| 19> C         -4.65500        0.63610        1.37970
| 20> C         -3.31670       -0.08860        1.46470
| 21> N         -2.63950       -0.01170        0.18740
| 22> C         -1.28580       -0.04200        0.07770
| 23> C         -0.64020        0.34390       -1.11430
| 24> C          0.72570        0.31330       -1.22150
| 25> C          1.52560       -0.10340       -0.14690
| 26> N          2.87650       -0.08790       -0.34450
| 27> N          3.61090       -0.53370        0.59330
| 28> C          4.96600       -0.38990        0.50620
| 29> C          5.77500       -1.36690        1.10410
| 30> C          7.14000       -1.20300        1.16020
| 31> C          7.72030       -0.05030        0.63770
| 32> C          9.19850        0.16980        0.71680
| 33> F          9.72600        0.57470       -0.45520
| 34> F          9.88650       -0.92320        1.07960
| 35> F          9.52810        1.12910        1.61050
| 36> C          6.92920        0.93660        0.05510
| 37> C          5.56590        0.76770       -0.01620
| 38> C          0.88770       -0.48870        1.04620
| 39> C         -0.47600       -0.45910        1.15520
| 40> C         -3.51080        0.07960       -0.96360
| 41> C         -4.83340       -0.63020       -0.65630
| 42> H         -8.10670       -0.81430        0.42580
| 43> H         -7.64950       -0.62770       -1.26560
| 44> H         -8.74290        0.53750       -0.52150
| 45> H         -6.44320        1.50250       -0.69170
| 46> H         -6.99200        1.33210        0.98600
| 47> H         -4.46980        1.68230        1.07810
| 48> H         -5.12180        0.65120        2.36950
| 49> H         -2.70470        0.39860        2.22730
| 50> H         -3.48790       -1.13130        1.76320
| 51> H         -1.22100        0.69510       -1.95210
| 52> H          1.21280        0.61880       -2.13470
| 53> H          5.30980       -2.25630        1.49970
| 54> H          7.76310       -1.96070        1.61020
| 55> H          7.39440        1.82480       -0.34650
| 56> H          4.93180        1.52070       -0.45870
| 57> H          1.50150       -0.81950        1.87060
| 58> H         -0.93330       -0.78780        2.07510
| 59> H         -3.70390        1.12870       -1.23100
| 60> H         -3.04020       -0.41240       -1.81780
| 61> H         -4.61890       -1.67990       -0.42320
| 62> H         -5.46130       -0.60960       -1.54760
| 63> *
| 64> 
| 65> 
| 66> $new_job
| 67> ! b2plyp aug-cc-PVTZ RIJCOSX SP
| 68> %maxcore 4000
| 69> %basis
| 70>  AuxJ "aug-cc-PVTZ/JK"
| 71>  AuxC "aug-cc-PVTZ/C"
| 72>  newGTO H "cc-PVTZ" end
| 73>  newAuxJGTO H "cc-PVTZ/JK" end
| 74>  newAuxCGTO H "cc-PVTZ/C" end
| 75> end
| 76> %cpcm
| 77>  SMD true
| 78>  SMDsolvent "ethyl ethanoate"
| 79> end
| 80> %pal nprocs 4 end
| 81> %tddft
| 82>  nroots 10
| 83>  maxdim 7
| 84> end
| 85> * xyzfile 0 1
| 86> 
| 87>                          ****END OF INPUT****
================================================================================


                 $$$$$$$$$$$$$$$$$$$$$$$$$$$$$$$$$$$$$$$$$$$$$$ 
                 $ THERE ARE  2 JOBS TO BE PROCESSED THIS RUN $
                 $$$$$$$$$$$$$$$$$$$$$$$$$$$$$$$$$$$$$$$$$$$$$$ 




                 $$$$$$$$$$$$$$$$  JOB NUMBER  1 $$$$$$$$$$$$$$


                       *****************************
                       * Geometry Optimization Run *
                       *****************************

Geometry optimization settings:
Update method            Update   .... BFGS
Choice of coordinates    CoordSys .... Z-matrix Internals
Initial Hessian          InHess   .... Almoef's Model

Convergence Tolerances:
Energy Change            TolE     ....  5.0000e-06 Eh
Max. Gradient            TolMAXG  ....  3.0000e-04 Eh/bohr
RMS Gradient             TolRMSG  ....  1.0000e-04 Eh/bohr
Max. Displacement        TolMAXD  ....  4.0000e-03 bohr
RMS Displacement         TolRMSD  ....  2.0000e-03 bohr
Strict Convergence                ....  False
------------------------------------------------------------------------------
                        ORCA OPTIMIZATION COORDINATE SETUP
------------------------------------------------------------------------------

The optimization will be done in new redundant internal coordinates
Making redundant internal coordinates   ...  (new redundants) done
Evaluating the initial hessian          ...  (Almloef) done
Evaluating the coordinates              ...  done
Calculating the B-matrix                .... done
Calculating the G-matrix                .... done
Diagonalizing the G-matrix              .... done
Small eigenvalue found = 9.779e-04
Small eigenvalue found = 2.408e-03
Small eigenvalue found = 7.454e-03
Small eigenvalue found = 8.227e-03
Small eigenvalue found = 1.096e-02
Small eigenvalue found = 1.820e-02
The first mode is                       ....  120
The number of degrees of freedom        ....  135

    -----------------------------------------------------------------
                    Redundant Internal Coordinates


    -----------------------------------------------------------------
         Definition                    Initial Value    Approx d2E/dq
    -----------------------------------------------------------------
      1. B(C   1,C   0)                  1.5243         0.381444   
      2. B(N   2,C   1)                  1.4523         0.445052   
      3. B(C   3,N   2)                  1.4525         0.444855   
      4. B(C   4,C   3)                  1.5243         0.381493   
      5. B(N   5,C   4)                  1.4478         0.452609   
      6. B(C   6,N   5)                  1.3585         0.628305   
      7. B(C   7,C   6)                  1.4095         0.581686   
      8. B(C   8,C   7)                  1.3704         0.671340   
      9. B(C   9,C   8)                  1.4029         0.595788   
     10. B(N  10,C   9)                  1.3654         0.612607   
     11. B(N  11,N  10)                  1.2718         0.773653   
     12. B(C  12,N  11)                  1.3655         0.612323   
     13. B(C  13,C  12)                  1.4023         0.597155   
     14. B(C  14,C  13)                  1.3759         0.657894   
     15. B(C  15,C  14)                  1.3923         0.619562   
     16. B(C  16,C  15)                  1.4966         0.422361   
     17. B(F  17,C  16)                  1.3475         0.607794   
     18. B(F  18,C  16)                  1.3415         0.621368   
     19. B(F  19,C  16)                  1.3519         0.598105   
     20. B(C  20,C  15)                  1.3926         0.618940   
     21. B(C  21,C  20)                  1.3756         0.658806   
     22. B(C  21,C  12)                  1.4046         0.592232   
     23. B(C  22,C   9)                  1.4067         0.587575   
     24. B(C  23,C  22)                  1.3684         0.676470   
     25. B(C  23,C   6)                  1.4109         0.578533   
     26. B(C  24,N   5)                  1.4465         0.454744   
     27. B(C  25,C  24)                  1.5322         0.370620   
     28. B(C  25,N   2)                  1.4547         0.441152   
     29. B(H  26,C   0)                  1.0861         0.365242   
     30. B(H  27,C   0)                  1.0866         0.364563   
     31. B(H  28,C   0)                  1.0868         0.364367   
     32. B(H  29,C   1)                  1.1042         0.341857   
     33. B(H  30,C   1)                  1.0927         0.356486   
     34. B(H  31,C   3)                  1.1044         0.341491   
     35. B(H  32,C   3)                  1.0945         0.354253   
     36. B(H  33,C   4)                  1.0925         0.356862   
     37. B(H  34,C   4)                  1.0980         0.349653   
     38. B(H  35,C   7)                  1.0782         0.376012   
     39. B(H  36,C   8)                  1.0791         0.374765   
     40. B(H  37,C  13)                  1.0789         0.375140   
     41. B(H  38,C  14)                  1.0793         0.374553   
     42. B(H  39,C  20)                  1.0801         0.373452   
     43. B(H  40,C  21)                  1.0793         0.374531   
     44. B(H  41,C  22)                  1.0797         0.373947   
     45. B(H  42,C  23)                  1.0786         0.375498   
     46. B(H  43,C  24)                  1.0997         0.347459   
     47. B(H  44,C  24)                  1.0923         0.357030   
     48. B(H  45,C  25)                  1.0965         0.351660   
     49. B(H  46,C  25)                  1.0905         0.359495   
     50. A(C   1,C   0,H  26)          109.6131         0.326192   
     51. A(H  26,C   0,H  28)          109.0016         0.292029   
     52. A(H  26,C   0,H  27)          108.3768         0.292054   
     53. A(C   1,C   0,H  27)          111.5735         0.326092   
     54. A(H  27,C   0,H  28)          108.3857         0.291943   
     55. A(C   1,C   0,H  28)          109.8366         0.326063   
     56. A(C   0,C   1,H  29)          110.0017         0.322666   
     57. A(N   2,C   1,H  29)          112.0045         0.328976   
     58. A(N   2,C   1,H  30)          107.2054         0.331262   
     59. A(H  29,C   1,H  30)          107.6497         0.288023   
     60. A(C   0,C   1,H  30)          108.5189         0.324893   
     61. A(C   0,C   1,N   2)          111.2932         0.373431   
     62. A(C   1,N   2,C   3)          112.4227         0.381082   
     63. A(C   1,N   2,C  25)          114.7894         0.380530   
     64. A(C   3,N   2,C  25)          111.5863         0.380501   
     65. A(N   2,C   3,H  31)          112.1517         0.328893   
     66. A(H  31,C   3,H  32)          107.7833         0.287692   
     67. A(N   2,C   3,C   4)          110.7699         0.373411   
     68. A(C   4,C   3,H  31)          108.5640         0.322616   
     69. A(N   2,C   3,H  32)          108.1905         0.330894   
     70. A(C   4,C   3,H  32)          109.3051         0.324564   
     71. A(N   5,C   4,H  34)          111.2980         0.331124   
     72. A(C   3,C   4,H  34)          109.2536         0.323868   
     73. A(N   5,C   4,H  33)          109.2773         0.332245   
     74. A(H  33,C   4,H  34)          108.7280         0.289089   
     75. A(C   3,C   4,N   5)          109.6474         0.374525   
     76. A(C   3,C   4,H  33)          108.5872         0.324956   
     77. A(C   4,N   5,C   6)          122.4235         0.406030   
     78. A(C   6,N   5,C  24)          122.5063         0.406368   
     79. A(C   4,N   5,C  24)          115.0641         0.383660   
     80. A(N   5,C   6,C   7)          121.2400         0.427339   
     81. A(C   7,C   6,C  23)          117.6387         0.423832   
     82. A(N   5,C   6,C  23)          121.1212         0.426923   
     83. A(C   6,C   7,C   8)          121.1024         0.435300   
     84. A(C   6,C   7,H  35)          119.9721         0.351684   
     85. A(C   8,C   7,H  35)          118.9056         0.360347   
     86. A(C   7,C   8,H  36)          120.6477         0.360143   
     87. A(C   9,C   8,H  36)          118.3535         0.352914   
     88. A(C   7,C   8,C   9)          120.9965         0.437182   
     89. A(N  10,C   9,C  22)          125.0659         0.426174   
     90. A(C   8,C   9,C  22)          118.1935         0.426836   
     91. A(C   8,C   9,N  10)          116.7370         0.427235   
     92. A(C   9,N  10,N  11)          117.4275         0.441898   
     93. A(N  10,N  11,C  12)          119.2811         0.441861   
     94. A(C  13,C  12,C  21)          119.1029         0.427616   
     95. A(N  11,C  12,C  21)          122.3014         0.426742   
     96. A(N  11,C  12,C  13)          118.1607         0.427375   
     97. A(C  12,C  13,C  14)          120.4446         0.435771   
     98. A(C  14,C  13,H  37)          120.7313         0.358965   
     99. A(C  12,C  13,H  37)          118.8120         0.353111   
    100. A(C  13,C  14,C  15)          119.7883         0.438675   
    101. A(C  15,C  14,H  38)          119.8065         0.355227   
    102. A(C  13,C  14,H  38)          120.4048         0.358869   
    103. A(C  14,C  15,C  16)          120.9039         0.405301   
    104. A(C  16,C  15,C  20)          118.6198         0.405229   
    105. A(C  14,C  15,C  20)          120.4620         0.433877   
    106. A(F  18,C  16,F  19)          105.9222         0.422076   
    107. A(F  17,C  16,F  19)          105.4448         0.420415   
    108. A(C  15,C  16,F  19)          112.3406         0.398468   
    109. A(F  17,C  16,F  18)          106.2168         0.423290   
    110. A(C  15,C  16,F  18)          113.6424         0.401152   
    111. A(C  15,C  16,F  17)          112.6359         0.399595   
    112. A(C  15,C  20,C  21)          119.8472         0.438705   
    113. A(C  21,C  20,H  39)          120.5680         0.358774   
    114. A(C  15,C  20,H  39)          119.5817         0.354990   
    115. A(C  12,C  21,C  20)          120.3455         0.435231   
    116. A(C  20,C  21,H  40)          121.1884         0.358950   
    117. A(C  12,C  21,H  40)          118.4606         0.352519   
    118. A(C  23,C  22,H  41)          120.8201         0.360476   
    119. A(C   9,C  22,H  41)          118.2754         0.351956   
    120. A(C   9,C  22,C  23)          120.9009         0.436689   
    121. A(C  22,C  23,H  42)          118.9386         0.360730   
    122. A(C   6,C  23,H  42)          119.8718         0.351280   
    123. A(C   6,C  23,C  22)          121.1679         0.435470   
    124. A(H  43,C  24,H  44)          108.3718         0.288826   
    125. A(C  25,C  24,H  44)          108.6676         0.323441   
    126. A(N   5,C  24,H  44)          109.5310         0.332531   
    127. A(C  25,C  24,H  43)          109.8242         0.322004   
    128. A(N   5,C  24,H  43)          111.0672         0.331037   
    129. A(N   5,C  24,C  25)          109.3377         0.372965   
    130. A(H  45,C  25,H  46)          107.7280         0.289682   
    131. A(C  24,C  25,H  46)          108.9274         0.323807   
    132. A(N   2,C  25,H  46)          109.7274         0.331241   
    133. A(C  24,C  25,H  45)          108.4984         0.322639   
    134. A(N   2,C  25,H  45)          108.4773         0.330035   
    135. A(N   2,C  25,C  24)          113.3265         0.371021   
    136. D(H  29,C   1,C   0,H  27)     59.2376         0.011592   
    137. D(H  30,C   1,C   0,H  27)    176.7672         0.011592   
    138. D(N   2,C   1,C   0,H  26)     54.5528         0.011592   
    139. D(H  30,C   1,C   0,H  28)     56.5551         0.011592   
    140. D(N   2,C   1,C   0,H  28)    174.2884         0.011592   
    141. D(H  30,C   1,C   0,H  26)    -63.1806         0.011592   
    142. D(H  29,C   1,C   0,H  26)    179.2899         0.011592   
    143. D(H  29,C   1,C   0,H  28)    -60.9745         0.011592   
    144. D(N   2,C   1,C   0,H  27)    -65.4995         0.011592   
    145. D(C  25,N   2,C   1,H  30)   -166.6552         0.016893   
    146. D(C   3,N   2,C   1,H  30)    -37.6819         0.016893   
    147. D(C  25,N   2,C   1,H  29)    -48.7847         0.016893   
    148. D(C   3,N   2,C   1,C   0)   -156.2070         0.016893   
    149. D(C   3,N   2,C   1,H  29)     80.1886         0.016893   
    150. D(C  25,N   2,C   1,C   0)     74.8197         0.016893   
    151. D(H  32,C   3,N   2,C  25)   -154.7359         0.016878   
    152. D(H  31,C   3,N   2,C  25)     86.5212         0.016878   
    153. D(H  31,C   3,N   2,C   1)    -44.0994         0.016878   
    154. D(C   4,C   3,N   2,C  25)    -34.9472         0.016878   
    155. D(C   4,C   3,N   2,C   1)   -165.5678         0.016878   
    156. D(H  32,C   3,N   2,C   1)     74.6435         0.016878   
    157. D(H  34,C   4,C   3,H  32)     62.7273         0.011595   
    158. D(H  34,C   4,C   3,N   2)    -56.3915         0.011595   
    159. D(H  33,C   4,C   3,H  32)    -55.7151         0.011595   
    160. D(H  34,C   4,C   3,H  31)   -179.9490         0.011595   
    161. D(H  33,C   4,C   3,H  31)     61.6086         0.011595   
    162. D(N   5,C   4,C   3,H  31)    -57.7255         0.011595   
    163. D(H  33,C   4,C   3,N   2)   -174.8339         0.011595   
    164. D(N   5,C   4,C   3,N   2)     65.8320         0.011595   
    165. D(N   5,C   4,C   3,H  32)   -175.0493         0.011595   
    166. D(C   6,N   5,C   4,C   3)    151.8175         0.017478   
    167. D(C  24,N   5,C   4,H  34)     91.9332         0.017478   
    168. D(C  24,N   5,C   4,H  33)   -147.9722         0.017478   
    169. D(C  24,N   5,C   4,C   3)    -29.0630         0.017478   
    170. D(C   6,N   5,C   4,H  34)    -87.1863         0.017478   
    171. D(C   6,N   5,C   4,H  33)     32.9083         0.017478   
    172. D(C  23,C   6,N   5,C  24)   -164.0907         0.032034   
    173. D(C  23,C   6,N   5,C   4)     14.9636         0.032034   
    174. D(C   7,C   6,N   5,C  24)     16.0249         0.032034   
    175. D(C   7,C   6,N   5,C   4)   -164.9208         0.032034   
    176. D(H  35,C   7,C   6,C  23)   -178.3064         0.023253   
    177. D(H  35,C   7,C   6,N   5)      1.5819         0.023253   
    178. D(C   8,C   7,C   6,C  23)      0.0565         0.023253   
    179. D(C   8,C   7,C   6,N   5)    179.9448         0.023253   
    180. D(H  36,C   8,C   7,H  35)     -1.0682         0.031530   
    181. D(H  36,C   8,C   7,C   6)   -179.4483         0.031530   
    182. D(C   9,C   8,C   7,H  35)    178.3712         0.031530   
    183. D(C   9,C   8,C   7,C   6)     -0.0088         0.031530   
    184. D(C  22,C   9,C   8,H  36)    179.4009         0.024452   
    185. D(C  22,C   9,C   8,C   7)     -0.0511         0.024452   
    186. D(N  10,C   9,C   8,H  36)      0.0568         0.024452   
    187. D(N  10,C   9,C   8,C   7)   -179.3951         0.024452   
    188. D(N  11,N  10,C   9,C  22)      4.5617         0.027487   
    189. D(N  11,N  10,C   9,C   8)   -176.1446         0.027487   
    190. D(C  12,N  11,N  10,C   9)   -172.1958         0.047872   
    191. D(C  21,C  12,N  11,N  10)     38.3892         0.027460   
    192. D(C  13,C  12,N  11,N  10)   -149.2534         0.027460   
    193. D(H  37,C  13,C  12,C  21)   -179.7182         0.024570   
    194. D(H  37,C  13,C  12,N  11)      7.6737         0.024570   
    195. D(C  14,C  13,C  12,C  21)     -0.9713         0.024570   
    196. D(C  14,C  13,C  12,N  11)   -173.5794         0.024570   
    197. D(C  15,C  14,C  13,H  37)    179.6827         0.030188   
    198. D(C  15,C  14,C  13,C  12)      0.9601         0.030188   
    199. D(H  38,C  14,C  13,H  37)     -0.5588         0.030188   
    200. D(H  38,C  14,C  13,C  12)   -179.2814         0.030188   
    201. D(C  20,C  15,C  14,H  38)   -179.9428         0.026560   
    202. D(C  20,C  15,C  14,C  13)     -0.1828         0.026560   
    203. D(C  16,C  15,C  14,H  38)     -1.3408         0.026560   
    204. D(C  16,C  15,C  14,C  13)    178.4191         0.026560   
    205. D(F  19,C  16,C  15,C  20)     70.5855         0.013187   
    206. D(F  19,C  16,C  15,C  14)   -108.0418         0.013187   
    207. D(F  18,C  16,C  15,C  20)   -169.1711         0.013187   
    208. D(F  18,C  16,C  15,C  14)     12.2017         0.013187   
    209. D(F  17,C  16,C  15,C  20)    -48.3170         0.013187   
    210. D(F  17,C  16,C  15,C  14)    133.0558         0.013187   
    211. D(H  39,C  20,C  15,C  16)      1.4147         0.026503   
    212. D(H  39,C  20,C  15,C  14)   -179.9518         0.026503   
    213. D(C  21,C  20,C  15,C  16)   -179.2145         0.026503   
    214. D(C  21,C  20,C  15,C  14)     -0.5810         0.026503   
    215. D(H  40,C  21,C  20,C  15)    179.6961         0.030278   
    216. D(C  12,C  21,C  20,H  39)    179.9268         0.030278   
    217. D(C  12,C  21,C  20,C  15)      0.5623         0.030278   
    218. D(H  40,C  21,C  12,C  13)   -178.9539         0.024146   
    219. D(H  40,C  21,C  12,N  11)     -6.6658         0.024146   
    220. D(C  20,C  21,C  12,C  13)      0.2033         0.024146   
    221. D(H  40,C  21,C  20,H  39)     -0.9394         0.030278   
    222. D(C  20,C  21,C  12,N  11)    172.4914         0.024146   
    223. D(H  41,C  22,C   9,N  10)     -1.3470         0.023749   
    224. D(H  41,C  22,C   9,C   8)    179.3687         0.023749   
    225. D(C  23,C  22,C   9,N  10)    179.3473         0.023749   
    226. D(C  23,C  22,C   9,C   8)      0.0630         0.023749   
    227. D(H  42,C  23,C  22,H  41)     -1.0004         0.032051   
    228. D(H  42,C  23,C  22,C   9)    178.2876         0.032051   
    229. D(C   6,C  23,C  22,H  41)   -179.3030         0.032051   
    230. D(C   6,C  23,C  22,C   9)     -0.0151         0.032051   
    231. D(H  42,C  23,C   6,C   7)   -178.3316         0.022990   
    232. D(H  42,C  23,C   6,N   5)      1.7800         0.022990   
    233. D(C  22,C  23,C   6,C   7)     -0.0446         0.022990   
    234. D(C  22,C  23,C   6,N   5)   -179.9330         0.022990   
    235. D(H  44,C  24,N   5,C   6)     30.8769         0.017646   
    236. D(H  44,C  24,N   5,C   4)   -148.2419         0.017646   
    237. D(H  43,C  24,N   5,C   6)    -88.7944         0.017646   
    238. D(H  43,C  24,N   5,C   4)     92.0869         0.017646   
    239. D(C  25,C  24,N   5,C   6)    149.8507         0.017646   
    240. D(C  25,C  24,N   5,C   4)    -29.2681         0.017646   
    241. D(H  46,C  25,C  24,H  44)    -57.1272         0.010978   
    242. D(H  46,C  25,C  24,N   5)   -176.6351         0.010978   
    243. D(H  45,C  25,C  24,H  44)     59.8841         0.010978   
    244. D(H  45,C  25,C  24,H  43)    178.2719         0.010978   
    245. D(H  45,C  25,C  24,N   5)    -59.6237         0.010978   
    246. D(N   2,C  25,C  24,H  44)   -179.5709         0.010978   
    247. D(N   2,C  25,C  24,H  43)    -61.1832         0.010978   
    248. D(N   2,C  25,C  24,N   5)     60.9212         0.010978   
    249. D(H  46,C  25,N   2,C   3)   -147.4426         0.016596   
    250. D(H  46,C  25,N   2,C   1)    -18.0545         0.016596   
    251. D(H  45,C  25,N   2,C   3)     95.1127         0.016596   
    252. D(H  45,C  25,N   2,C   1)   -135.4992         0.016596   
    253. D(H  46,C  25,C  24,H  43)     61.2605         0.010978   
    254. D(C  24,C  25,N   2,C   3)    -25.4441         0.016596   
    255. D(C  24,C  25,N   2,C   1)    103.9440         0.016596   
    -----------------------------------------------------------------

Number of atoms                         .... 47
Number of degrees of freedom            .... 255

         *************************************************************
         *                GEOMETRY OPTIMIZATION CYCLE   1            *
         *************************************************************
---------------------------------
CARTESIAN COORDINATES (ANGSTROEM)
---------------------------------
  C     -7.872200   -0.089400   -0.348300
  C     -6.695300    0.771300    0.096300
  N     -5.553300   -0.046700    0.465100
  C     -4.655000    0.636100    1.379700
  C     -3.316700   -0.088600    1.464700
  N     -2.639500   -0.011700    0.187400
  C     -1.285800   -0.042000    0.077700
  C     -0.640200    0.343900   -1.114300
  C      0.725700    0.313300   -1.221500
  C      1.525600   -0.103400   -0.146900
  N      2.876500   -0.087900   -0.344500
  N      3.610900   -0.533700    0.593300
  C      4.966000   -0.389900    0.506200
  C      5.775000   -1.366900    1.104100
  C      7.140000   -1.203000    1.160200
  C      7.720300   -0.050300    0.637700
  C      9.198500    0.169800    0.716800
  F      9.726000    0.574700   -0.455200
  F      9.886500   -0.923200    1.079600
  F      9.528100    1.129100    1.610500
  C      6.929200    0.936600    0.055100
  C      5.565900    0.767700   -0.016200
  C      0.887700   -0.488700    1.046200
  C     -0.476000   -0.459100    1.155200
  C     -3.510800    0.079600   -0.963600
  C     -4.833400   -0.630200   -0.656300
  H     -8.106700   -0.814300    0.425800
  H     -7.649500   -0.627700   -1.265600
  H     -8.742900    0.537500   -0.521500
  H     -6.443200    1.502500   -0.691700
  H     -6.992000    1.332100    0.986000
  H     -4.469800    1.682300    1.078100
  H     -5.121800    0.651200    2.369500
  H     -2.704700    0.398600    2.227300
  H     -3.487900   -1.131300    1.763200
  H     -1.221000    0.695100   -1.952100
  H      1.212800    0.618800   -2.134700
  H      5.309800   -2.256300    1.499700
  H      7.763100   -1.960700    1.610200
  H      7.394400    1.824800   -0.346500
  H      4.931800    1.520700   -0.458700
  H      1.501500   -0.819500    1.870600
  H     -0.933300   -0.787800    2.075100
  H     -3.703900    1.128700   -1.231000
  H     -3.040200   -0.412400   -1.817800
  H     -4.618900   -1.679900   -0.423200
  H     -5.461300   -0.609600   -1.547600

----------------------------
CARTESIAN COORDINATES (A.U.)
----------------------------
  NO LB      ZA    FRAG     MASS         X           Y           Z
   0 C     6.0000    0    12.011  -14.876302   -0.168942   -0.658192
   1 C     6.0000    0    12.011  -12.652283    1.457546    0.181981
   2 N     7.0000    0    14.007  -10.494216   -0.088250    0.878912
   3 C     6.0000    0    12.011   -8.796675    1.202055    2.607255
   4 C     6.0000    0    12.011   -6.267655   -0.167430    2.767882
   5 N     7.0000    0    14.007   -4.987932   -0.022110    0.354135
   6 C     6.0000    0    12.011   -2.429810   -0.079368    0.146832
   7 C     6.0000    0    12.011   -1.209803    0.649877   -2.105722
   8 C     6.0000    0    12.011    1.371374    0.592051   -2.308300
   9 C     6.0000    0    12.011    2.882966   -0.195398   -0.277601
  10 N     7.0000    0    14.007    5.435797   -0.166107   -0.651011
  11 N     7.0000    0    14.007    6.823612   -1.008547    1.121175
  12 C     6.0000    0    12.011    9.384380   -0.736804    0.956579
  13 C     6.0000    0    12.011   10.913168   -2.583067    2.086447
  14 C     6.0000    0    12.011   13.492645   -2.273341    2.192460
  15 C     6.0000    0    12.011   14.589253   -0.095053    1.205078
  16 C     6.0000    0    12.011   17.382646    0.320875    1.354556
  17 F     9.0000    0    18.998   18.379476    1.086026   -0.860203
  18 F     9.0000    0    18.998   18.682777   -1.744595    2.040148
  19 F     9.0000    0    18.998   18.005500    2.133690    3.043404
  20 C     6.0000    0    12.011   13.094290    1.769917    0.104124
  21 C     6.0000    0    12.011   10.518027    1.450743   -0.030614
  22 C     6.0000    0    12.011    1.677510   -0.923509    1.977031
  23 C     6.0000    0    12.011   -0.899510   -0.867573    2.183012
  24 C     6.0000    0    12.011   -6.634451    0.150422   -1.820940
  25 C     6.0000    0    12.011   -9.133802   -1.190905   -1.240227
  26 H     1.0000    0     1.008  -15.319443   -1.538804    0.804645
  27 H     1.0000    0     1.008  -14.455460   -1.186181   -2.391637
  28 H     1.0000    0     1.008  -16.521687    1.015728   -0.985492
  29 H     1.0000    0     1.008  -12.175883    2.839314   -1.307124
  30 H     1.0000    0     1.008  -13.212965    2.517304    1.863270
  31 H     1.0000    0     1.008   -8.446698    3.179086    2.037314
  32 H     1.0000    0     1.008   -9.678799    1.230590    4.477706
  33 H     1.0000    0     1.008   -5.111142    0.753245    4.208987
  34 H     1.0000    0     1.008   -6.591176   -2.137847    3.331965
  35 H     1.0000    0     1.008   -2.307356    1.313549   -3.688934
  36 H     1.0000    0     1.008    2.291860    1.169363   -4.033998
  37 H     1.0000    0     1.008   10.034068   -4.263789    2.834022
  38 H     1.0000    0     1.008   14.670133   -3.705186    3.042837
  39 H     1.0000    0     1.008   13.973391    3.448372   -0.654790
  40 H     1.0000    0     1.008    9.319751    2.873707   -0.866817
  41 H     1.0000    0     1.008    2.837424   -1.548631    3.534922
  42 H     1.0000    0     1.008   -1.763681   -1.488726    3.921371
  43 H     1.0000    0     1.008   -6.999357    2.132934   -2.326253
  44 H     1.0000    0     1.008   -5.745145   -0.779323   -3.435144
  45 H     1.0000    0     1.008   -8.728456   -3.174551   -0.799732
  46 H     1.0000    0     1.008  -10.320361   -1.151977   -2.924540

--------------------------------
INTERNAL COORDINATES (ANGSTROEM)
--------------------------------
 C      0   0   0     0.000000000000     0.00000000     0.00000000
 C      1   0   0     1.524325181843     0.00000000     0.00000000
 N      2   1   0     1.452343430460   111.29317354     0.00000000
 C      3   2   1     1.452464075287   112.42272900   203.79298132
 C      4   3   2     1.524290648138   110.76988180   194.43216218
 N      5   4   3     1.447759904128   109.64741030    65.83199898
 C      6   5   4     1.358475568422   122.42346296   151.81748044
 C      7   6   5     1.409461659642   121.23996248   195.07915747
 C      8   7   6     1.370441903183   121.10244938   179.94484771
 C      9   8   7     1.402941217585   120.99651120     0.00000000
 N     10   9   8     1.365363255694   116.73695601   180.60485293
 N     11  10   9     1.271829328173   117.42753073   183.85538462
 C     12  11  10     1.365489238332   119.28114494   187.80420455
 C     13  12  11     1.402317513975   118.16071233   210.74661606
 C     14  13  12     1.375948916203   120.44462871   186.42055573
 C     15  14  13     1.392290066761   119.78834501     0.96008043
 C     16  15  14     1.496588139737   120.90387372   178.41912732
 F     17  16  15     1.347510393281   112.63593925   133.05581316
 F     17  16  15     1.341497983599   113.64239425    12.20171067
 F     17  16  15     1.351884736211   112.34062490   251.95824424
 C     16  15  14     1.392563671794   120.46196309   359.81716585
 C     21  16  15     1.375571804742   119.84721681   359.41897922
 C     10   9   8     1.406719627360   118.19352333   359.94891592
 C     23  10   9     1.368369412841   120.90088369     0.06299857
 C      6   5   4     1.446478613738   115.06405501   330.93703198
 C      3   2   1     1.454739227491   114.78942835    74.81965039
 H      1   2   3     1.086140446719   109.61306074    54.55276297
 H      1   2   3     1.086646892969   111.57351629   294.50053321
 H      1   2   3     1.086793605060   109.83663023   174.28844050
 H      2   1   3     1.104152095501   110.00166378   124.73709072
 H      2   1   3     1.092745908251   108.51888235   242.26664381
 H      4   3   2     1.104443769506   112.15171943   315.90059549
 H      4   3   2     1.094456161753   108.19048232    74.64346039
 H      5   4   3     1.092458969481   108.58721250   185.16612899
 H      5   4   3     1.098014107377   109.25360524   303.60852374
 H      8   7   6     1.078229530295   119.97212517     1.58194803
 H      9   8   7     1.079134328988   120.64771883   180.55174427
 H     14  13  12     1.078861789109   118.81200806     7.67369851
 H     15  14  13     1.079288145029   120.40475869   180.71856979
 H     21  16  15     1.080089274088   119.58170952   180.04821154
 H     22  21  16     1.079304433420   121.18839259   179.69613935
 H     23  10   9     1.079728873375   118.27535741   179.36867764
 H     24  23  10     1.078602331724   118.93860029   178.28757343
 H     25   6   5     1.099727775406   111.06717084    92.08689082
 H     25   6   5     1.092330536056   109.53097226   211.75812227
 H     26   3   2     1.096456086672   108.47730982   224.50083330
 H     26   3   2     1.090457912989   109.72737675   341.94546549

---------------------------
INTERNAL COORDINATES (A.U.)
---------------------------
 C      0   0   0     0.000000000000     0.00000000     0.00000000
 C      1   0   0     2.880557132723     0.00000000     0.00000000
 N      2   1   0     2.744531335969   111.29317354     0.00000000
 C      3   2   1     2.744759321652   112.42272900   203.79298132
 C      4   3   2     2.880491873478   110.76988180   194.43216218
 N      5   4   3     2.735869726474   109.64741030    65.83199898
 C      6   5   4     2.567146783941   122.42346296   151.81748044
 C      7   6   5     2.663496532985   121.23996248   195.07915747
 C      8   7   6     2.589759879466   121.10244938   179.94484771
 C      9   8   7     2.651174683226   120.99651120     0.00000000
 N     10   9   8     2.580162626581   116.73695601   180.60485293
 N     11  10   9     2.403409119335   117.42753073   183.85538462
 C     12  11  10     2.580400699264   119.28114494   187.80420455
 C     13  12  11     2.649996054213   118.16071233   210.74661606
 C     14  13  12     2.600166625889   120.44462871   186.42055573
 C     15  14  13     2.631046925156   119.78834501     0.96008043
 C     16  15  14     2.828141719377   120.90387372   178.41912732
 F     17  16  15     2.546425605913   112.63593925   133.05581316
 F     17  16  15     2.535063798210   113.64239425    12.20171067
 F     17  16  15     2.554691916067   112.34062490   251.95824424
 C     16  15  14     2.631563963738   120.46196309   359.81716585
 C     21  16  15     2.599453988505   119.84721681   359.41897922
 C     10   9   8     2.658314842922   118.19352333   359.94891592
 C     23  10   9     2.585843440305   120.90088369     0.06299857
 C      6   5   4     2.733448438538   115.06405501   330.93703198
 C      3   2   1     2.749058736229   114.78942835    74.81965039
 H      1   2   3     2.052507987275   109.61306074    54.55276297
 H      1   2   3     2.053465031989   111.57351629   294.50053321
 H      1   2   3     2.053742277661   109.83663023   174.28844050
 H      2   1   3     2.086545070693   110.00166378   124.73709072
 H      2   1   3     2.064990500558   108.51888235   242.26664381
 H      4   3   2     2.087096254681   112.15171943   315.90059549
 H      4   3   2     2.068222411297   108.19048232    74.64346039
 H      5   4   3     2.064448264865   108.58721250   185.16612899
 H      5   4   3     2.074945954125   109.25360524   303.60852374
 H      8   7   6     2.037558521764   119.97212517     1.58194803
 H      9   8   7     2.039268343500   120.64771883   180.55174427
 H     14  13  12     2.038753317769   118.81200806     7.67369851
 H     15  14  13     2.039559013693   120.40475869   180.71856979
 H     21  16  15     2.041072928212   119.58170952   180.04821154
 H     22  21  16     2.039589794291   121.18839259   179.69613935
 H     23  10   9     2.040391869566   118.27535741   179.36867764
 H     24  23  10     2.038263014367   118.93860029   178.28757343
 H     25   6   5     2.078184317384   111.06717084    92.08689082
 H     25   6   5     2.064205560865   109.53097226   211.75812227
 H     26   3   2     2.072001721681   108.47730982   224.50083330
 H     26   3   2     2.060666816116   109.72737675   341.94546549

---------------------
BASIS SET INFORMATION
---------------------
There are 4 groups of distinct atoms

 Group   1 Type C   : 19s6p3d2f contracted to 5s4p3d2f pattern {88111/3111/111/11}
 Group   2 Type N   : 19s6p3d2f contracted to 5s4p3d2f pattern {88111/3111/111/11}
 Group   3 Type F   : 19s6p3d2f contracted to 5s4p3d2f pattern {88111/3111/111/11}
 Group   4 Type H   : 5s2p1d contracted to 3s2p1d pattern {311/11/1}

Atom   0C    basis set group =>   1
Atom   1C    basis set group =>   1
Atom   2N    basis set group =>   2
Atom   3C    basis set group =>   1
Atom   4C    basis set group =>   1
Atom   5N    basis set group =>   2
Atom   6C    basis set group =>   1
Atom   7C    basis set group =>   1
Atom   8C    basis set group =>   1
Atom   9C    basis set group =>   1
Atom  10N    basis set group =>   2
Atom  11N    basis set group =>   2
Atom  12C    basis set group =>   1
Atom  13C    basis set group =>   1
Atom  14C    basis set group =>   1
Atom  15C    basis set group =>   1
Atom  16C    basis set group =>   1
Atom  17F    basis set group =>   3
Atom  18F    basis set group =>   3
Atom  19F    basis set group =>   3
Atom  20C    basis set group =>   1
Atom  21C    basis set group =>   1
Atom  22C    basis set group =>   1
Atom  23C    basis set group =>   1
Atom  24C    basis set group =>   1
Atom  25C    basis set group =>   1
Atom  26H    basis set group =>   4
Atom  27H    basis set group =>   4
Atom  28H    basis set group =>   4
Atom  29H    basis set group =>   4
Atom  30H    basis set group =>   4
Atom  31H    basis set group =>   4
Atom  32H    basis set group =>   4
Atom  33H    basis set group =>   4
Atom  34H    basis set group =>   4
Atom  35H    basis set group =>   4
Atom  36H    basis set group =>   4
Atom  37H    basis set group =>   4
Atom  38H    basis set group =>   4
Atom  39H    basis set group =>   4
Atom  40H    basis set group =>   4
Atom  41H    basis set group =>   4
Atom  42H    basis set group =>   4
Atom  43H    basis set group =>   4
Atom  44H    basis set group =>   4
Atom  45H    basis set group =>   4
Atom  46H    basis set group =>   4
---------------------------------
AUXILIARY/J BASIS SET INFORMATION
---------------------------------
There are 4 groups of distinct atoms

 Group   1 Type C   : 10s7p5d2f1g contracted to 10s7p5d2f1g pattern {1111111111/1111111/11111/11/1}
 Group   2 Type N   : 10s7p5d2f1g contracted to 10s7p5d2f1g pattern {1111111111/1111111/11111/11/1}
 Group   3 Type F   : 10s7p5d2f1g contracted to 10s7p5d2f1g pattern {1111111111/1111111/11111/11/1}
 Group   4 Type H   : 4s3p2d1f contracted to 4s3p2d1f pattern {1111/111/11/1}

Atom   0C    basis set group =>   1
Atom   1C    basis set group =>   1
Atom   2N    basis set group =>   2
Atom   3C    basis set group =>   1
Atom   4C    basis set group =>   1
Atom   5N    basis set group =>   2
Atom   6C    basis set group =>   1
Atom   7C    basis set group =>   1
Atom   8C    basis set group =>   1
Atom   9C    basis set group =>   1
Atom  10N    basis set group =>   2
Atom  11N    basis set group =>   2
Atom  12C    basis set group =>   1
Atom  13C    basis set group =>   1
Atom  14C    basis set group =>   1
Atom  15C    basis set group =>   1
Atom  16C    basis set group =>   1
Atom  17F    basis set group =>   3
Atom  18F    basis set group =>   3
Atom  19F    basis set group =>   3
Atom  20C    basis set group =>   1
Atom  21C    basis set group =>   1
Atom  22C    basis set group =>   1
Atom  23C    basis set group =>   1
Atom  24C    basis set group =>   1
Atom  25C    basis set group =>   1
Atom  26H    basis set group =>   4
Atom  27H    basis set group =>   4
Atom  28H    basis set group =>   4
Atom  29H    basis set group =>   4
Atom  30H    basis set group =>   4
Atom  31H    basis set group =>   4
Atom  32H    basis set group =>   4
Atom  33H    basis set group =>   4
Atom  34H    basis set group =>   4
Atom  35H    basis set group =>   4
Atom  36H    basis set group =>   4
Atom  37H    basis set group =>   4
Atom  38H    basis set group =>   4
Atom  39H    basis set group =>   4
Atom  40H    basis set group =>   4
Atom  41H    basis set group =>   4
Atom  42H    basis set group =>   4
Atom  43H    basis set group =>   4
Atom  44H    basis set group =>   4
Atom  45H    basis set group =>   4
Atom  46H    basis set group =>   4
---------------------------------
AUXILIARY/C BASIS SET INFORMATION
---------------------------------
There are 4 groups of distinct atoms

 Group   1 Type C   : 9s7p6d4f2g contracted to 9s7p6d4f2g pattern {111111111/1111111/111111/1111/11}
 Group   2 Type N   : 9s7p6d4f2g contracted to 9s7p6d4f2g pattern {111111111/1111111/111111/1111/11}
 Group   3 Type F   : 9s7p6d4f2g contracted to 9s7p6d4f2g pattern {111111111/1111111/111111/1111/11}
 Group   4 Type H   : 4s3p2d1f contracted to 4s3p2d1f pattern {1111/111/11/1}

Atom   0C    basis set group =>   1
Atom   1C    basis set group =>   1
Atom   2N    basis set group =>   2
Atom   3C    basis set group =>   1
Atom   4C    basis set group =>   1
Atom   5N    basis set group =>   2
Atom   6C    basis set group =>   1
Atom   7C    basis set group =>   1
Atom   8C    basis set group =>   1
Atom   9C    basis set group =>   1
Atom  10N    basis set group =>   2
Atom  11N    basis set group =>   2
Atom  12C    basis set group =>   1
Atom  13C    basis set group =>   1
Atom  14C    basis set group =>   1
Atom  15C    basis set group =>   1
Atom  16C    basis set group =>   1
Atom  17F    basis set group =>   3
Atom  18F    basis set group =>   3
Atom  19F    basis set group =>   3
Atom  20C    basis set group =>   1
Atom  21C    basis set group =>   1
Atom  22C    basis set group =>   1
Atom  23C    basis set group =>   1
Atom  24C    basis set group =>   1
Atom  25C    basis set group =>   1
Atom  26H    basis set group =>   4
Atom  27H    basis set group =>   4
Atom  28H    basis set group =>   4
Atom  29H    basis set group =>   4
Atom  30H    basis set group =>   4
Atom  31H    basis set group =>   4
Atom  32H    basis set group =>   4
Atom  33H    basis set group =>   4
Atom  34H    basis set group =>   4
Atom  35H    basis set group =>   4
Atom  36H    basis set group =>   4
Atom  37H    basis set group =>   4
Atom  38H    basis set group =>   4
Atom  39H    basis set group =>   4
Atom  40H    basis set group =>   4
Atom  41H    basis set group =>   4
Atom  42H    basis set group =>   4
Atom  43H    basis set group =>   4
Atom  44H    basis set group =>   4
Atom  45H    basis set group =>   4
Atom  46H    basis set group =>   4


           ************************************************************
           *        Program running with 4 parallel MPI-processes     *
           *              working on a common directory               *
           ************************************************************
------------------------------------------------------------------------------
                           ORCA GTO INTEGRAL CALCULATION
                           -- RI-GTO INTEGRALS CHOSEN --
------------------------------------------------------------------------------
------------------------------------------------------------------------------
                   ___                                                        
                  /   \      - P O W E R E D   B Y -                         
                 /     \                                                     
                 |  |  |   _    _      __       _____    __    __             
                 |  |  |  | |  | |    /  \     |  _  \  |  |  /  |          
                  \  \/   | |  | |   /    \    | | | |  |  | /  /          
                 / \  \   | |__| |  /  /\  \   | |_| |  |  |/  /          
                |  |  |   |  __  | /  /__\  \  |    /   |      \           
                |  |  |   | |  | | |   __   |  |    \   |  |\   \          
                \     /   | |  | | |  |  |  |  | |\  \  |  | \   \       
                 \___/    |_|  |_| |__|  |__|  |_| \__\ |__|  \__/        
                                                                              
                      - O R C A' S   B I G   F R I E N D -                    
                                      &                                       
                       - I N T E G R A L  F E E D E R -                       
                                                                              
 v1 FN, 2020, v2 2021                                                         
------------------------------------------------------------------------------


Reading SHARK input file optpbed3-b2plyp-test-572.SHARKINP.tmp ... ok
----------------------
SHARK INTEGRAL PACKAGE
----------------------

Number of atoms                             ...     47
Number of basis functions                   ...   1646
Number of shells                            ...    646
Maximum angular momentum                    ...      3
Integral batch strategy                     ... SHARK/LIBINT Hybrid
RI-J (if used) integral strategy            ... SPLIT-RIJ (Revised 2003 algorithm where possible)
Printlevel                                  ...      1
Contraction scheme used                     ... PARTIAL GENERAL contraction
Coulomb Range Separation                    ... NOT USED
Exchange Range Separation                   ... NOT USED
Finite Nucleus Model                        ... NOT USED
Auxiliary Coulomb fitting basis             ... AVAILABLE
   # of basis functions in Aux-J            ...   2684
   # of shells in Aux-J                     ...    860
   Maximum angular momentum in Aux-J        ...      4
Auxiliary J/K fitting basis                 ... NOT available
Auxiliary Correlation fitting basis         ... AVAILABLE
   # of basis functions in Aux-C            ...   3386
   # of shells in Aux-C                     ...    938
   Maximum angular momentum in Aux-C        ...      4
Auxiliary 'external' fitting basis          ... NOT available
Integral threshold                          ...     2.500000e-11
Primitive cut-off                           ...     2.500000e-12
Primitive pair pre-selection threshold      ...     2.500000e-12

Calculating pre-screening integrals         ... done (  0.4 sec) Dimension = 646
Calculating pre-screening integrals (ORCA)  ... done (  0.9 sec) Dimension = 490
Organizing shell pair data                  ... done (  1.9 sec)
Shell pair information
Total number of shell pairs                 ...    208981
Shell pairs after pre-screening             ...    104947
Total number of primitive shell pairs       ...    274311
Primitive shell pairs kept                  ...    123269
          la=0 lb=0:  23953 shell pairs
          la=1 lb=0:  27783 shell pairs
          la=1 lb=1:   7086 shell pairs
          la=2 lb=0:  17202 shell pairs
          la=2 lb=1:   8940 shell pairs
          la=2 lb=2:   2879 shell pairs
          la=3 lb=0:   8785 shell pairs
          la=3 lb=1:   4625 shell pairs
          la=3 lb=2:   2913 shell pairs
          la=3 lb=3:    781 shell pairs

Calculating one electron integrals          ... done (  0.4 sec)
Calculating RI/J V-Matrix + Cholesky decomp.... done (  0.5 sec)
Calculating RI/C V-Matrix + Cholesky decomp.... done (  0.9 sec)
Calculating Nuclear repulsion               ... done (  0.0 sec) ENN=   2118.612260953399 Eh

SHARK setup successfully completed in   6.8 seconds

Maximum memory used throughout the entire GTOINT-calculation: 184.8 MB


           ************************************************************
           *        Program running with 4 parallel MPI-processes     *
           *              working on a common directory               *
           ************************************************************
-------------------------------------------------------------------------------
                                 ORCA SCF
-------------------------------------------------------------------------------

------------
SCF SETTINGS
------------
Hamiltonian:
 Density Functional     Method          .... DFT(GTOs)
 Exchange Functional    Exchange        .... PBE
   PBE kappa parameter   XKappa         ....  0.804000
   PBE mue parameter    XMuePBE         ....  0.219520
 Correlation Functional Correlation     .... PBE
   PBE beta parameter  CBetaPBE         ....  0.066725
 LDA part of GGA corr.  LDAOpt          .... PW91-LDA
 Gradients option       PostSCFGGA      .... off
 Hybrid DFT is turned on
   Fraction HF Exchange ScalHFX         ....  0.250000
   Scaling of DF-GGA-X  ScalDFX         ....  0.750000
   Scaling of DF-GGA-C  ScalDFC         ....  1.000000
   Scaling of DF-LDA-C  ScalLDAC        ....  1.000000
   Perturbative correction              ....  0.000000
   Density functional embedding theory  .... OFF
   NL short-range parameter             ....  6.900000
 RI-approximation to the Coulomb term is turned on
   Number of AuxJ basis functions       .... 2684
   RIJ-COSX (HFX calculated with COS-X)).... on


General Settings:
 Integral files         IntName         .... optpbed3-b2plyp-test-572
 Hartree-Fock type      HFTyp           .... RHF
 Total Charge           Charge          ....    0
 Multiplicity           Mult            ....    1
 Number of Electrons    NEL             ....  190
 Basis Dimension        Dim             .... 1490
 Nuclear Repulsion      ENuc            ....   2118.6122609534 Eh

Convergence Acceleration:
 DIIS                   CNVDIIS         .... on
   Start iteration      DIISMaxIt       ....    12
   Startup error        DIISStart       ....  0.200000
   # of expansion vecs  DIISMaxEq       ....     5
   Bias factor          DIISBfac        ....   1.050
   Max. coefficient     DIISMaxC        ....  10.000
 Trust-Rad. Augm. Hess. CNVTRAH         .... auto
   Auto Start mean grad. ratio tolernc. ....  1.125000
   Auto Start start iteration           ....    20
   Auto Start num. interpolation iter.  ....    10
   Max. Number of Micro iterations      ....    16
   Max. Number of Macro iterations      .... Maxiter - #DIIS iter
   Number of Davidson start vectors     ....     2
   Converg. threshold I  (grad. norm)   ....   1.000e-05
   Converg. threshold II (energy diff.) ....   1.000e-08
   Grad. Scal. Fac. for Micro threshold ....   0.100
   Minimum threshold for Micro iter.    ....   0.010
   NR start threshold (gradient norm)   ....   0.001
   Initial trust radius                 ....   0.400
   Minimum AH scaling param. (alpha)    ....   1.000
   Maximum AH scaling param. (alpha)    .... 1000.000
   Orbital update algorithm             .... Taylor
   White noise on init. David. guess    .... on
   Maximum white noise                  ....   0.010
   Quad. conv. algorithm                .... NR
 SOSCF                  CNVSOSCF        .... on
   Start iteration      SOSCFMaxIt      ....   150
   Startup grad/error   SOSCFStart      ....  0.003300
 Level Shifting         CNVShift        .... on
   Level shift para.    LevelShift      ....    0.2500
   Turn off err/grad.   ShiftErr        ....    0.0010
 Zerner damping         CNVZerner       .... off
 Static damping         CNVDamp         .... on
   Fraction old density DampFac         ....    0.7000
   Max. Damping (<1)    DampMax         ....    0.9800
   Min. Damping (>=0)   DampMin         ....    0.0000
   Turn off err/grad.   DampErr         ....    0.1000
 Fernandez-Rico         CNVRico         .... off

SCF Procedure:
 Maximum # iterations   MaxIter         ....   125
 SCF integral mode      SCFMode         .... Direct
   Integral package                     .... SHARK and LIBINT hybrid scheme
 Reset frequency        DirectResetFreq ....    20
 Integral Threshold     Thresh          ....  2.500e-11 Eh
 Primitive CutOff       TCut            ....  2.500e-12 Eh

Convergence Tolerance:
 Convergence Check Mode ConvCheckMode   .... Total+1el-Energy
 Convergence forced     ConvForced      .... 0
 Energy Change          TolE            ....  1.000e-08 Eh
 1-El. energy change                    ....  1.000e-05 Eh
 Orbital Gradient       TolG            ....  1.000e-05
 Orbital Rotation angle TolX            ....  1.000e-05
 DIIS Error             TolErr          ....  5.000e-07


Diagonalization of the overlap matrix:
Smallest eigenvalue                        ... 2.829e-07
Time for diagonalization                   ...    0.588 sec
Threshold for overlap eigenvalues          ... 1.000e-08
Number of eigenvalues below threshold      ... 0
Time for construction of square roots      ...    0.465 sec
Total time needed                          ...    1.065 sec

Time for model grid setup =    1.100 sec

------------------------------
INITIAL GUESS: MODEL POTENTIAL
------------------------------
Loading Hartree-Fock densities                     ... done
Calculating cut-offs                               ... done
Initializing the effective Hamiltonian             ... done
Setting up the integral package (SHARK)            ... done
Starting the Coulomb interaction                   ... done (   4.6 sec)
Reading the grid                                   ... done
Mapping shells                                     ... done
Starting the XC term evaluation                    ... done (   2.6 sec)
  promolecular density results
     # of electrons  =    189.985742121
     EX              =   -159.682591509
     EC              =     -6.445721770
     EX+EC           =   -166.128313279
Transforming the Hamiltonian                       ... done (   0.3 sec)
Diagonalizing the Hamiltonian                      ... done (   0.5 sec)
Back transforming the eigenvectors                 ... done (   0.1 sec)
Now organizing SCF variables                       ... done
                      ------------------
                      INITIAL GUESS DONE (   9.4 sec)
                      ------------------
-------------------
DFT GRID GENERATION
-------------------

General Integration Accuracy     IntAcc      ... 4.388
Radial Grid Type                 RadialGrid  ... OptM3 with GC (2021)
Angular Grid (max. ang.)         AngularGrid ... 4 (Lebedev-302)
Angular grid pruning method      GridPruning ... 4 (adaptive)
Weight generation scheme         WeightScheme... Becke
Basis function cutoff            BFCut       ... 1.0000e-11
Integration weight cutoff        WCut        ... 1.0000e-14
Angular grids for H and He will be reduced by one unit
Partially contracted basis set               ... off
Rotationally invariant grid construction     ... off

Total number of grid points                  ...   228693
Total number of batches                      ...     3600
Average number of points per batch           ...       63
Average number of grid points per atom       ...     4866
Time for grid setup =    3.511 sec

--------------------
COSX GRID GENERATION
--------------------

GRIDX 1
-------
General Integration Accuracy     IntAcc      ... 3.816
Radial Grid Type                 RadialGrid  ... OptM3 with GC (2021)
Angular Grid (max. ang.)         AngularGrid ... 1 (Lebedev-50)
Angular grid pruning method      GridPruning ... 4 (adaptive)
Weight generation scheme         WeightScheme... Becke
Basis function cutoff            BFCut       ... 1.0000e-11
Integration weight cutoff        WCut        ... 1.0000e-14
Angular grids for H and He will be reduced by one unit
Partially contracted basis set               ... on
Rotationally invariant grid construction     ... off

Total number of grid points                  ...    29134
Total number of batches                      ...      478
Average number of points per batch           ...       60
Average number of grid points per atom       ...      620
UseSFitting                                  ... on

GRIDX 2
-------
General Integration Accuracy     IntAcc      ... 4.020
Radial Grid Type                 RadialGrid  ... OptM3 with GC (2021)
Angular Grid (max. ang.)         AngularGrid ... 2 (Lebedev-110)
Angular grid pruning method      GridPruning ... 4 (adaptive)
Weight generation scheme         WeightScheme... Becke
Basis function cutoff            BFCut       ... 1.0000e-11
Integration weight cutoff        WCut        ... 1.0000e-14
Angular grids for H and He will be reduced by one unit
Partially contracted basis set               ... on
Rotationally invariant grid construction     ... off

Total number of grid points                  ...    68275
Total number of batches                      ...     1091
Average number of points per batch           ...       62
Average number of grid points per atom       ...     1453
UseSFitting                                  ... on

GRIDX 3
-------
General Integration Accuracy     IntAcc      ... 4.338
Radial Grid Type                 RadialGrid  ... OptM3 with GC (2021)
Angular Grid (max. ang.)         AngularGrid ... 3 (Lebedev-194)
Angular grid pruning method      GridPruning ... 4 (adaptive)
Weight generation scheme         WeightScheme... Becke
Basis function cutoff            BFCut       ... 1.0000e-11
Integration weight cutoff        WCut        ... 1.0000e-14
Angular grids for H and He will be reduced by one unit
Partially contracted basis set               ... on
Rotationally invariant grid construction     ... off

Total number of grid points                  ...   147233
Total number of batches                      ...     2325
Average number of points per batch           ...       63
Average number of grid points per atom       ...     3133
UseSFitting                                  ... on

Time for X-Grid setup             =    8.832 sec


--------------------
CPCM SOLVATION MODEL
--------------------
CPCM parameters:
  Epsilon                                         ...       5.9867
  Refrac                                          ...       1.3723
  Rsolv                                           ...       1.3000
  Surface type                                    ... GAUSSIAN VDW
  Epsilon function type                           ...         CPCM
Solvent:                                     ... ETHYL ETHANOATE
SMD-CDS solvent descriptors:
  Soln                                       ...    1.3723
  Soln25                                     ...    1.3704
  Sola                                       ...    0.0000
  Solb                                       ...    0.4500
  Solg                                       ...   33.6700
  Solc                                       ...    0.0000
  Solh                                       ...    0.0000
Radii:
 Radius for C  used is    3.4960 Bohr (=   1.8500 Ang.)
 Radius for N  used is    3.5716 Bohr (=   1.8900 Ang.)
[...]
   Transformed RI-exchange        ...  1996.04 sec
   (ab|v) reading and digestion   ...  1919.59 sec
   Final sigma-completion         ...     0.01 sec
   Done building sigma-vectors             Size of expansion space: 50
   Lowest Energy          :     0.114153238654
   Maximum Energy change  :     0.002534419198 (vector 7)
   Maximum residual norm  :     0.000217669123

                       ****Iteration    3****
              <<< Entering MO-section for Build Sigma(Double) >>>
   Forming the XC and CPCM contribution:
   Time for densities:            0.600
   Time for XC-Integration:      30.674
   Time for LR-CPCM terms:       22.845
   Time for Sigma-Completion:     0.424
   Time for building 10 sigma-vectors
   Data Preparation Phase         ...     0.02 sec
   Transformed RI Coulomb         ...     2.36 sec
   Transformed RI-exchange        ...  2020.88 sec
   (ab|v) reading and digestion   ...  1943.30 sec
   Final sigma-completion         ...     0.01 sec
   Done building sigma-vectors             Size of expansion space: 60
   Lowest Energy          :     0.114099762249
   Maximum Energy change  :     0.000629784651 (vector 7)
   Maximum residual norm  :     0.000053986692

                       ****Iteration    4****
              <<< Entering MO-section for Build Sigma(Double) >>>
   Forming the XC and CPCM contribution:
   Time for densities:            0.583
   Time for XC-Integration:      30.040
   Time for LR-CPCM terms:       22.688
   Time for Sigma-Completion:     0.419
   Time for building 10 sigma-vectors
   Data Preparation Phase         ...     0.02 sec
   Transformed RI Coulomb         ...     2.63 sec
   Transformed RI-exchange        ...  2111.96 sec
   (ab|v) reading and digestion   ...  2032.23 sec
   Final sigma-completion         ...     0.01 sec
   Done building sigma-vectors             Size of expansion space: 70
   Lowest Energy          :     0.114095222747
   Maximum Energy change  :     0.000107461223 (vector 5)
   Maximum residual norm  :     0.000012889231
   Rebuilding the expansion space

                       ****Iteration    5****
              <<< Entering MO-section for Build Sigma(Double) >>>
   Forming the XC and CPCM contribution:
   Time for densities:            1.209
   Time for XC-Integration:      59.328
   Time for LR-CPCM terms:       36.602
   Time for Sigma-Completion:     0.850
   Time for building 20 sigma-vectors
   Data Preparation Phase         ...     0.03 sec
   Transformed RI Coulomb         ...     4.30 sec
   Transformed RI-exchange        ...  3896.61 sec
   (ab|v) reading and digestion   ...  3743.00 sec
   Final sigma-completion         ...     0.03 sec
   Done building sigma-vectors             Size of expansion space: 20
   Lowest Energy          :     0.114094984309
   Maximum Energy change  :     0.000015046418 (vector 5)
   Maximum residual norm  :     0.000002124726

                       ****Iteration    6****
              <<< Entering MO-section for Build Sigma(Double) >>>
   Forming the XC and CPCM contribution:
   Time for densities:            0.535
   Time for XC-Integration:      27.416
   Time for LR-CPCM terms:       22.446
   Time for Sigma-Completion:     0.388
   Time for building 10 sigma-vectors
   Data Preparation Phase         ...     0.02 sec
   Transformed RI Coulomb         ...     2.57 sec
   Transformed RI-exchange        ...  2077.77 sec
   (ab|v) reading and digestion   ...  1997.94 sec
   Final sigma-completion         ...     0.01 sec
   Done building sigma-vectors             Size of expansion space: 30
   Lowest Energy          :     0.114094958293
   Maximum Energy change  :     0.000006418211 (vector 9)
   Maximum residual norm  :     0.000001104149

                       ****Iteration    7****
              <<< Entering MO-section for Build Sigma(Double) >>>
   Forming the XC and CPCM contribution:
   Time for densities:            0.537
   Time for XC-Integration:      29.960
   Time for LR-CPCM terms:       22.624
   Time for Sigma-Completion:     0.444
   Time for building 10 sigma-vectors
   Data Preparation Phase         ...     0.02 sec
   Transformed RI Coulomb         ...     2.16 sec
   Transformed RI-exchange        ...  1822.80 sec
   (ab|v) reading and digestion   ...  1748.36 sec
   Final sigma-completion         ...     0.01 sec
   Done building sigma-vectors             Size of expansion space: 40
   Lowest Energy          :     0.114094955557
   Maximum Energy change  :     0.000002425200 (vector 9)
   Maximum residual norm  :     0.000000513687

      *** CONVERGENCE OF RESIDUAL NORM REACHED ***

Storing the converged CI vectors               ... optpbed3-b2plyp-test-572_job2.cis1

                 *** DAVIDSON DONE ***

Total time for solving the CIS problem: 16864.171sec

------------------
DOUBLES CORRECTION (Double precision version)
------------------

The (D) correction will be scaled by  0.2700
Doing v(i,a)*T(i,a) terms (RI)                    ... ok
Doing u(i,j,a,b) terms for state   0              ... ok
Doing u(i,j,a,b) terms for state   1              ... ok
Doing u(i,j,a,b) terms for state   2              ... ok
Doing u(i,j,a,b) terms for state   3              ... ok
Doing u(i,j,a,b) terms for state   4              ... ok
Doing u(i,j,a,b) terms for state   5              ... ok
Doing u(i,j,a,b) terms for state   6              ... ok
Doing u(i,j,a,b) terms for state   7              ... ok
Doing u(i,j,a,b) terms for state   8              ... ok
Doing u(i,j,a,b) terms for state   9              ... ok

Contributions to the (D) correction(s) (in eV)

STATE  Final   Init.   Total   v(ext)   v(int)  v(3)    u
       omega   omega     (D)                             
-----------------------------------------------------------------------------
   0   2.825   3.105  -0.279   0.768   0.755  -0.037  -1.765
   1   2.831   3.336  -0.504   0.711   1.050  -0.070  -2.195
   2   4.166   4.673  -0.507   0.536   0.979  -0.034  -1.988
   3   4.396   4.948  -0.551   0.612   0.945  -0.026  -2.081
   4   4.679   4.979  -0.299   0.042   1.025  -0.002  -1.364
   5   4.279   5.182  -0.903   0.699   0.881  -0.047  -2.436
   6   3.837   5.298  -1.461   0.711   0.760  -0.016  -2.916
   7   4.537   5.326  -0.789   0.615   0.919  -0.052  -2.271
   8   5.118   5.442  -0.324   0.039   1.027  -0.002  -1.389
   9   5.141   5.485  -0.344   0.049   1.035  -0.002  -1.426

(D)-timings
 V(i,a)*T(i,a) terms           ...  3002.421 sec
 U(i,j,a,b) 3-internal         ...    54.698 sec
 U(i,j,a,b) 3-external         ...  1140.500 sec
 U(i,j,a,b) pair terms         ...  1427.015 sec
 Total measured time           ... 12092.016 sec

 Time for (ab|v) I/O           ...   231.830 sec


------------------------------------
TD-DFT/TDA EXCITED STATES (SINGLETS)
------------------------------------

the weight of the individual excitations are printed if larger than 1.0e-02

STATE  1:  E=   0.103834 au      2.825 eV    22788.9 cm**-1 <S**2> =   0.000000
    89a ->  95a  :     0.015794 (c=  0.12567576)
    91a ->  95a  :     0.581536 (c= -0.76258509)
    91a -> 125a  :     0.012192 (c= -0.11041631)
    92a ->  95a  :     0.301657 (c= -0.54923286)

STATE  2:  E=   0.104054 au      2.831 eV    22837.1 cm**-1 <S**2> =   0.000000
    94a ->  95a  :     0.937818 (c=  0.96841008)

STATE  3:  E=   0.153099 au      4.166 eV    33601.4 cm**-1 <S**2> =   0.000000
    90a ->  95a  :     0.291368 (c=  0.53978499)
    90a -> 105a  :     0.010567 (c= -0.10279359)
    94a ->  98a  :     0.035980 (c= -0.18968302)
    94a ->  99a  :     0.103110 (c= -0.32110700)
    94a -> 102a  :     0.255545 (c= -0.50551466)
    94a -> 103a  :     0.112125 (c= -0.33485058)
    94a -> 104a  :     0.011490 (c= -0.10719040)
    94a -> 105a  :     0.096558 (c= -0.31073722)
    94a -> 109a  :     0.012109 (c=  0.11004314)

STATE  4:  E=   0.161561 au      4.396 eV    35458.5 cm**-1 <S**2> =   0.000000
    89a ->  95a  :     0.584412 (c= -0.76446855)
    89a -> 105a  :     0.012423 (c= -0.11145843)
    91a ->  99a  :     0.024388 (c=  0.15616710)
    92a ->  98a  :     0.013902 (c= -0.11790534)
    92a ->  99a  :     0.050309 (c= -0.22429602)
    94a ->  98a  :     0.039128 (c= -0.19780694)
    94a ->  99a  :     0.130403 (c= -0.36111319)
    94a -> 102a  :     0.035296 (c=  0.18787216)
    94a -> 103a  :     0.022304 (c=  0.14934386)

STATE  5:  E=   0.171959 au      4.679 eV    37740.7 cm**-1 <S**2> =   0.000000
    94a ->  96a  :     0.637967 (c= -0.79872836)
    94a ->  97a  :     0.131401 (c= -0.36249319)
    94a -> 100a  :     0.098100 (c= -0.31320869)
    94a -> 101a  :     0.011546 (c=  0.10745432)
    94a -> 108a  :     0.050835 (c=  0.22546605)

STATE  6:  E=   0.157261 au      4.279 eV    34514.8 cm**-1 <S**2> =   0.000000
    89a ->  99a  :     0.010000 (c= -0.10000008)
    91a ->  95a  :     0.219661 (c= -0.46867980)
    92a ->  95a  :     0.406580 (c=  0.63763596)
    93a ->  95a  :     0.273699 (c= -0.52316294)
    94a ->  95a  :     0.011459 (c= -0.10704600)

STATE  7:  E=   0.141006 au      3.837 eV    30947.3 cm**-1 <S**2> =   0.000000
    90a ->  95a  :     0.019192 (c=  0.13853462)
    91a ->  95a  :     0.078859 (c=  0.28081909)
    92a ->  95a  :     0.151874 (c= -0.38970977)
    93a ->  95a  :     0.693071 (c= -0.83250915)

STATE  8:  E=   0.166735 au      4.537 eV    36594.0 cm**-1 <S**2> =   0.000000
    90a ->  95a  :     0.601940 (c= -0.77584773)
    92a ->  95a  :     0.020518 (c= -0.14323933)
    94a ->  97a  :     0.011071 (c= -0.10521943)
    94a ->  98a  :     0.029638 (c= -0.17215594)
    94a ->  99a  :     0.066885 (c= -0.25862137)
    94a -> 102a  :     0.127584 (c= -0.35718961)
    94a -> 103a  :     0.064728 (c= -0.25441694)

STATE  9:  E=   0.188093 au      5.118 eV    41281.7 cm**-1 <S**2> =   0.000000
    94a ->  97a  :     0.015168 (c= -0.12315918)
    94a ->  98a  :     0.633217 (c=  0.79574919)
    94a ->  99a  :     0.154930 (c= -0.39361170)
    94a -> 100a  :     0.091222 (c=  0.30202949)
    94a -> 106a  :     0.030294 (c= -0.17405255)

STATE 10:  E=   0.188928 au      5.141 eV    41464.9 cm**-1 <S**2> =   0.000000
    94a ->  96a  :     0.115361 (c= -0.33964827)
    94a ->  97a  :     0.544283 (c=  0.73775566)
    94a ->  99a  :     0.025509 (c= -0.15971450)
    94a -> 104a  :     0.204773 (c= -0.45251869)
    94a -> 108a  :     0.013351 (c= -0.11554566)
    94a -> 112a  :     0.010122 (c= -0.10060708)


-----------------------------
TD-DFT/TDA-EXCITATION SPECTRA
-----------------------------

Center of mass = (  3.5934, -0.0504,  0.5781)
Calculating the Dipole integrals                  ... done
Transforming integrals                            ... done
Calculating the Linear Momentum integrals         ... done
Transforming integrals                            ... done
Calculating angular momentum integrals            ... done
Transforming integrals                            ... done

-----------------------------------------------------------------------------
         ABSORPTION SPECTRUM VIA TRANSITION ELECTRIC DIPOLE MOMENTS
-----------------------------------------------------------------------------
State   Energy    Wavelength  fosc         T2        TX        TY        TZ  
        (cm-1)      (nm)                 (au**2)    (au)      (au)      (au) 
-----------------------------------------------------------------------------
   1   22788.9    438.8   0.001345095   0.01943  -0.13899   0.00987  -0.00403
   2   22837.1    437.9   1.359758030  19.60180   4.42490   0.03015   0.14553
   3   33601.4    297.6   0.039433011   0.38635   0.43361  -0.17940   0.40761
   4   35458.5    282.0   0.012026411   0.11166   0.04271   0.16861  -0.28532
   5   37740.7    265.0   0.009976173   0.08702  -0.00447  -0.28105  -0.08952
   6   34514.8    289.7   0.034496836   0.32904   0.54341  -0.05001   0.17677
   7   30947.3    323.1   0.012411926   0.13204  -0.32804   0.01167  -0.15585
   8   36594.0    273.3   0.196362312   1.76654   0.75726  -0.47189   0.98510
   9   41281.7    242.2   0.001560116   0.01244  -0.10768  -0.01805   0.02281
  10   41464.9    241.2   0.018697213   0.14845   0.11531  -0.34598   0.12430

-----------------------------------------------------------------------------
         ABSORPTION SPECTRUM VIA TRANSITION VELOCITY DIPOLE MOMENTS
-----------------------------------------------------------------------------
State   Energy    Wavelength   fosc        P2         PX        PY        PZ  
        (cm-1)      (nm)                 (au**2)     (au)      (au)      (au) 
-----------------------------------------------------------------------------
   1   22788.9    438.8   0.001350130   0.00021   0.01230   0.00689   0.00339
   2   22837.1    437.9   1.367015771   0.21336  -0.46185  -0.00630   0.00405
   3   33601.4    297.6   0.019786556   0.00454  -0.06726  -0.00319   0.00315
   4   35458.5    282.0   0.001266802   0.00031  -0.01414  -0.00607   0.00838
   5   37740.7    265.0   0.008783266   0.00227   0.00012   0.04675   0.00897
   6   34514.8    289.7   0.041956723   0.00990  -0.09868  -0.00956   0.00827
   7   30947.3    323.1   0.015101187   0.00319   0.05566   0.00914  -0.00348
   8   36594.0    273.3   0.052937529   0.01324  -0.11226   0.00854  -0.02376
   9   41281.7    242.2   0.001471580   0.00042   0.01985   0.00382  -0.00259
  10   41464.9    241.2   0.007117416   0.00202  -0.01730   0.04144  -0.00049

-------------------------------------------------------------------
                             CD SPECTRUM
-------------------------------------------------------------------
State  Energy     Wavelength     R         MX        MY        MZ   
       (cm-1)       (nm)     (1e40*cgs)   (au)      (au)      (au)  
-------------------------------------------------------------------
   1   22788.9    438.8    -25.09172   0.37340  -0.05941   0.18329
   2   22837.1    437.9     29.62957   0.01039   0.02627   0.11054
   3   33601.4    297.6      3.78074   0.00048  -0.36306  -0.14062
   4   35458.5    282.0      2.12175  -0.00676   0.03739   0.00531
   5   37740.7    265.0     -2.38893  -0.00310  -0.05430   0.22725
   6   34514.8    289.7      6.37713  -0.00239   0.22167   0.14657
   7   30947.3    323.1      1.36423   0.00150  -0.09611  -0.02892
   8   36594.0    273.3     21.34085  -0.00901  -0.01700   0.04473
   9   41281.7    242.2     -5.95070   0.11906   0.02612   0.02937
  10   41464.9    241.2     -6.22939  -0.02385   0.03715   0.01922

-------------------------------------------------------------------
         CD SPECTRUM VIA TRANSITION VELOCITY DIPOLE MOMENTS        
-------------------------------------------------------------------
State  Energy     Wavelength     R         MX        MY        MZ   
       (cm-1)       (nm)     (1e40*cgs)   (au)      (au)      (au)  
-------------------------------------------------------------------
   1   22788.9    438.8     21.81202   0.37340  -0.05941   0.18329
   2   22837.1    437.9    -20.45995   0.01039   0.02627   0.11054
   3   33601.4    297.6      2.10847   0.00048  -0.36306  -0.14062
   4   35458.5    282.0     -0.25359  -0.00676   0.03739   0.00531
   5   37740.7    265.0     -1.37471  -0.00310  -0.05430   0.22725
   6   34514.8    289.7     -2.00875  -0.00239   0.22167   0.14657
   7   30947.3    323.1     -2.32092   0.00150  -0.09611  -0.02892
   8   36594.0    273.3     -0.55518  -0.00901  -0.01700   0.04473
   9   41281.7    242.2      5.98173   0.11906   0.02612   0.02937
  10   41464.9    241.2      4.84825  -0.02385   0.03715   0.01922

Total run time:    28970.224 sec

           *** ORCA-CIS/TD-DFT FINISHED WITHOUT ERROR ***

Maximum memory used throughout the entire CIS-calculation: 3145.0 MB

-----------------------
CIS/TD-DFT TOTAL ENERGY
-----------------------

    E(SCF)  =  -1253.148973871 Eh
    DE(CIS) =      0.103833733 Eh (Root  1)
    ----------------------------- ---------
    E(tot)  =  -1253.045140138 Eh



-------------------------------------------------------------------------------
                          DFT DISPERSION CORRECTION                            
                                                                               
                              DFTD3 V3.1  Rev 1                                
                          USING Becke-Johnson damping                          
-------------------------------------------------------------------------------
The B2PLYP functional is recognized
Active option DFTDOPT                   ...         4   

molecular C6(AA) [au] = 22752.628643 


            DFT-D V3
 parameters
 s6 scaling factor         :     0.6400 
 a1 scaling factor         :     0.3065 
 s8 scaling factor         :     0.9147 
 a2 scaling factor         :     5.0570 
 ad hoc parameters k1-k3   :    16.0000     1.3333    -4.0000 

 Edisp/kcal,au: -27.947447389517  -0.044537087588 
 E6   /kcal   : -16.013716165 
 E8   /kcal   : -11.933731224 
 % E8         :  42.700612539 

-------------------------   ----------------
Dispersion correction           -0.044537088
-------------------------   ----------------


-------------------------   --------------------
FINAL SINGLE POINT ENERGY     -1253.089677225675
-------------------------   --------------------


                            ***************************************
                            *     ORCA property calculations      *
                            ***************************************


  WARNING: The energy has been calculated at the MP2 level but the densities
           used in the property calculations are still SCF densities
           MP2 response densities have not been calculated 
           use %mp2 Density relaxed end
           or  %mp2 Density unrelaxed end

                                    ---------------------
                                    Active property flags
                                    ---------------------
   (+) Dipole Moment


------------------------------------------------------------------------------
                       ORCA ELECTRIC PROPERTIES CALCULATION
------------------------------------------------------------------------------

Dipole Moment Calculation                       ... on
Quadrupole Moment Calculation                   ... off
Polarizability Calculation                      ... off
GBWName                                         ... optpbed3-b2plyp-test-572_job2.gbw
Electron density                                ... optpbed3-b2plyp-test-572_job2.scfp
The origin for moment calculation is the CENTER OF MASS  = ( 3.593429, -0.050366  0.578072)

-------------
DIPOLE MOMENT
-------------
                                X             Y             Z
Electronic contribution:     96.95093      -0.75325       2.76808
Nuclear contribution   :   -100.94216       1.03896      -2.89063
                        -----------------------------------------
Total Dipole Moment    :     -3.99123       0.28570      -0.12255
                        -----------------------------------------
Magnitude (a.u.)       :      4.00332
Magnitude (Debye)      :     10.17564



--------------------
Rotational spectrum 
--------------------
 
Rotational constants in cm-1:     0.041115     0.001433     0.001404 
Rotational constants in MHz :  1232.595229    42.953000    42.104373 

 Dipole components along the rotational axes: 
x,y,z [a.u.] :    -3.993780     0.102821     0.256416 
x,y,z [Debye]:   -10.151381     0.261351     0.651759 

 

Timings for individual modules:

Sum of individual times         ...    34319.122 sec (= 571.985 min)
GTO integral calculation        ...        8.102 sec (=   0.135 min)   0.0 %
SCF iterations                  ...     2091.364 sec (=  34.856 min)   6.1 %
MP2 module                      ...     3246.989 sec (=  54.116 min)   9.5 %
CIS module                      ...    28972.668 sec (= 482.878 min)  84.4 %



                             ****ORCA TERMINATED NORMALLY****
TOTAL RUN TIME: 1 days 13 hours 6 minutes 15 seconds 977 msec
