
                                 *****************
                                 * O   R   C   A *
                                 *****************

                                            #,                                       
                                            ###                                      
                                            ####                                     
                                            #####                                    
                                            ######                                   
                                           ########,                                 
                                     ,,################,,,,,                         
                               ,,#################################,,                 
                          ,,##########################################,,             
                       ,#########################################, ''#####,          
                    ,#############################################,,   '####,        
                  ,##################################################,,,,####,       
                ,###########''''           ''''###############################       
              ,#####''   ,,,,##########,,,,          '''####'''          '####       
            ,##' ,,,,###########################,,,                        '##       
           ' ,,###''''                  '''############,,,                           
         ,,##''                                '''############,,,,        ,,,,,,###''
      ,#''                                            '''#######################'''  
     '                                                          ''''####''''         
             ,#######,   #######,   ,#######,      ##                                
            ,#'     '#,  ##    ##  ,#'     '#,    #''#        ######   ,####,        
            ##       ##  ##   ,#'  ##            #'  '#       #        #'  '#        
            ##       ##  #######   ##           ,######,      #####,   #    #        
            '#,     ,#'  ##    ##  '#,     ,#' ,#      #,         ##   #,  ,#        
             '#######'   ##     ##  '#######'  #'      '#     #####' # '####'        



                  #######################################################
                  #                        -***-                        #
                  #          Department of theory and spectroscopy      #
                  #    Directorship and core code : Frank Neese         #
                  #        Max Planck Institute fuer Kohlenforschung    #
                  #                Kaiser Wilhelm Platz 1               #
                  #                 D-45470 Muelheim/Ruhr               #
                  #                      Germany                        #
                  #                                                     #
                  #                  All rights reserved                #
                  #                        -***-                        #
                  #######################################################


                         Program Version 5.0.2 -  RELEASE  -


 With contributions from (in alphabetic order):
   Daniel Aravena         : Magnetic Suceptibility
   Michael Atanasov       : Ab Initio Ligand Field Theory (pilot matlab implementation)
   Alexander A. Auer      : GIAO ZORA, VPT2 properties, NMR spectrum
   Ute Becker             : Parallelization
   Giovanni Bistoni       : ED, misc. LED, open-shell LED, HFLD
   Martin Brehm           : Molecular dynamics
   Dmytro Bykov           : SCF Hessian
   Vijay G. Chilkuri      : MRCI spin determinant printing, contributions to CSF-ICE
   Dipayan Datta          : RHF DLPNO-CCSD density
   Achintya Kumar Dutta   : EOM-CC, STEOM-CC
   Dmitry Ganyushin       : Spin-Orbit,Spin-Spin,Magnetic field MRCI
   Miquel Garcia          : C-PCM and meta-GGA Hessian, CC/C-PCM, Gaussian charge scheme
   Yang Guo               : DLPNO-NEVPT2, F12-NEVPT2, CIM, IAO-localization
   Andreas Hansen         : Spin unrestricted coupled pair/coupled cluster methods
   Benjamin Helmich-Paris : MC-RPA, TRAH-SCF, COSX integrals
   Lee Huntington         : MR-EOM, pCC
   Robert Izsak           : Overlap fitted RIJCOSX, COSX-SCS-MP3, EOM
   Marcus Kettner         : VPT2
   Christian Kollmar      : KDIIS, OOCD, Brueckner-CCSD(T), CCSD density, CASPT2, CASPT2-K
   Simone Kossmann        : Meta GGA functionals, TD-DFT gradient, OOMP2, MP2 Hessian
   Martin Krupicka        : Initial AUTO-CI
   Lucas Lang             : DCDCAS
   Marvin Lechner         : AUTO-CI (C++ implementation), FIC-MRCC
   Dagmar Lenk            : GEPOL surface, SMD
   Dimitrios Liakos       : Extrapolation schemes; Compound Job, initial MDCI parallelization
   Dimitrios Manganas     : Further ROCIS development; embedding schemes
   Dimitrios Pantazis     : SARC Basis sets
   Anastasios Papadopoulos: AUTO-CI, single reference methods and gradients
   Taras Petrenko         : DFT Hessian,TD-DFT gradient, ASA, ECA, R-Raman, ABS, FL, XAS/XES, NRVS
   Peter Pinski           : DLPNO-MP2, DLPNO-MP2 Gradient
   Christoph Reimann      : Effective Core Potentials
   Marius Retegan         : Local ZFS, SOC
   Christoph Riplinger    : Optimizer, TS searches, QM/MM, DLPNO-CCSD(T), (RO)-DLPNO pert. Triples
   Tobias Risthaus        : Range-separated hybrids, TD-DFT gradient, RPA, STAB
   Michael Roemelt        : Original ROCIS implementation
   Masaaki Saitow         : Open-shell DLPNO-CCSD energy and density
   Barbara Sandhoefer     : DKH picture change effects
   Avijit Sen             : IP-ROCIS
   Kantharuban Sivalingam : CASSCF convergence, NEVPT2, FIC-MRCI
   Bernardo de Souza      : ESD, SOC TD-DFT
   Georgi Stoychev        : AutoAux, RI-MP2 NMR, DLPNO-MP2 response
   Willem Van den Heuvel  : Paramagnetic NMR
   Boris Wezisla          : Elementary symmetry handling
   Frank Wennmohs         : Technical directorship


 We gratefully acknowledge several colleagues who have allowed us to
 interface, adapt or use parts of their codes:
   Stefan Grimme, W. Hujo, H. Kruse, P. Pracht,  : VdW corrections, initial TS optimization,
                  C. Bannwarth, S. Ehlert          DFT functionals, gCP, sTDA/sTD-DF
   Ed Valeev, F. Pavosevic, A. Kumar             : LibInt (2-el integral package), F12 methods
   Garnet Chan, S. Sharma, J. Yang, R. Olivares  : DMRG
   Ulf Ekstrom                                   : XCFun DFT Library
   Mihaly Kallay                                 : mrcc  (arbitrary order and MRCC methods)
   Jiri Pittner, Ondrej Demel                    : Mk-CCSD
   Frank Weinhold                                : gennbo (NPA and NBO analysis)
   Christopher J. Cramer and Donald G. Truhlar   : smd solvation model
   Lars Goerigk                                  : TD-DFT with DH, B97 family of functionals
   V. Asgeirsson, H. Jonsson                     : NEB implementation
   FAccTs GmbH                                   : IRC, NEB, NEB-TS, DLPNO-Multilevel, CI-OPT
                                                   MM, QMMM, 2- and 3-layer-ONIOM, Crystal-QMMM,
                                                   LR-CPCM, SF, NACMEs, symmetry and pop. for TD-DFT,
                                                   nearIR, NL-DFT gradient (VV10), updates on ESD,
                                                   ML-optimized integration grids
   S Lehtola, MJT Oliveira, MAL Marques          : LibXC Library
   Liviu Ungur et al                             : ANISO software


 Your calculation uses the libint2 library for the computation of 2-el integrals
 For citations please refer to: http://libint.valeyev.net

 Your ORCA version has been built with support for libXC version: 5.1.0
 For citations please refer to: https://tddft.org/programs/libxc/

 This ORCA versions uses:
   CBLAS   interface :  Fast vector & matrix operations
   LAPACKE interface :  Fast linear algebra routines
   SCALAPACK package :  Parallel linear algebra routines
   Shared memory     :  Shared parallel matrices
   BLAS/LAPACK       :  OpenBLAS 0.3.15  USE64BITINT DYNAMIC_ARCH NO_AFFINITY Sandybridge SINGLE_THREADED
        Core in use  :  Sandybridge
   Copyright (c) 2011-2014, The OpenBLAS Project


Your calculation utilizes the geometrical counterpoise correction gCP
Please cite in your paper:
H.Kruse, S. Grimme J.Chem.Phys., 136, (2012), 154101 
   

Your calculation utilizes the atom-pairwise dispersion correction
with the Becke-Johnson damping scheme (D3BJ)
Cite in your paper:
S.Grimme, S.Ehrlich, L.Goerigk, J Comput Chem, (2011), 32, 1456–1465 
S.Grimme, J.Antony, S.Ehrlich and H.Krieg, J.Chem.Phys., 132, (2010), 154104 
   

Your calculation employs the composite approach PBEh-3c.
Please cite in your paper:
S. Grimme, J. G. Brandenburg, C. Bannwarth, A. Hansen J.Chem.Phys., 143, (2015), 054107 
   

Your calculation utilizes the SMD solvation module
Please cite in your paper:
A.V. Marenich, C.J. Cramer, D.G. Truhlar J. Phys. Chem. B, 113, (2009), 6378 

================================================================================

----- Orbital basis set information -----
Your calculation utilizes the basis: def2-mSVP

----- AuxJ basis set information -----
Your calculation utilizes the auxiliary basis: def2/J
   F. Weigend, Phys. Chem. Chem. Phys. 8, 1057 (2006).

================================================================================
                                        WARNINGS
                       Please study these warnings very carefully!
================================================================================


WARNING: Geometry Optimization
  ===> : Switching off AutoStart
         For restart on a previous wavefunction, please use MOREAD

INFO   : the flag for use of the SHARK integral package has been found!

================================================================================
                                       INPUT FILE
================================================================================
NAME = optpbed3-b2plyp-test-577-optimize-part.inp
|  1> # first optimize with def2-SVP
|  2> ! PBEh-3c OPT
|  3> %maxcore 4000
|  4> %cpcm
|  5>  SMD true
|  6>  SMDsolvent "acetonitrile"
|  7> end
|  8> 
|  9> 
| 10> %pal nprocs 4 end
| 11> * xyz 0 1
| 12> C          5.08110       -1.21880       -1.90460
| 13> C          4.14970       -2.26520       -1.30970
| 14> O          2.83270       -1.74630       -1.12130
| 15> C          2.59320       -1.09360        0.00990
| 16> O          3.41610       -0.83480        0.85060
| 17> C          1.14010       -0.74760        0.10380
| 18> C          0.21480       -1.74280        0.13270
| 19> C         -1.16410       -1.42220        0.23800
| 20> C         -1.90220       -2.61490        0.25110
| 21> C         -3.26890       -2.54310        0.33850
| 22> C         -3.84240       -1.26750        0.41240
| 23> C         -3.11190       -0.08690        0.40320
| 24> O         -3.69940        1.14260        0.47870
| 25> C         -5.09900        1.23500        0.58540
| 26> C         -1.69150       -0.14040        0.31190
| 27> C         -0.72130        0.93480        0.29130
| 28> C         -1.08420        2.26880        0.36350
| 29> C         -0.14540        3.30620        0.34830
| 30> C         -0.52890        4.66560        0.42580
| 31> C          0.40950        5.65530        0.41140
| 32> C          1.77950        5.34030        0.31900
| 33> C          2.18540        4.04100        0.24200
| 34> C          1.23880        2.98890        0.25400
| 35> C          1.61300        1.64630        0.17490
| 36> C          0.68360        0.61460        0.19420
| 37> N         -1.00910       -3.67340        0.16800
| 38> C         -1.37020       -5.06330        0.16790
| 39> C          0.29790       -3.22560        0.10420
| 40> O          1.26760       -3.95070        0.04990
| 41> H          5.21410       -0.39710       -1.20500
| 42> H          4.66800       -0.83040       -2.83280
| 43> H          6.04990       -1.66670       -2.10690
| 44> H          4.53090       -2.61240       -0.34450
| 45> H          4.02150       -3.11400       -1.98380
| 46> H         -3.90070       -3.41690        0.35230
| 47> H         -4.91740       -1.22110        0.48090
| 48> H         -5.46850        0.74580        1.49220
| 49> H         -5.60040        0.81140       -0.29060
| 50> H         -5.31630        2.30100        0.64060
| 51> H         -2.12680        2.52670        0.43560
| 52> H         -1.58090        4.90170        0.49760
| 53> H          0.11140        6.69190        0.47160
| 54> H          2.50410        6.14130        0.31050
| 55> H          3.23410        3.79080        0.17320
| 56> H          2.66380        1.40720        0.11270
| 57> H         -1.90150       -5.32450        1.08590
| 58> H         -0.44740       -5.63950        0.10710
| 59> H         -2.00250       -5.29770       -0.69150
| 60> *
| 61> 
| 62> 
| 63>                          ****END OF INPUT****
================================================================================

                       *****************************
                       * Geometry Optimization Run *
                       *****************************

Geometry optimization settings:
Update method            Update   .... BFGS
Choice of coordinates    CoordSys .... Z-matrix Internals
Initial Hessian          InHess   .... Almoef's Model

Convergence Tolerances:
Energy Change            TolE     ....  5.0000e-06 Eh
Max. Gradient            TolMAXG  ....  3.0000e-04 Eh/bohr
RMS Gradient             TolRMSG  ....  1.0000e-04 Eh/bohr
Max. Displacement        TolMAXD  ....  4.0000e-03 bohr
RMS Displacement         TolRMSD  ....  2.0000e-03 bohr
Strict Convergence                ....  False
------------------------------------------------------------------------------
                        ORCA OPTIMIZATION COORDINATE SETUP
------------------------------------------------------------------------------

The optimization will be done in new redundant internal coordinates
Making redundant internal coordinates   ...  (new redundants) done
Evaluating the initial hessian          ...  (Almloef) done
Evaluating the coordinates              ...  done
Calculating the B-matrix                .... done
Calculating the G-matrix                .... done
Diagonalizing the G-matrix              .... done
Small eigenvalue found = 3.464e-03
Small eigenvalue found = 5.960e-03
Small eigenvalue found = 6.891e-03
Small eigenvalue found = 1.505e-02
Small eigenvalue found = 2.153e-02
Small eigenvalue found = 2.808e-02
The first mode is                       ....  128
The number of degrees of freedom        ....  138

    -----------------------------------------------------------------
                    Redundant Internal Coordinates


    -----------------------------------------------------------------
         Definition                    Initial Value    Approx d2E/dq
    -----------------------------------------------------------------
      1. B(C   1,C   0)                  1.5220         0.384772   
      2. B(O   2,C   1)                  1.4280         0.486651   
      3. B(C   3,O   2)                  1.3278         0.703313   
      4. B(O   4,C   3)                  1.2045         1.106022   
      5. B(C   5,C   3)                  1.4967         0.422228   
      6. B(C   6,C   5)                  1.3592         0.699632   
      7. B(C   7,C   6)                  1.4196         0.560439   
      8. B(C   8,C   7)                  1.4027         0.596371   
      9. B(C   9,C   8)                  1.3714         0.669048   
     10. B(C  10,C   9)                  1.4005         0.601062   
     11. B(C  11,C  10)                  1.3884         0.628582   
     12. B(O  12,C  11)                  1.3647         0.614002   
     13. B(C  13,O  12)                  1.4067         0.526299   
     14. B(C  14,C  11)                  1.4243         0.550753   
     15. B(C  14,C   7)                  1.3880         0.629338   
     16. B(C  15,C  14)                  1.4484         0.504217   
     17. B(C  16,C  15)                  1.3844         0.637866   
     18. B(C  17,C  16)                  1.3992         0.604021   
     19. B(C  18,C  17)                  1.4146         0.570843   
     20. B(C  19,C  18)                  1.3639         0.687590   
     21. B(C  20,C  19)                  1.4088         0.583143   
     22. B(C  21,C  20)                  1.3634         0.688929   
     23. B(C  22,C  21)                  1.4153         0.569317   
     24. B(C  22,C  17)                  1.4232         0.552998   
     25. B(C  23,C  22)                  1.3960         0.611142   
     26. B(C  24,C  23)                  1.3887         0.627726   
     27. B(C  24,C  15)                  1.4442         0.512004   
     28. B(C  24,C   5)                  1.4395         0.520917   
     29. B(N  25,C   8)                  1.3874         0.564910   
     30. B(C  26,N  25)                  1.4360         0.472519   
     31. B(C  27,C   6)                  1.4854         0.440082   
     32. B(C  27,N  25)                  1.3831         0.574056   
     33. B(O  28,C  27)                  1.2120         1.075975   
     34. B(H  29,C   0)                  1.0873         0.363629   
     35. B(H  30,C   0)                  1.0877         0.363174   
     36. B(H  31,C   0)                  1.0863         0.364988   
     37. B(H  32,C   1)                  1.0943         0.354468   
     38. B(H  33,C   1)                  1.0915         0.358160   
     39. B(H  34,C   9)                  1.0784         0.375814   
     40. B(H  35,C  10)                  1.0782         0.376082   
     41. B(H  36,C  13)                  1.0946         0.354075   
     42. B(H  37,C  13)                  1.0946         0.354027   
     43. B(H  38,C  13)                  1.0893         0.360998   
     44. B(H  39,C  16)                  1.0764         0.378491   
     45. B(H  40,C  18)                  1.0806         0.372812   
     46. B(H  41,C  19)                  1.0803         0.373176   
     47. B(H  42,C  20)                  1.0801         0.373372   
     48. B(H  43,C  21)                  1.0803         0.373127   
     49. B(H  44,C  23)                  1.0795         0.374326   
     50. B(H  45,C  26)                  1.0924         0.357004   
     51. B(H  46,C  26)                  1.0896         0.360608   
     52. B(H  47,C  26)                  1.0924         0.356953   
     53. A(H  30,C   0,H  31)          109.0879         0.291846   
     54. A(C   1,C   0,H  30)          110.2824         0.326353   
     55. A(C   1,C   0,H  31)          109.5774         0.326621   
     56. A(C   1,C   0,H  29)          110.0554         0.326420   
     57. A(H  29,C   0,H  31)          108.8027         0.291904   
     58. A(H  29,C   0,H  30)          109.0060         0.291675   
     59. A(O   2,C   1,H  33)          104.8173         0.336474   
     60. A(H  32,C   1,H  33)          109.8114         0.289875   
     61. A(C   0,C   1,H  33)          111.4164         0.325608   
     62. A(C   0,C   1,O   2)          111.4775         0.379813   
     63. A(C   0,C   1,H  32)          110.4706         0.325053   
     64. A(O   2,C   1,H  32)          108.6747         0.335894   
     65. A(C   1,O   2,C   3)          117.2179         0.419609   
     66. A(O   2,C   3,O   4)          125.2399         0.487120   
     67. A(O   4,C   3,C   5)          124.7375         0.446640   
     68. A(O   2,C   3,C   5)          110.0120         0.411808   
     69. A(C   3,C   5,C   6)          119.5388         0.414100   
     70. A(C   6,C   5,C  24)          118.4019         0.429929   
     71. A(C   3,C   5,C  24)          122.0458         0.393104   
     72. A(C   5,C   6,C  27)          133.8218         0.417162   
     73. A(C   5,C   6,C   7)          119.8328         0.435619   
     74. A(C   7,C   6,C  27)          106.3323         0.401092   
     75. A(C   8,C   7,C  14)          125.7882         0.432204   
     76. A(C   6,C   7,C  14)          125.5616         0.427410   
     77. A(C   6,C   7,C   8)          108.6500         0.423314   
     78. A(C   9,C   8,N  25)          133.2574         0.429919   
     79. A(C   7,C   8,N  25)          108.0250         0.421160   
     80. A(C   7,C   8,C   9)          118.7176         0.436990   
     81. A(C  10,C   9,H  34)          119.8297         0.353608   
     82. A(C   8,C   9,H  34)          122.8388         0.360104   
     83. A(C   8,C   9,C  10)          117.3315         0.437608   
     84. A(C   9,C  10,C  11)          123.9655         0.432719   
     85. A(C   9,C  10,H  35)          116.7967         0.353651   
     86. A(C  11,C  10,H  35)          119.2378         0.356346   
     87. A(O  12,C  11,C  14)          117.8189         0.421443   
     88. A(C  10,C  11,O  12)          122.6305         0.431539   
     89. A(C  10,C  11,C  14)          119.5506         0.425986   
     90. A(C  11,O  12,C  13)          119.4513         0.415335   
     91. A(H  37,C  13,H  38)          109.1398         0.290177   
     92. A(H  36,C  13,H  38)          109.1497         0.290184   
     93. A(O  12,C  13,H  38)          105.4619         0.341351   
     94. A(H  36,C  13,H  37)          109.5967         0.289298   
     95. A(O  12,C  13,H  37)          111.6923         0.340239   
     96. A(O  12,C  13,H  36)          111.6753         0.340247   
     97. A(C  11,C  14,C  15)          129.8690         0.409584   
     98. A(C   7,C  14,C  11)          114.6461         0.426078   
     99. A(C   7,C  14,C  15)          115.4841         0.419409   
    100. A(C  16,C  15,C  24)          118.1749         0.421569   
    101. A(C  14,C  15,C  16)          122.6160         0.420417   
    102. A(C  14,C  15,C  24)          119.2090         0.404333   
    103. A(C  15,C  16,C  17)          122.5473         0.434246   
    104. A(C  17,C  16,H  39)          118.2261         0.354328   
    105. A(C  15,C  16,H  39)          119.2265         0.357623   
    106. A(C  18,C  17,C  22)          118.7865         0.419020   
    107. A(C  16,C  17,C  22)          119.2077         0.423267   
    108. A(C  16,C  17,C  18)          122.0057         0.425679   
    109. A(C  17,C  18,C  19)          120.6781         0.435700   
    110. A(C  19,C  18,H  40)          120.7960         0.361292   
    111. A(C  17,C  18,H  40)          118.5258         0.350062   
    112. A(C  18,C  19,C  20)          120.4986         0.437377   
    113. A(C  20,C  19,H  41)          119.1146         0.351383   
    114. A(C  18,C  19,H  41)          120.3868         0.361353   
    115. A(C  19,C  20,C  21)          120.4180         0.437530   
    116. A(C  19,C  20,H  42)          119.1483         0.351414   
    117. A(C  21,C  20,H  42)          120.4337         0.361505   
    118. A(C  20,C  21,C  22)          120.5854         0.435642   
    119. A(C  22,C  21,H  43)          118.5304         0.349954   
    120. A(C  20,C  21,H  43)          120.8839         0.361464   
    121. A(C  17,C  22,C  23)          118.6113         0.424155   
    122. A(C  17,C  22,C  21)          119.0333         0.418820   
    123. A(C  21,C  22,C  23)          122.3553         0.426369   
    124. A(C  22,C  23,H  44)          118.5043         0.354368   
    125. A(C  24,C  23,H  44)          119.1913         0.355981   
    126. A(C  22,C  23,C  24)          122.2969         0.433909   
    127. A(C  15,C  24,C  23)          119.1604         0.420365   
    128. A(C   5,C  24,C  23)          119.3347         0.421662   
    129. A(C   5,C  24,C  15)          121.5020         0.406668   
    130. A(C  26,N  25,C  27)          123.4354         0.402657   
    131. A(C   8,N  25,C  27)          111.3496         0.415596   
    132. A(C   8,N  25,C  26)          125.2082         0.401519   
    133. A(H  46,C  26,H  47)          109.4412         0.290503   
    134. A(H  45,C  26,H  47)          109.1662         0.290046   
    135. A(N  25,C  26,H  47)          110.6883         0.334641   
    136. A(H  45,C  26,H  46)          109.4124         0.290510   
    137. A(N  25,C  26,H  46)          107.3894         0.335208   
    138. A(N  25,C  26,H  45)          110.7125         0.334649   
    139. A(N  25,C  27,O  28)          124.3627         0.466872   
    140. A(C   6,C  27,O  28)          130.0024         0.447764   
    141. A(C   6,C  27,N  25)          105.6319         0.400210   
    142. D(O   2,C   1,C   0,H  30)    -55.5028         0.011785   
    143. D(H  32,C   1,C   0,H  29)    -56.1444         0.011785   
    144. D(O   2,C   1,C   0,H  29)     64.7968         0.011785   
    145. D(H  33,C   1,C   0,H  31)    -58.8859         0.011785   
    146. D(H  32,C   1,C   0,H  31)     63.4595         0.011785   
    147. D(H  33,C   1,C   0,H  29)   -178.4898         0.011785   
    148. D(H  33,C   1,C   0,H  30)     61.2107         0.011785   
    149. D(O   2,C   1,C   0,H  31)   -175.5993         0.011785   
    150. D(H  32,C   1,C   0,H  30)   -176.4440         0.011785   
    151. D(C   3,O   2,C   1,H  32)     36.2844         0.018694   
    152. D(C   3,O   2,C   1,C   0)    -85.7004         0.018694   
    153. D(C   3,O   2,C   1,H  33)    153.6377         0.018694   
    154. D(C   5,C   3,O   2,C   1)   -174.1073         0.037076   
    155. D(O   4,C   3,O   2,C   1)      4.7555         0.037076   
    156. D(C   6,C   5,C   3,O   2)     61.6863         0.012196   
    157. D(C  24,C   5,C   3,O   2)   -119.6748         0.012196   
    158. D(C  24,C   5,C   3,O   4)     61.4554         0.012196   
    159. D(C   6,C   5,C   3,O   4)   -117.1834         0.012196   
    160. D(C  27,C   6,C   5,C  24)   -177.9386         0.034471   
    161. D(C  27,C   6,C   5,C   3)      0.7498         0.034471   
    162. D(C   7,C   6,C   5,C  24)      0.5505         0.034471   
    163. D(C   7,C   6,C   5,C   3)    179.2389         0.034471   
    164. D(C  14,C   7,C   6,C  27)    179.1864         0.021516   
    165. D(C  14,C   7,C   6,C   5)      0.3223         0.021516   
    166. D(C   8,C   7,C   6,C  27)     -0.9722         0.021516   
    167. D(C   8,C   7,C   6,C   5)   -179.8363         0.021516   
    168. D(N  25,C   8,C   7,C  14)   -179.6358         0.024502   
    169. D(N  25,C   8,C   7,C   6)      0.5233         0.024502   
    170. D(C   9,C   8,C   7,C  14)      0.2765         0.024502   
    171. D(C   9,C   8,C   7,C   6)   -179.5645         0.024502   
    172. D(C  10,C   9,C   8,C   7)     -0.1257         0.031299   
    173. D(H  34,C   9,C   8,N  25)     -0.2084         0.031299   
    174. D(H  34,C   9,C   8,C   7)    179.9061         0.031299   
    175. D(C  10,C   9,C   8,N  25)    179.7597         0.031299   
    176. D(H  35,C  10,C   9,H  34)     -0.0276         0.024910   
    177. D(H  35,C  10,C   9,C   8)   -179.9967         0.024910   
    178. D(C  11,C  10,C   9,H  34)    179.9154         0.024910   
    179. D(C  11,C  10,C   9,C   8)     -0.0537         0.024910   
    180. D(C  14,C  11,C  10,H  35)   -179.9524         0.027388   
    181. D(C  14,C  11,C  10,C   9)      0.1059         0.027388   
    182. D(O  12,C  11,C  10,H  35)      0.0478         0.027388   
    183. D(O  12,C  11,C  10,C   9)   -179.8939         0.027388   
    184. D(C  13,O  12,C  11,C  14)   -179.2769         0.027621   
    185. D(C  13,O  12,C  11,C  10)      0.7228         0.027621   
    186. D(H  38,C  13,O  12,C  11)    179.3738         0.021983   
    187. D(H  37,C  13,O  12,C  11)    -62.1921         0.021983   
    188. D(H  36,C  13,O  12,C  11)     60.9370         0.021983   
    189. D(C  15,C  14,C  11,C  10)   -179.6391         0.020752   
    190. D(C   7,C  14,C  11,C  10)      0.0255         0.020752   
    191. D(C  15,C  14,C   7,C   8)    179.4967         0.027458   
    192. D(C  15,C  14,C   7,C   6)     -0.6886         0.027458   
    193. D(C   7,C  14,C  11,O  12)   -179.9747         0.020752   
    194. D(C  11,C  14,C   7,C   8)     -0.2182         0.027458   
    195. D(C  15,C  14,C  11,O  12)      0.3606         0.020752   
    196. D(C  11,C  14,C   7,C   6)    179.5966         0.027458   
    197. D(C  24,C  15,C  14,C  11)    179.8529         0.017320   
    198. D(C  24,C  15,C  14,C   7)      0.1906         0.017320   
    199. D(C  16,C  15,C  14,C  11)     -0.0355         0.017320   
    200. D(C  16,C  15,C  14,C   7)   -179.6978         0.017320   
    201. D(H  39,C  16,C  15,C  24)    179.9560         0.028256   
    202. D(C  17,C  16,C  15,C  24)     -0.1243         0.028256   
    203. D(C  17,C  16,C  15,C  14)    179.7653         0.028256   
    204. D(H  39,C  16,C  15,C  14)     -0.1545         0.028256   
    205. D(C  22,C  17,C  16,H  39)    179.9798         0.025170   
    206. D(C  22,C  17,C  16,C  15)      0.0593         0.025170   
    207. D(C  18,C  17,C  16,H  39)      0.0694         0.025170   
    208. D(C  18,C  17,C  16,C  15)   -179.8511         0.025170   
    209. D(H  40,C  18,C  17,C  22)   -179.9798         0.022356   
    210. D(H  40,C  18,C  17,C  16)     -0.0691         0.022356   
    211. D(C  19,C  18,C  17,C  22)     -0.0414         0.022356   
    212. D(C  19,C  18,C  17,C  16)    179.8693         0.022356   
    213. D(H  41,C  19,C  18,H  40)     -0.0156         0.033200   
    214. D(H  41,C  19,C  18,C  17)   -179.9526         0.033200   
    215. D(C  20,C  19,C  18,H  40)    179.9334         0.033200   
    216. D(C  20,C  19,C  18,C  17)     -0.0036         0.033200   
    217. D(H  42,C  20,C  19,H  41)      0.0179         0.023375   
    218. D(H  42,C  20,C  19,C  18)   -179.9317         0.023375   
    219. D(C  21,C  20,C  19,H  41)    179.9842         0.023375   
    220. D(C  21,C  20,C  19,C  18)      0.0346         0.023375   
    221. D(H  43,C  21,C  20,H  42)      0.1079         0.033340   
    222. D(H  43,C  21,C  20,C  19)   -179.8580         0.033340   
    223. D(C  22,C  21,C  20,H  42)    179.9469         0.033340   
    224. D(C  22,C  21,C  20,C  19)     -0.0190         0.033340   
    225. D(C  23,C  22,C  21,C  20)    179.8948         0.022232   
    226. D(C  17,C  22,C  21,H  43)    179.8164         0.022232   
    227. D(C  17,C  22,C  21,C  20)     -0.0264         0.022232   
    228. D(C  23,C  22,C  17,C  18)   -179.8682         0.020928   
    229. D(C  23,C  22,C  17,C  16)      0.2185         0.020928   
    230. D(C  21,C  22,C  17,C  18)      0.0559         0.020928   
    231. D(C  23,C  22,C  21,H  43)     -0.2624         0.022232   
    232. D(C  21,C  22,C  17,C  16)   -179.8573         0.020928   
    233. D(H  44,C  23,C  22,C  21)      0.6394         0.025801   
    234. D(H  44,C  23,C  22,C  17)   -179.4391         0.025801   
    235. D(C  24,C  23,C  22,C  21)    179.6367         0.025801   
    236. D(C  24,C  23,C  22,C  17)     -0.4418         0.025801   
    237. D(C  15,C  24,C  23,C  22)      0.3779         0.027308   
    238. D(C   5,C  24,C  23,H  44)     -1.2411         0.027308   
    239. D(C   5,C  24,C  23,C  22)    179.7683         0.027308   
    240. D(C  23,C  24,C  15,C  16)     -0.0891         0.017867   
    241. D(C  23,C  24,C  15,C  14)   -179.9825         0.017867   
    242. D(C   5,C  24,C  15,C  16)   -179.4658         0.017867   
    243. D(C   5,C  24,C  15,C  14)      0.6408         0.017867   
    244. D(C  23,C  24,C   5,C   6)    179.6035         0.018507   
    245. D(C  23,C  24,C   5,C   3)      0.9497         0.018507   
    246. D(C  15,C  24,C   5,C   6)     -1.0209         0.018507   
    247. D(C  15,C  24,C  23,H  44)    179.3685         0.027308   
    248. D(C  15,C  24,C   5,C   3)   -179.6746         0.018507   
    249. D(C  27,N  25,C   8,C   9)   -179.7109         0.025512   
    250. D(C  27,N  25,C   8,C   7)      0.1834         0.025512   
    251. D(C  26,N  25,C   8,C   9)     -0.6334         0.025512   
    252. D(C  26,N  25,C   8,C   7)    179.2609         0.025512   
    253. D(H  47,C  26,N  25,C  27)   -119.5915         0.019081   
    254. D(H  47,C  26,N  25,C   8)     61.4381         0.019081   
    255. D(H  46,C  26,N  25,C  27)     -0.1794         0.019081   
    256. D(H  46,C  26,N  25,C   8)   -179.1498         0.019081   
    257. D(H  45,C  26,N  25,C  27)    119.2116         0.019081   
    258. D(H  45,C  26,N  25,C   8)    -59.7588         0.019081   
    259. D(O  28,C  27,N  25,C  26)     -0.4482         0.026396   
    260. D(O  28,C  27,N  25,C   8)    178.6486         0.026396   
    261. D(C   6,C  27,N  25,C  26)   -179.8686         0.026396   
    262. D(C   6,C  27,N  25,C   8)     -0.7718         0.026396   
    263. D(O  28,C  27,C   6,C   7)   -178.3188         0.013215   
    264. D(O  28,C  27,C   6,C   5)      0.3155         0.013215   
    265. D(N  25,C  27,C   6,C   7)      1.0567         0.013215   
    266. D(N  25,C  27,C   6,C   5)    179.6909         0.013215   
    -----------------------------------------------------------------

Number of atoms                         .... 48
Number of degrees of freedom            .... 266

         *************************************************************
         *                GEOMETRY OPTIMIZATION CYCLE   1            *
         *************************************************************
---------------------------------
CARTESIAN COORDINATES (ANGSTROEM)
---------------------------------
  C      5.081100   -1.218800   -1.904600
  C      4.149700   -2.265200   -1.309700
  O      2.832700   -1.746300   -1.121300
  C      2.593200   -1.093600    0.009900
  O      3.416100   -0.834800    0.850600
  C      1.140100   -0.747600    0.103800
  C      0.214800   -1.742800    0.132700
  C     -1.164100   -1.422200    0.238000
  C     -1.902200   -2.614900    0.251100
  C     -3.268900   -2.543100    0.338500
  C     -3.842400   -1.267500    0.412400
  C     -3.111900   -0.086900    0.403200
  O     -3.699400    1.142600    0.478700
  C     -5.099000    1.235000    0.585400
  C     -1.691500   -0.140400    0.311900
  C     -0.721300    0.934800    0.291300
  C     -1.084200    2.268800    0.363500
  C     -0.145400    3.306200    0.348300
  C     -0.528900    4.665600    0.425800
  C      0.409500    5.655300    0.411400
  C      1.779500    5.340300    0.319000
  C      2.185400    4.041000    0.242000
  C      1.238800    2.988900    0.254000
  C      1.613000    1.646300    0.174900
  C      0.683600    0.614600    0.194200
  N     -1.009100   -3.673400    0.168000
  C     -1.370200   -5.063300    0.167900
  C      0.297900   -3.225600    0.104200
  O      1.267600   -3.950700    0.049900
  H      5.214100   -0.397100   -1.205000
  H      4.668000   -0.830400   -2.832800
  H      6.049900   -1.666700   -2.106900
  H      4.530900   -2.612400   -0.344500
  H      4.021500   -3.114000   -1.983800
  H     -3.900700   -3.416900    0.352300
  H     -4.917400   -1.221100    0.480900
  H     -5.468500    0.745800    1.492200
  H     -5.600400    0.811400   -0.290600
  H     -5.316300    2.301000    0.640600
  H     -2.126800    2.526700    0.435600
  H     -1.580900    4.901700    0.497600
  H      0.111400    6.691900    0.471600
  H      2.504100    6.141300    0.310500
  H      3.234100    3.790800    0.173200
  H      2.663800    1.407200    0.112700
  H     -1.901500   -5.324500    1.085900
  H     -0.447400   -5.639500    0.107100
  H     -2.002500   -5.297700   -0.691500

----------------------------
CARTESIAN COORDINATES (A.U.)
----------------------------
  NO LB      ZA    FRAG     MASS         X           Y           Z
   0 C     6.0000    0    12.011    9.601887   -2.303198   -3.599172
   1 C     6.0000    0    12.011    7.841797   -4.280608   -2.474974
   2 O     8.0000    0    15.999    5.353027   -3.300029   -2.118950
   3 C     6.0000    0    12.011    4.900438   -2.066605    0.018708
   4 O     8.0000    0    15.999    6.455493   -1.577543    1.607401
   5 C     6.0000    0    12.011    2.154477   -1.412759    0.196154
   6 C     6.0000    0    12.011    0.405913   -3.293415    0.250767
   7 C     6.0000    0    12.011   -2.199830   -2.687569    0.449755
   8 C     6.0000    0    12.011   -3.594637   -4.941445    0.474510
   9 C     6.0000    0    12.011   -6.177326   -4.805763    0.639672
  10 C     6.0000    0    12.011   -7.261084   -2.395228    0.779323
  11 C     6.0000    0    12.011   -5.880639   -0.164217    0.761938
  12 O     8.0000    0    15.999   -6.990853    2.159201    0.904612
  13 C     6.0000    0    12.011   -9.635714    2.333812    1.106246
  14 C     6.0000    0    12.011   -3.196472   -0.265318    0.589406
  15 C     6.0000    0    12.011   -1.363059    1.766516    0.550477
  16 C     6.0000    0    12.011   -2.048841    4.287411    0.686915
  17 C     6.0000    0    12.011   -0.274766    6.247813    0.658192
  18 C     6.0000    0    12.011   -0.999476    8.816706    0.804645
  19 C     6.0000    0    12.011    0.773843   10.686968    0.777433
  20 C     6.0000    0    12.011    3.362768   10.091704    0.602823
  21 C     6.0000    0    12.011    4.129807    7.636383    0.457314
  22 C     6.0000    0    12.011    2.340993    5.648202    0.479990
  23 C     6.0000    0    12.011    3.048128    3.111056    0.330513
  24 C     6.0000    0    12.011    1.291817    1.161426    0.366985
  25 N     7.0000    0    14.007   -1.906923   -6.941720    0.317474
  26 C     6.0000    0    12.011   -2.589303   -9.568250    0.317285
  27 C     6.0000    0    12.011    0.562949   -6.095501    0.196909
  28 O     8.0000    0    15.999    2.395417   -7.465741    0.094297
  29 H     1.0000    0     1.008    9.853221   -0.750410   -2.277120
  30 H     1.0000    0     1.008    8.821242   -1.569229   -5.353216
  31 H     1.0000    0     1.008   11.432654   -3.149607   -3.981464
  32 H     1.0000    0     1.008    8.562160   -4.936721   -0.651011
  33 H     1.0000    0     1.008    7.599534   -5.884607   -3.748839
  34 H     1.0000    0     1.008   -7.371255   -6.457005    0.665751
  35 H     1.0000    0     1.008   -9.292539   -2.307545    0.908769
  36 H     1.0000    0     1.008  -10.333967    1.409358    2.819849
  37 H     1.0000    0     1.008  -10.583222    1.533324   -0.549154
  38 H     1.0000    0     1.008  -10.046351    4.348260    1.210559
  39 H     1.0000    0     1.008   -4.019070    4.774771    0.823165
  40 H     1.0000    0     1.008   -2.987468    9.262871    0.940328
  41 H     1.0000    0     1.008    0.210515   12.645858    0.891195
  42 H     1.0000    0     1.008    4.732063   11.605375    0.586760
  43 H     1.0000    0     1.008    6.111563    7.163574    0.327301
  44 H     1.0000    0     1.008    5.033852    2.659223    0.212972
  45 H     1.0000    0     1.008   -3.593314  -10.061847    2.052054
  46 H     1.0000    0     1.008   -0.845463  -10.657111    0.202390
  47 H     1.0000    0     1.008   -3.784177  -10.011202   -1.306746

--------------------------------
INTERNAL COORDINATES (ANGSTROEM)
--------------------------------
 C      0   0   0     0.000000000000     0.00000000     0.00000000
 C      1   0   0     1.521960883203     0.00000000     0.00000000
 O      2   1   0     1.428019877313   111.47749764     0.00000000
 C      3   2   1     1.327776705625   117.21787573   274.29961905
 O      4   3   2     1.204540717452   125.23993215     4.75550520
 C      4   3   2     1.496673919062   110.01203465   185.89274270
 C      6   4   3     1.359205039720   119.53875006    61.68628670
 C      7   6   4     1.419590666354   119.83284275   179.23889584
 C      8   7   6     1.402674769859   108.64999384   180.16369940
 C      9   8   7     1.371372629886   118.71756896   180.43552601
 C     10   9   8     1.400542330671   117.33146162   359.87429458
 C     11  10   9     1.388355592058   123.96548269   359.94627856
 O     12  11  10     1.364744206802   122.63045321   180.10614920
 C     13  12  11     1.406699260681   119.45130038     0.72283130
 C      8   7   6     1.388028533568   125.56155399     0.32231827
 C     15   8   7     1.448367163395   115.48411248   359.31142078
 C     16  15   8     1.384364565423   122.61600268   180.30218737
 C     17  16  15     1.399205217257   122.54731978   179.76526625
 C     18  17  16     1.414583634855   122.00574754   180.14891543
 C     19  18  17     1.363931086969   120.67814207   179.86930041
 C     20  19  18     1.408780593279   120.49856125     0.00000000
 C     21  20  19     1.363401738300   120.41802362     0.03464402
 C     22  21  20     1.415312675701   120.58544478     0.00000000
 C     23  22  21     1.396014759951   122.35527132   179.89480182
 C     24  23  22     1.388726661370   122.29694203   179.63666771
 N      9   8   7     1.387427644960   108.02496008     0.52328328
 C     26   9   8     1.436041514024   125.20820628   179.26093144
 C     26   9   8     1.383056137689   111.34961575     0.18343349
 O     28  26   9     1.212038196593   124.36267458   178.64861983
 H      1   2   3     1.087345414300   110.05538125    64.79676745
 H      1   2   3     1.087686264508   110.28242730   304.49720723
 H      1   2   3     1.086330124778   109.57743428   184.40066627
 H      2   1   3     1.094290784024   110.47057531   239.05878876
 H      2   1   3     1.091470333999   111.41642904   116.71344462
 H     10   9   8     1.078372903962   122.83884405   179.90614973
 H     11  10   9     1.078179117772   116.79665880   180.00328161
 H     14  13  12     1.094592677666   111.67530837    60.93695215
 H     14  13  12     1.094630037958   111.69230702   297.80788107
 H     14  13  12     1.089321958835   105.46193961   179.37383921
 H     17  16  15     1.076441164207   119.22650308   359.84553710
 H     19  18  17     1.080556546415   118.52583929   359.93090538
 H     20  19  18     1.080290335975   120.38683249   180.04743570
 H     21  20  19     1.080147401978   119.14829071   180.06828745
 H     22  21  20     1.080326418264   120.88391529   180.14198014
 H     24  23  22     1.079452773400   118.50429334     0.63944172
 H     27  26   9     1.092350278070   110.71251626   300.24120581
 H     27  26   9     1.089615950691   107.38941564   180.85017969
 H     27  26   9     1.092389587098   110.68829121    61.43806192

---------------------------
INTERNAL COORDINATES (A.U.)
---------------------------
 C      0   0   0     0.000000000000     0.00000000     0.00000000
 C      1   0   0     2.876089255795     0.00000000     0.00000000
 O      2   1   0     2.698566481917   111.47749764     0.00000000
 C      3   2   1     2.509134340631   117.21787573   274.29961905
 O      4   3   2     2.276252073141   125.23993215     4.75550520
 C      4   3   2     2.828303818810   110.01203465   185.89274270
 C      6   4   3     2.568525284916   119.53875006    61.68628670
 C      7   6   4     2.682637581680   119.83284275   179.23889584
 C      8   7   6     2.650671169995   108.64999384   180.16369940
 C      9   8   7     2.591518698040   118.71756896   180.43552601
 C     10   9   8     2.646641443931   117.33146162   359.87429458
 C     11  10   9     2.623611845489   123.96548269   359.94627856
 O     12  11  10     2.578992793712   122.63045321   180.10614920
 C     13  12  11     2.658276355476   119.45130038     0.72283130
 C      8   7   6     2.622993794513   125.56155399     0.32231827
 C     15   8   7     2.737017280180   115.48411248   359.31142078
 C     16  15   8     2.616069898155   122.61600268   180.30218737
 C     17  16  15     2.644114665770   122.54731978   179.76526625
 C     18  17  16     2.673175663403   122.00574754   180.14891543
 C     19  18  17     2.577456219913   120.67814207   179.86930041
 C     20  19  18     2.662209504081   120.49856125     0.00000000
 C     21  20  19     2.576455895900   120.41802362     0.03464402
 C     22  21  20     2.674553350942   120.58544478     0.00000000
 C     23  22  21     2.638085575218   122.35527132   179.89480182
 C     24  23  22     2.624313064864   122.29694203   179.63666771
 N      9   8   7     2.621858279606   108.02496008     0.52328328
 C     26   9   8     2.713725178447   125.20820628   179.26093144
 C     26   9   8     2.613597328072   111.34961575     0.18343349
 O     28  26   9     2.290420255412   124.36267458   178.64861983
 H      1   2   3     2.054785046003   110.05538125    64.79676745
 H      1   2   3     2.055429159549   110.28242730   304.49720723
 H      1   2   3     2.052866426859   109.57743428   184.40066627
 H      2   1   3     2.067909892679   110.47057531   239.05878876
 H      2   1   3     2.062580014558   111.41642904   116.71344462
 H     10   9   8     2.037829458730   122.83884405   179.90614973
 H     11  10   9     2.037463255902   116.79665880   180.00328161
 H     14  13  12     2.068480388984   111.67530837    60.93695215
 H     14  13  12     2.068550989705   111.69230702   297.80788107
 H     14  13  12     2.058520173865   105.46193961   179.37383921
 H     17  16  15     2.034178999631   119.22650308   359.84553710
 H     19  18  17     2.041955944940   118.52583929   359.93090538
 H     20  19  18     2.041452880114   120.38683249   180.04743570
 H     21  20  19     2.041182774005   119.14829071   180.06828745
 H     22  21  20     2.041521065760   120.88391529   180.14198014
 H     24  23  22     2.039870116227   118.50429334     0.63944172
 H     27  26   9     2.064242867865   110.71251626   300.24120581
 H     27  26   9     2.059075737958   107.38941564   180.85017969
 H     27  26   9     2.064317151162   110.68829121    61.43806192

---------------------
BASIS SET INFORMATION
---------------------
There are 4 groups of distinct atoms

 Group   1 Type C   : 8s4p1d contracted to 4s2p1d pattern {5111/31/1}
 Group   2 Type O   : 8s4p1d contracted to 4s2p1d pattern {5111/31/1}
 Group   3 Type N   : 8s4p1d contracted to 4s2p1d pattern {5111/31/1}
 Group   4 Type H   : 4s contracted to 2s pattern {31}

Atom   0C    basis set group =>   1
Atom   1C    basis set group =>   1
Atom   2O    basis set group =>   2
Atom   3C    basis set group =>   1
Atom   4O    basis set group =>   2
Atom   5C    basis set group =>   1
Atom   6C    basis set group =>   1
Atom   7C    basis set group =>   1
Atom   8C    basis set group =>   1
Atom   9C    basis set group =>   1
Atom  10C    basis set group =>   1
Atom  11C    basis set group =>   1
Atom  12O    basis set group =>   2
Atom  13C    basis set group =>   1
Atom  14C    basis set group =>   1
Atom  15C    basis set group =>   1
Atom  16C    basis set group =>   1
Atom  17C    basis set group =>   1
Atom  18C    basis set group =>   1
Atom  19C    basis set group =>   1
Atom  20C    basis set group =>   1
Atom  21C    basis set group =>   1
Atom  22C    basis set group =>   1
Atom  23C    basis set group =>   1
Atom  24C    basis set group =>   1
Atom  25N    basis set group =>   3
Atom  26C    basis set group =>   1
Atom  27C    basis set group =>   1
Atom  28O    basis set group =>   2
Atom  29H    basis set group =>   4
Atom  30H    basis set group =>   4
Atom  31H    basis set group =>   4
Atom  32H    basis set group =>   4
Atom  33H    basis set group =>   4
Atom  34H    basis set group =>   4
Atom  35H    basis set group =>   4
Atom  36H    basis set group =>   4
Atom  37H    basis set group =>   4
Atom  38H    basis set group =>   4
Atom  39H    basis set group =>   4
Atom  40H    basis set group =>   4
Atom  41H    basis set group =>   4
Atom  42H    basis set group =>   4
Atom  43H    basis set group =>   4
Atom  44H    basis set group =>   4
Atom  45H    basis set group =>   4
Atom  46H    basis set group =>   4
Atom  47H    basis set group =>   4
---------------------------------
AUXILIARY/J BASIS SET INFORMATION
---------------------------------
There are 4 groups of distinct atoms

 Group   1 Type C   : 12s5p4d2f1g contracted to 6s4p3d1f1g pattern {711111/2111/211/2/1}
 Group   2 Type O   : 12s5p4d2f1g contracted to 6s4p3d1f1g pattern {711111/2111/211/2/1}
 Group   3 Type N   : 12s5p4d2f1g contracted to 6s4p3d1f1g pattern {711111/2111/211/2/1}
 Group   4 Type H   : 5s2p1d contracted to 3s1p1d pattern {311/2/1}

Atom   0C    basis set group =>   1
Atom   1C    basis set group =>   1
Atom   2O    basis set group =>   2
Atom   3C    basis set group =>   1
Atom   4O    basis set group =>   2
Atom   5C    basis set group =>   1
Atom   6C    basis set group =>   1
Atom   7C    basis set group =>   1
Atom   8C    basis set group =>   1
Atom   9C    basis set group =>   1
Atom  10C    basis set group =>   1
Atom  11C    basis set group =>   1
Atom  12O    basis set group =>   2
Atom  13C    basis set group =>   1
Atom  14C    basis set group =>   1
Atom  15C    basis set group =>   1
Atom  16C    basis set group =>   1
Atom  17C    basis set group =>   1
Atom  18C    basis set group =>   1
Atom  19C    basis set group =>   1
Atom  20C    basis set group =>   1
Atom  21C    basis set group =>   1
Atom  22C    basis set group =>   1
Atom  23C    basis set group =>   1
Atom  24C    basis set group =>   1
Atom  25N    basis set group =>   3
Atom  26C    basis set group =>   1
Atom  27C    basis set group =>   1
Atom  28O    basis set group =>   2
Atom  29H    basis set group =>   4
Atom  30H    basis set group =>   4
Atom  31H    basis set group =>   4
Atom  32H    basis set group =>   4
Atom  33H    basis set group =>   4
Atom  34H    basis set group =>   4
Atom  35H    basis set group =>   4
Atom  36H    basis set group =>   4
Atom  37H    basis set group =>   4
Atom  38H    basis set group =>   4
Atom  39H    basis set group =>   4
Atom  40H    basis set group =>   4
Atom  41H    basis set group =>   4
Atom  42H    basis set group =>   4
Atom  43H    basis set group =>   4
Atom  44H    basis set group =>   4
Atom  45H    basis set group =>   4
Atom  46H    basis set group =>   4
Atom  47H    basis set group =>   4


           ************************************************************
           *        Program running with 4 parallel MPI-processes     *
           *              working on a common directory               *
           ************************************************************
------------------------------------------------------------------------------
                           ORCA GTO INTEGRAL CALCULATION
                           -- RI-GTO INTEGRALS CHOSEN --
------------------------------------------------------------------------------
------------------------------------------------------------------------------
                   ___                                                        
                  /   \      - P O W E R E D   B Y -                         
                 /     \                                                     
                 |  |  |   _    _      __       _____    __    __             
                 |  |  |  | |  | |    /  \     |  _  \  |  |  /  |          
                  \  \/   | |  | |   /    \    | | | |  |  | /  /          
                 / \  \   | |__| |  /  /\  \   | |_| |  |  |/  /          
                |  |  |   |  __  | /  /__\  \  |    /   |      \           
                |  |  |   | |  | | |   __   |  |    \   |  |\   \          
                \     /   | |  | | |  |  |  |  | |\  \  |  | \   \       
                 \___/    |_|  |_| |__|  |__|  |_| \__\ |__|  \__/        
                                                                              
                      - O R C A' S   B I G   F R I E N D -                    
                                      &                                       
                       - I N T E G R A L  F E E D E R -                       
                                                                              
 v1 FN, 2020, v2 2021                                                         
------------------------------------------------------------------------------


Reading SHARK input file optpbed3-b2plyp-test-577-optimize-part.SHARKINP.tmp ... ok
----------------------
SHARK INTEGRAL PACKAGE
----------------------

Number of atoms                             ...     48
Number of basis functions                   ...    473
Number of shells                            ...    241
Maximum angular momentum                    ...      2
Integral batch strategy                     ... SHARK/LIBINT Hybrid
RI-J (if used) integral strategy            ... SPLIT-RIJ (Revised 2003 algorithm where possible)
Printlevel                                  ...      1
Contraction scheme used                     ... SEGMENTED contraction
Coulomb Range Separation                    ... NOT USED
Exchange Range Separation                   ... NOT USED
Finite Nucleus Model                        ... NOT USED
Auxiliary Coulomb fitting basis             ... AVAILABLE
   # of basis functions in Aux-J            ...   1630
   # of shells in Aux-J                     ...    530
   Maximum angular momentum in Aux-J        ...      4
Auxiliary J/K fitting basis                 ... NOT available
Auxiliary Correlation fitting basis         ... NOT available
Auxiliary 'external' fitting basis          ... NOT available
Integral threshold                          ...     2.500000e-11
Primitive cut-off                           ...     2.500000e-12
Primitive pair pre-selection threshold      ...     2.500000e-12

Calculating pre-screening integrals         ... done (  0.1 sec) Dimension = 241
Organizing shell pair data                  ... done (  0.1 sec)
Shell pair information
Total number of shell pairs                 ...     29161
Shell pairs after pre-screening             ...     16992
Total number of primitive shell pairs       ...    103265
Primitive shell pairs kept                  ...     36760
          la=0 lb=0:   5755 shell pairs
          la=1 lb=0:   6143 shell pairs
          la=1 lb=1:   1439 shell pairs
          la=2 lb=0:   2204 shell pairs
          la=2 lb=1:   1221 shell pairs
          la=2 lb=2:    230 shell pairs

Calculating one electron integrals          ... done (  0.1 sec)
Calculating RI/J V-Matrix + Cholesky decomp.... done (  0.2 sec)
Calculating Nuclear repulsion               ... done (  0.0 sec) ENN=   2673.002411463731 Eh

SHARK setup successfully completed in   0.8 seconds

Maximum memory used throughout the entire GTOINT-calculation: 37.6 MB


           ************************************************************
           *        Program running with 4 parallel MPI-processes     *
           *              working on a common directory               *
           ************************************************************
-------------------------------------------------------------------------------
                                 ORCA SCF
-------------------------------------------------------------------------------

------------
SCF SETTINGS
------------
Hamiltonian:
 Density Functional     Method          .... DFT(GTOs)
 Exchange Functional    Exchange        .... PBE
   PBE kappa parameter   XKappa         ....  1.024500
   PBE mue parameter    XMuePBE         ....  0.123457
 Correlation Functional Correlation     .... PBE
   PBE beta parameter  CBetaPBE         ....  0.030000
 LDA part of GGA corr.  LDAOpt          .... PW91-LDA
 Gradients option       PostSCFGGA      .... off
 Hybrid DFT is turned on
   Fraction HF Exchange ScalHFX         ....  0.420000
   Scaling of DF-GGA-X  ScalDFX         ....  0.580000
   Scaling of DF-GGA-C  ScalDFC         ....  1.000000
   Scaling of DF-LDA-C  ScalLDAC        ....  1.000000
   Perturbative correction              ....  0.000000
   Density functional embedding theory  .... OFF
 RI-approximation to the Coulomb term is turned on
   Number of AuxJ basis functions       .... 1630
   RIJ-ON(X) (HFX calculated with O(N)) .... on
   Number of AuxJ basis functions       .... 1630
   RIJ-COSX (HFX calculated with COS-X)).... on


General Settings:
 Integral files         IntName         .... optpbed3-b2plyp-test-577-optimize-part
 Hartree-Fock type      HFTyp           .... RHF
 Total Charge           Charge          ....    0
 Multiplicity           Mult            ....    1
 Number of Electrons    NEL             ....  202
 Basis Dimension        Dim             ....  473
 Nuclear Repulsion      ENuc            ....   2673.0024114637 Eh

Convergence Acceleration:
 DIIS                   CNVDIIS         .... on
   Start iteration      DIISMaxIt       ....    12
   Startup error        DIISStart       ....  0.200000
   # of expansion vecs  DIISMaxEq       ....     5
   Bias factor          DIISBfac        ....   1.050
   Max. coefficient     DIISMaxC        ....  10.000
 Trust-Rad. Augm. Hess. CNVTRAH         .... auto
   Auto Start mean grad. ratio tolernc. ....  1.125000
   Auto Start start iteration           ....    20
   Auto Start num. interpolation iter.  ....    10
   Max. Number of Micro iterations      ....    16
   Max. Number of Macro iterations      .... Maxiter - #DIIS iter
   Number of Davidson start vectors     ....     2
   Converg. threshold I  (grad. norm)   ....   1.000e-05
   Converg. threshold II (energy diff.) ....   1.000e-08
   Grad. Scal. Fac. for Micro threshold ....   0.100
   Minimum threshold for Micro iter.    ....   0.010
   NR start threshold (gradient norm)   ....   0.001
   Initial trust radius                 ....   0.400
   Minimum AH scaling param. (alpha)    ....   1.000
   Maximum AH scaling param. (alpha)    .... 1000.000
   Orbital update algorithm             .... Taylor
   White noise on init. David. guess    .... on
   Maximum white noise                  ....   0.010
   Quad. conv. algorithm                .... NR
   COSX micro iterations for RIJONX calc.... off
 SOSCF                  CNVSOSCF        .... on
   Start iteration      SOSCFMaxIt      ....   150
   Startup grad/error   SOSCFStart      ....  0.003300
 Level Shifting         CNVShift        .... on
   Level shift para.    LevelShift      ....    0.2500
   Turn off err/grad.   ShiftErr        ....    0.0010
 Zerner damping         CNVZerner       .... off
 Static damping         CNVDamp         .... on
   Fraction old density DampFac         ....    0.7000
   Max. Damping (<1)    DampMax         ....    0.9800
   Min. Damping (>=0)   DampMin         ....    0.0000
   Turn off err/grad.   DampErr         ....    0.1000
 Fernandez-Rico         CNVRico         .... off

SCF Procedure:
 Maximum # iterations   MaxIter         ....   125
 SCF integral mode      SCFMode         .... Direct
   Integral package                     .... SHARK and LIBINT hybrid scheme
 Reset frequency        DirectResetFreq ....    20
 Integral Threshold     Thresh          ....  2.500e-11 Eh
 Primitive CutOff       TCut            ....  2.500e-12 Eh

Convergence Tolerance:
 Convergence Check Mode ConvCheckMode   .... Total+1el-Energy
 Convergence forced     ConvForced      .... 0
 Energy Change          TolE            ....  1.000e-08 Eh
 1-El. energy change                    ....  1.000e-05 Eh
 Orbital Gradient       TolG            ....  1.000e-05
 Orbital Rotation angle TolX            ....  1.000e-05
 DIIS Error             TolErr          ....  5.000e-07


Diagonalization of the overlap matrix:
Smallest eigenvalue                        ... 1.732e-04
Time for diagonalization                   ...    0.061 sec
Threshold for overlap eigenvalues          ... 1.000e-08
Number of eigenvalues below threshold      ... 0
Time for construction of square roots      ...    0.032 sec
Total time needed                          ...    0.095 sec

--------------------------------
INITIAL GUESS: MINIMAL BASIS EHT
--------------------------------
The minimal basis has 164 functions
EHT matrix was diagonalized
Basis set overlap was calculated now projecting the orbitals
Using GuessMode=FMatrix for the initial guess
C*T matrix was formed
Effective Fockian was calculated
Effective Fockian was diagonalized
Initial density was built
                      ------------------
                      INITIAL GUESS DONE
                      ------------------
-------------------
DFT GRID GENERATION
-------------------

General Integration Accuracy     IntAcc      ... 4.159
Radial Grid Type                 RadialGrid  ... OptM3 with GC (2021)
Angular Grid (max. ang.)         AngularGrid ... 3 (Lebedev-194)
Angular grid pruning method      GridPruning ... 4 (adaptive)
Weight generation scheme         WeightScheme... Becke
Basis function cutoff            BFCut       ... 1.0000e-11
Integration weight cutoff        WCut        ... 1.0000e-14
Angular grids for H and He will be reduced by one unit
Partially contracted basis set               ... off
Rotationally invariant grid construction     ... off

Total number of grid points                  ...   119972
Total number of batches                      ...     1899
Average number of points per batch           ...       63
Average number of grid points per atom       ...     2499
Time for grid setup =    1.317 sec

--------------------
COSX GRID GENERATION
--------------------

GRIDX 1
-------
General Integration Accuracy     IntAcc      ... 3.816
Radial Grid Type                 RadialGrid  ... OptM3 with GC (2021)
Angular Grid (max. ang.)         AngularGrid ... 1 (Lebedev-50)
Angular grid pruning method      GridPruning ... 4 (adaptive)
Weight generation scheme         WeightScheme... Becke
Basis function cutoff            BFCut       ... 1.0000e-11
Integration weight cutoff        WCut        ... 1.0000e-14
Angular grids for H and He will be reduced by one unit
Partially contracted basis set               ... on
Rotationally invariant grid construction     ... off

Total number of grid points                  ...    29689
Total number of batches                      ...      489
Average number of points per batch           ...       60
Average number of grid points per atom       ...      619
UseSFitting                                  ... on

GRIDX 2
-------
General Integration Accuracy     IntAcc      ... 4.020
Radial Grid Type                 RadialGrid  ... OptM3 with GC (2021)
Angular Grid (max. ang.)         AngularGrid ... 2 (Lebedev-110)
Angular grid pruning method      GridPruning ... 4 (adaptive)
Weight generation scheme         WeightScheme... Becke
Basis function cutoff            BFCut       ... 1.0000e-11
Integration weight cutoff        WCut        ... 1.0000e-14
Angular grids for H and He will be reduced by one unit
Partially contracted basis set               ... on
Rotationally invariant grid construction     ... off

Total number of grid points                  ...    64608
Total number of batches                      ...     1032
Average number of points per batch           ...       62
Average number of grid points per atom       ...     1346
UseSFitting                                  ... on

GRIDX 3
-------
General Integration Accuracy     IntAcc      ... 4.338
Radial Grid Type                 RadialGrid  ... OptM3 with GC (2021)
Angular Grid (max. ang.)         AngularGrid ... 3 (Lebedev-194)
Angular grid pruning method      GridPruning ... 4 (adaptive)
Weight generation scheme         WeightScheme... Becke
Basis function cutoff            BFCut       ... 1.0000e-11
Integration weight cutoff        WCut        ... 1.0000e-14
Angular grids for H and He will be reduced by one unit
Partially contracted basis set               ... on
Rotationally invariant grid construction     ... off

Total number of grid points                  ...   141402
Total number of batches                      ...     2235
Average number of points per batch           ...       63
Average number of grid points per atom       ...     2946
UseSFitting                                  ... on

Time for X-Grid setup             =    3.991 sec


--------------------
CPCM SOLVATION MODEL
--------------------
CPCM parameters:
  Epsilon                                         ...      35.6880
  Refrac                                          ...       1.3442
  Rsolv                                           ...       1.3000
  Surface type                                    ... GAUSSIAN VDW
  Epsilon function type                           ...         CPCM
Solvent:                                     ... ACETONITRILE
SMD-CDS solvent descriptors:
  Soln                                       ...    1.3442
  Soln25                                     ...    1.3416
  Sola                                       ...    0.0700
  Solb                                       ...    0.3200
  Solg                                       ...   41.2500
  Solc                                       ...    0.0000
  Solh                                       ...    0.0000
Radii:
 Radius for C  used is    3.4960 Bohr (=   1.8500 Ang.)
 Radius for O  used is    4.0969 Bohr (=   2.1680 Ang.)
 Radius for N  used is    3.5716 Bohr (=   1.8900 Ang.)
 Radius for H  used is    2.2677 Bohr (=   1.2000 Ang.)
Calculating surface                               ...        done! (  0.0s)
GEPOL surface points                              ...         2527
GEPOL Volume                                      ...    2766.1286
GEPOL Surface-area                                ...    1413.3585
Calculating surface distance matrix               ...        done! (  0.1s)
Performing Cholesky decomposition & store         ...        done! (  0.5s)
Overall time for CPCM initialization              ...                 0.6s
--------------
SCF ITERATIONS
--------------
ITER       Energy         Delta-E        Max-DP      RMS-DP      [F,P]     Damp
               ***  Starting incremental Fock matrix formation  ***
  0  -1275.3009294188   0.000000000000 0.19856703  0.00460206  0.5503950 0.7000
  1  -1276.5395363143  -1.238606895469 0.12640275  0.00305596  0.3122412 0.7000
  2  -1277.2614762291  -0.721939914832 0.13539892  0.00212449  0.2192216 0.7000
                               ***Turning on DIIS***
  3  -1277.7681651842  -0.506688955043 0.11008636  0.00153036  0.1538015 0.7000
  4  -1278.1312041079  -0.363038923762 0.07800645  0.00113043  0.1078818 0.7000
  5  -1278.3884656603  -0.257261552383 0.17548933  0.00271049  0.0756794 0.0000
  6  -1279.0006768845  -0.612211224162 0.00549866  0.00009259  0.0039776 0.0000
                      *** Initiating the SOSCF procedure ***
                           *** Shutting down DIIS ***
                      *** Re-Reading the Fockian *** 
                      *** Removing any level shift *** 
ITER      Energy       Delta-E        Grad      Rot      Max-DP    RMS-DP
  7  -1279.00103931  -0.0003624244  0.000849  0.000849  0.002510  0.000045
               *** Restarting incremental Fock matrix formation ***
  8  -1279.00123732  -0.0001980086  0.000721  0.003323  0.003274  0.000046
  9  -1279.00125479  -0.0000174698  0.000501  0.001482  0.001619  0.000029
 10  -1279.00126932  -0.0000145336  0.000077  0.000364  0.000526  0.000014
 11  -1279.00127018  -0.0000008561  0.000044  0.000059  0.000146  0.000003
 12  -1279.00127042  -0.0000002420  0.000014  0.000107  0.000087  0.000002
 13  -1279.00127045  -0.0000000300  0.000004  0.000016  0.000022  0.000000
 14  -1279.00127045   0.0000000024  0.000004  0.000010  0.000014  0.000000
                  ***Gradient check signals convergence***
              ***Rediagonalizing the Fockian in SOSCF/NRSCF***

               *****************************************************
               *                     SUCCESS                       *
               *           SCF CONVERGED AFTER  15 CYCLES          *
               *****************************************************

Old exchange energy                            =    -71.777293479 Eh
New exchange energy                            =    -71.777181718 Eh
Exchange energy change after final integration =      0.000111760 Eh
Total energy after final integration           =  -1279.001158691 Eh
Final COS-X integration done in                =    31.414 sec

SMD CDS free energy correction energy :                -5.74582     Kcal/mol
Total Energy after SMD CDS correction =             -1279.010315239 Eh

----------------
TOTAL SCF ENERGY
----------------

Total Energy       :        -1279.01031524 Eh          -34803.64006 eV

Components:
Nuclear Repulsion  :         2673.00241146 Eh           72736.09345 eV
Electronic Energy  :        -3952.01272670 Eh         -107539.73351 eV
One Electron Energy:        -7056.85389175 Eh         -192026.75685 eV
Two Electron Energy:         3104.84116505 Eh           84487.02334 eV
Max COSX asymmetry :            0.00000501 Eh               0.00014 eV
CPCM Dielectric    :           -0.02974544 Eh              -0.80941 eV
SMD CDS (Gcds)     :           -0.00915655 Eh              -0.24916 eV

Virial components:
Potential Energy   :        -2548.60329942 Eh          -69351.02152 eV
Kinetic Energy     :         1269.59298418 Eh           34547.38145 eV
Virial Ratio       :            2.00741760


DFT components:
N(Alpha)           :      100.999840611858 electrons
N(Beta)            :      100.999840611858 electrons
N(Total)           :      201.999681223715 electrons
E(X)               :      -95.439332740509 Eh       
E(C)               :       -8.939777505578 Eh       
E(XC)              :     -104.379110246087 Eh       
DFET-embed. en.    :        0.000000000000 Eh       
CPCM Solvation Model Properties:
Surface-charge          :           -0.04690181
Charge-correction       :            0.00000443 Eh               0.00012 eV
Free-energy (cav+disp)  :           -0.00915655 Eh              -0.24916 eV

---------------
SCF CONVERGENCE
---------------

  Last Energy change         ...   -4.9324e-09  Tolerance :   1.0000e-08
  Last MAX-Density change    ...    2.4425e-15  Tolerance :   1.0000e-07
  Last RMS-Density change    ...    3.1932e-17  Tolerance :   5.0000e-09
  Last Orbital Gradient      ...    8.3849e-07  Tolerance :   1.0000e-05
  Last Orbital Rotation      ...    4.1599e-06  Tolerance :   1.0000e-05

             **** THE GBW FILE WAS UPDATED (optpbed3-b2plyp-test-577-optimize-part.gbw) ****
             **** DENSITY optpbed3-b2plyp-test-577-optimize-part.scfp WAS UPDATED ****
             **** ENERGY FILE WAS UPDATED (optpbed3-b2plyp-test-577-optimize-part.en.tmp) ****
             **** THE GBW FILE WAS UPDATED (optpbed3-b2plyp-test-577-optimize-part.gbw) ****
             **** DENSITY optpbed3-b2plyp-test-577-optimize-part.scfp WAS UPDATED ****
----------------
ORBITAL ENERGIES
----------------

  NO   OCC          E(Eh)            E(eV) 
   0   2.0000     -19.546371      -531.8838 
   1   2.0000     -19.533954      -531.5459 
   2   2.0000     -19.497019      -530.5409 
   3   2.0000     -19.479054      -530.0520 
   4   2.0000     -14.686479      -399.6394 
   5   2.0000     -10.593672      -288.2685 
   6   2.0000     -10.563438      -287.4458 
   7   2.0000     -10.522083      -286.3204 
   8   2.0000     -10.495994      -285.6105 
   9   2.0000     -10.493861      -285.5525 
  10   2.0000     -10.489551      -285.4352 
  11   2.0000     -10.483638      -285.2743 
  12   2.0000     -10.482099      -285.2324 
  13   2.0000     -10.480876      -285.1991 
  14   2.0000     -10.477897      -285.1181 
  15   2.0000     -10.476702      -285.0856 
  16   2.0000     -10.467463      -284.8342 
  17   2.0000     -10.466883      -284.8184 
  18   2.0000     -10.463846      -284.7357 
  19   2.0000     -10.462556      -284.7006 
  20   2.0000     -10.461279      -284.6659 
  21   2.0000     -10.458630      -284.5938 
  22   2.0000     -10.453458      -284.4531 
  23   2.0000     -10.453439      -284.4525 
  24   2.0000     -10.453274      -284.4481 
  25   2.0000     -10.452873      -284.4371 
  26   2.0000     -10.452110      -284.4164 
  27   2.0000     -10.451504      -284.3999 
  28   2.0000     -10.421918      -283.5948 
  29   2.0000      -1.232832       -33.5471 
  30   2.0000      -1.185047       -32.2468 
  31   2.0000      -1.168531       -31.7973 
  32   2.0000      -1.139913       -31.0186 
  33   2.0000      -1.083501       -29.4836 
  34   2.0000      -1.006619       -27.3915 
  35   2.0000      -0.978097       -26.6154 
  36   2.0000      -0.947889       -25.7934 
  37   2.0000      -0.923822       -25.1385 
  38   2.0000      -0.893443       -24.3118 
  39   2.0000      -0.875469       -23.8227 
  40   2.0000      -0.869500       -23.6603 
  41   2.0000      -0.851610       -23.1735 
  42   2.0000      -0.834802       -22.7161 
  43   2.0000      -0.811124       -22.0718 
  44   2.0000      -0.806680       -21.9509 
  45   2.0000      -0.785439       -21.3729 
  46   2.0000      -0.757520       -20.6132 
  47   2.0000      -0.734457       -19.9856 
  48   2.0000      -0.724536       -19.7156 
  49   2.0000      -0.703720       -19.1492 
  50   2.0000      -0.689028       -18.7494 
  51   2.0000      -0.682133       -18.5618 
  52   2.0000      -0.653775       -17.7901 
  53   2.0000      -0.648660       -17.6509 
  54   2.0000      -0.628206       -17.0944 
  55   2.0000      -0.616152       -16.7663 
  56   2.0000      -0.605083       -16.4652 
  57   2.0000      -0.590967       -16.0810 
  58   2.0000      -0.573335       -15.6012 
  59   2.0000      -0.570657       -15.5284 
  60   2.0000      -0.561153       -15.2697 
  61   2.0000      -0.556639       -15.1469 
  62   2.0000      -0.544836       -14.8257 
  63   2.0000      -0.537728       -14.6323 
  64   2.0000      -0.533501       -14.5173 
  65   2.0000      -0.529625       -14.4118 
  66   2.0000      -0.527855       -14.3637 
  67   2.0000      -0.515575       -14.0295 
  68   2.0000      -0.513788       -13.9809 
  69   2.0000      -0.504226       -13.7207 
  70   2.0000      -0.496585       -13.5128 
  71   2.0000      -0.489422       -13.3179 
  72   2.0000      -0.485691       -13.2163 
  73   2.0000      -0.482627       -13.1330 
  74   2.0000      -0.477236       -12.9863 
  75   2.0000      -0.466625       -12.6975 
  76   2.0000      -0.464282       -12.6338 
  77   2.0000      -0.462496       -12.5852 
  78   2.0000      -0.459475       -12.5030 
  79   2.0000      -0.446104       -12.1391 
  80   2.0000      -0.444580       -12.0976 
  81   2.0000      -0.437800       -11.9131 
  82   2.0000      -0.434912       -11.8346 
  83   2.0000      -0.429026       -11.6744 
  84   2.0000      -0.424573       -11.5532 
  85   2.0000      -0.413074       -11.2403 
  86   2.0000      -0.407010       -11.0753 
  87   2.0000      -0.398997       -10.8573 
  88   2.0000      -0.397136       -10.8066 
  89   2.0000      -0.390373       -10.6226 
  90   2.0000      -0.376843       -10.2544 
  91   2.0000      -0.362842        -9.8734 
  92   2.0000      -0.360036        -9.7971 
  93   2.0000      -0.352147        -9.5824 
  94   2.0000      -0.344000        -9.3607 
  95   2.0000      -0.333726        -9.0812 
  96   2.0000      -0.328472        -8.9382 
  97   2.0000      -0.310023        -8.4361 
  98   2.0000      -0.292361        -7.9556 
  99   2.0000      -0.246583        -6.7099 
 100   2.0000      -0.239486        -6.5167 
 101   0.0000      -0.073720        -2.0060 
 102   0.0000      -0.036940        -1.0052 
 103   0.0000      -0.005200        -0.1415 
 104   0.0000       0.033620         0.9149 
 105   0.0000       0.040030         1.0893 
 106   0.0000       0.044878         1.2212 
 107   0.0000       0.068651         1.8681 
 108   0.0000       0.120218         3.2713 
 109   0.0000       0.140693         3.8285 
 110   0.0000       0.154130         4.1941 
 111   0.0000       0.156996         4.2721 
 112   0.0000       0.159610         4.3432 
 113   0.0000       0.161383         4.3914 
 114   0.0000       0.169363         4.6086 
 115   0.0000       0.180664         4.9161 
 116   0.0000       0.182433         4.9643 
 117   0.0000       0.192132         5.2282 
 118   0.0000       0.196539         5.3481 
 119   0.0000       0.202220         5.5027 
 120   0.0000       0.209142         5.6910 
 121   0.0000       0.212468         5.7816 
 122   0.0000       0.215254         5.8574 
 123   0.0000       0.216934         5.9031 
 124   0.0000       0.223203         6.0737 
 125   0.0000       0.224927         6.1206 
 126   0.0000       0.226537         6.1644 
 127   0.0000       0.231824         6.3082 
 128   0.0000       0.234264         6.3747 
 129   0.0000       0.235036         6.3956 
 130   0.0000       0.238152         6.4804 
 131   0.0000       0.244667         6.6577 
 132   0.0000       0.251553         6.8451 
 133   0.0000       0.260419         7.0864 
 134   0.0000       0.265772         7.2320 
 135   0.0000       0.269117         7.3230 
 136   0.0000       0.276760         7.5310 
 137   0.0000       0.279440         7.6039 
 138   0.0000       0.283599         7.7171 
 139   0.0000       0.299073         8.1382 
 140   0.0000       0.307889         8.3781 
 141   0.0000       0.309444         8.4204 
 142   0.0000       0.321126         8.7383 
 143   0.0000       0.328696         8.9443 
 144   0.0000       0.339898         9.2491 
 145   0.0000       0.347843         9.4653 
 146   0.0000       0.356985         9.7141 
 147   0.0000       0.373203        10.1554 
 148   0.0000       0.381165        10.3720 
 149   0.0000       0.389450        10.5975 
 150   0.0000       0.399059        10.8589 
 151   0.0000       0.412148        11.2151 
 152   0.0000       0.421138        11.4598 
 153   0.0000       0.431579        11.7438 
 154   0.0000       0.444113        12.0849 
 155   0.0000       0.459220        12.4960 
 156   0.0000       0.463987        12.6257 
 157   0.0000       0.477609        12.9964 
 158   0.0000       0.483043        13.1443 
 159   0.0000       0.487206        13.2575 
 160   0.0000       0.492419        13.3994 
 161   0.0000       0.496272        13.5042 
 162   0.0000       0.502515        13.6741 
 163   0.0000       0.510648        13.8954 
 164   0.0000       0.516001        14.0411 
 165   0.0000       0.517393        14.0790 
 166   0.0000       0.524003        14.2589 
 167   0.0000       0.529180        14.3997 
 168   0.0000       0.537226        14.6187 
 169   0.0000       0.538593        14.6559 
 170   0.0000       0.540871        14.7178 
 171   0.0000       0.543072        14.7777 
 172   0.0000       0.547430        14.8963 
 173   0.0000       0.550033        14.9671 
 174   0.0000       0.553186        15.0530 
 175   0.0000       0.556308        15.1379 
 176   0.0000       0.562904        15.3174 
 177   0.0000       0.569835        15.5060 
 178   0.0000       0.579407        15.7665 
 179   0.0000       0.581127        15.8133 
 180   0.0000       0.591324        16.0907 
 181   0.0000       0.593683        16.1549 
 182   0.0000       0.597540        16.2599 
 183   0.0000       0.598200        16.2779 
 184   0.0000       0.603156        16.4127 
 185   0.0000       0.606262        16.4972 
 186   0.0000       0.611962        16.6523 
 187   0.0000       0.617993        16.8164 
 188   0.0000       0.622420        16.9369 
 189   0.0000       0.625414        17.0184 
 190   0.0000       0.626449        17.0465 
 191   0.0000       0.630570        17.1587 
 192   0.0000       0.637729        17.3535 
 193   0.0000       0.641720        17.4621 
 194   0.0000       0.646939        17.6041 
 195   0.0000       0.649572        17.6757 
 196   0.0000       0.661937        18.0122 
 197   0.0000       0.666369        18.1328 
 198   0.0000       0.670744        18.2519 
 199   0.0000       0.684662        18.6306 
 200   0.0000       0.689377        18.7589 
 201   0.0000       0.701606        19.0917 
 202   0.0000       0.704523        19.1711 
 203   0.0000       0.710391        19.3307 
[...]
      dxy     :     0.009119
  3 C s       :     2.809784  s :     2.809784
      pz      :     0.964303  p :     2.721506
      px      :     0.987632
      py      :     0.769571
      dz2     :     0.131446  d :     0.328541
      dxz     :     0.084810
      dyz     :     0.062636
      dx2y2   :     0.028504
      dxy     :     0.021145
  4 O s       :     3.511396  s :     3.511396
      pz      :     1.576353  p :     4.652400
      px      :     1.641633
      py      :     1.434414
      dz2     :     0.015637  d :     0.057578
      dxz     :     0.019888
      dyz     :     0.010692
      dx2y2   :     0.005880
      dxy     :     0.005481
  5 C s       :     2.850517  s :     2.850517
      pz      :     0.926705  p :     3.052001
      px      :     1.056598
      py      :     1.068698
      dz2     :     0.007436  d :     0.106575
      dxz     :     0.009585
      dyz     :     0.015363
      dx2y2   :     0.040832
      dxy     :     0.033360
  6 C s       :     2.837309  s :     2.837309
      pz      :     1.008135  p :     3.116093
      px      :     1.057383
      py      :     1.050576
      dz2     :     0.008140  d :     0.113539
      dxz     :     0.015963
      dyz     :     0.009287
      dx2y2   :     0.048511
      dxy     :     0.031638
  7 C s       :     2.811111  s :     2.811111
      pz      :     1.004783  p :     3.107967
      px      :     1.042993
      py      :     1.060191
      dz2     :     0.007677  d :     0.120885
      dxz     :     0.013926
      dyz     :     0.017840
      dx2y2   :     0.039088
      dxy     :     0.042353
  8 C s       :     2.802727  s :     2.802727
      pz      :     0.997503  p :     3.018339
      px      :     1.056619
      py      :     0.964217
      dz2     :     0.009864  d :     0.154804
      dxz     :     0.023627
      dyz     :     0.022287
      dx2y2   :     0.038865
      dxy     :     0.060161
  9 C s       :     2.885001  s :     2.885001
      pz      :     1.017372  p :     3.174358
      px      :     1.071770
      py      :     1.085215
      dz2     :     0.006630  d :     0.091572
      dxz     :     0.012668
      dyz     :     0.008202
      dx2y2   :     0.030938
      dxy     :     0.033133
 10 C s       :     2.888599  s :     2.888599
      pz      :     1.061116  p :     3.216050
      px      :     1.089511
      py      :     1.065424
      dz2     :     0.006446  d :     0.085652
      dxz     :     0.003450
      dyz     :     0.015579
      dx2y2   :     0.032053
      dxy     :     0.028124
 11 C s       :     2.817349  s :     2.817349
      pz      :     0.969640  p :     2.935177
      px      :     1.028821
      py      :     0.936717
      dz2     :     0.011744  d :     0.183928
      dxz     :     0.016159
      dyz     :     0.035427
      dx2y2   :     0.064628
      dxy     :     0.055970
 12 O s       :     3.407226  s :     3.407226
      pz      :     1.780229  p :     4.687109
      px      :     1.400021
      py      :     1.506859
      dz2     :     0.007978  d :     0.075714
      dxz     :     0.010417
      dyz     :     0.009917
      dx2y2   :     0.027474
      dxy     :     0.019927
 13 C s       :     2.953895  s :     2.953895
      pz      :     1.146443  p :     3.112594
      px      :     0.810115
      py      :     1.156036
      dz2     :     0.019164  d :     0.121076
      dxz     :     0.034180
      dyz     :     0.008503
      dx2y2   :     0.039831
      dxy     :     0.019399
 14 C s       :     2.829634  s :     2.829634
      pz      :     1.007043  p :     3.101663
      px      :     1.043080
      py      :     1.051540
      dz2     :     0.007245  d :     0.109165
      dxz     :     0.013686
      dyz     :     0.013631
      dx2y2   :     0.039010
      dxy     :     0.035594
 15 C s       :     2.834390  s :     2.834390
      pz      :     0.978053  p :     3.075338
      px      :     1.032755
      py      :     1.064529
      dz2     :     0.006727  d :     0.109022
      dxz     :     0.011066
      dyz     :     0.015209
      dx2y2   :     0.037392
      dxy     :     0.038628
 16 C s       :     2.886481  s :     2.886481
      pz      :     0.979318  p :     3.145615
      px      :     1.101383
      py      :     1.064914
      dz2     :     0.006259  d :     0.089032
      dxz     :     0.004124
      dyz     :     0.014002
      dx2y2   :     0.032838
      dxy     :     0.031808
 17 C s       :     2.833143  s :     2.833143
      pz      :     0.955086  p :     3.090934
      px      :     1.070441
      py      :     1.065408
      dz2     :     0.006936  d :     0.114394
      dxz     :     0.012410
      dyz     :     0.014322
      dx2y2   :     0.041078
      dxy     :     0.039648
 18 C s       :     2.891840  s :     2.891840
      pz      :     0.981920  p :     3.147227
      px      :     1.097968
      py      :     1.067339
      dz2     :     0.006155  d :     0.089916
      dxz     :     0.004921
      dyz     :     0.012949
      dx2y2   :     0.036464
      dxy     :     0.029427
 19 C s       :     2.895922  s :     2.895922
      pz      :     0.969799  p :     3.150837
      px      :     1.084635
      py      :     1.096403
      dz2     :     0.006243  d :     0.090885
      dxz     :     0.013840
      dyz     :     0.004609
      dx2y2   :     0.036126
      dxy     :     0.030066
 20 C s       :     2.895441  s :     2.895441
      pz      :     0.975025  p :     3.155211
      px      :     1.081137
      py      :     1.099049
      dz2     :     0.006218  d :     0.090800
      dxz     :     0.008607
      dyz     :     0.009701
      dx2y2   :     0.029531
      dxy     :     0.036743
 21 C s       :     2.891851  s :     2.891851
      pz      :     0.978632  p :     3.144073
      px      :     1.082544
      py      :     1.082897
      dz2     :     0.006148  d :     0.090125
      dxz     :     0.003869
      dyz     :     0.014306
      dx2y2   :     0.032380
      dxy     :     0.033422
 22 C s       :     2.831077  s :     2.831077
      pz      :     0.965227  p :     3.099588
      px      :     1.069857
      py      :     1.064505
      dz2     :     0.006981  d :     0.114391
      dxz     :     0.012096
      dyz     :     0.014411
      dx2y2   :     0.041033
      dxy     :     0.039869
 23 C s       :     2.884608  s :     2.884608
      pz      :     0.974888  p :     3.131068
      px      :     1.087932
      py      :     1.068249
      dz2     :     0.006287  d :     0.089974
      dxz     :     0.004453
      dyz     :     0.014662
      dx2y2   :     0.033938
      dxy     :     0.030634
 24 C s       :     2.831486  s :     2.831486
      pz      :     0.993683  p :     3.089039
      px      :     1.060922
      py      :     1.034435
      dz2     :     0.006911  d :     0.110021
      dxz     :     0.013224
      dyz     :     0.012694
      dx2y2   :     0.039611
      dxy     :     0.037581
 25 N s       :     3.051029  s :     3.051029
      pz      :     1.552524  p :     3.927222
      px      :     1.189533
      py      :     1.185165
      dz2     :     0.007347  d :     0.111169
      dxz     :     0.012664
      dyz     :     0.014924
      dx2y2   :     0.036071
      dxy     :     0.040164
 26 C s       :     2.934185  s :     2.934185
      pz      :     1.153923  p :     3.217270
      px      :     1.140315
      py      :     0.923032
      dz2     :     0.016698  d :     0.098446
      dxz     :     0.018494
      dyz     :     0.018652
      dx2y2   :     0.020787
      dxy     :     0.023814
 27 C s       :     2.803734  s :     2.803734
      pz      :     0.806283  p :     2.780861
      px      :     0.967400
      py      :     1.007178
      dz2     :     0.016022  d :     0.284760
      dxz     :     0.054433
      dyz     :     0.019827
      dx2y2   :     0.127067
      dxy     :     0.067411
 28 O s       :     3.509238  s :     3.509238
      pz      :     1.459512  p :     4.697941
      px      :     1.566218
      py      :     1.672211
      dz2     :     0.006567  d :     0.056334
      dxz     :     0.010297
      dyz     :     0.005296
      dx2y2   :     0.014488
      dxy     :     0.019686
 29 H s       :     0.861862  s :     0.861862
 30 H s       :     0.861599  s :     0.861599
 31 H s       :     0.852411  s :     0.852411
 32 H s       :     0.864967  s :     0.864967
 33 H s       :     0.860347  s :     0.860347
 34 H s       :     0.835680  s :     0.835680
 35 H s       :     0.834003  s :     0.834003
 36 H s       :     0.871562  s :     0.871562
 37 H s       :     0.871733  s :     0.871733
 38 H s       :     0.858261  s :     0.858261
 39 H s       :     0.835052  s :     0.835052
 40 H s       :     0.842218  s :     0.842218
 41 H s       :     0.843951  s :     0.843951
 42 H s       :     0.844022  s :     0.844022
 43 H s       :     0.841547  s :     0.841547
 44 H s       :     0.837176  s :     0.837176
 45 H s       :     0.858335  s :     0.858335
 46 H s       :     0.846183  s :     0.846183
 47 H s       :     0.857582  s :     0.857582


                      *****************************
                      * MAYER POPULATION ANALYSIS *
                      *****************************

  NA   - Mulliken gross atomic population
  ZA   - Total nuclear charge
  QA   - Mulliken gross atomic charge
  VA   - Mayer's total valence
  BVA  - Mayer's bonded valence
  FA   - Mayer's free valence

  ATOM       NA         ZA         QA         VA         BVA        FA
  0 C      6.6958     6.0000    -0.6958     3.7040     3.7040     0.0000
  1 C      6.1990     6.0000    -0.1990     3.6663     3.6663     0.0000
  2 O      8.4355     8.0000    -0.4355     2.1116     2.1116    -0.0000
  3 C      5.5587     6.0000     0.4413     4.0496     4.0496    -0.0000
  4 O      8.4004     8.0000    -0.4004     2.1878     2.1878     0.0000
  5 C      6.0644     6.0000    -0.0644     3.5896     3.5896     0.0000
  6 C      6.0233     6.0000    -0.0233     3.5517     3.5517     0.0000
  7 C      6.0612     6.0000    -0.0612     3.7401     3.7401    -0.0000
  8 C      5.5932     6.0000     0.4068     3.4637     3.4637    -0.0000
  9 C      6.3166     6.0000    -0.3166     3.7438     3.7438     0.0000
 10 C      6.4171     6.0000    -0.4171     3.7483     3.7483     0.0000
 11 C      5.6984     6.0000     0.3016     3.6353     3.6353     0.0000
 12 O      8.4712     8.0000    -0.4712     2.1216     2.1216     0.0000
 13 C      6.4370     6.0000    -0.4370     3.6504     3.6504    -0.0000
 14 C      5.9274     6.0000     0.0726     3.4304     3.4304     0.0000
 15 C      5.9051     6.0000     0.0949     3.6010     3.6010     0.0000
 16 C      6.4732     6.0000    -0.4732     3.6478     3.6478     0.0000
 17 C      5.8411     6.0000     0.1589     3.6508     3.6508     0.0000
 18 C      6.3120     6.0000    -0.3120     3.7482     3.7482     0.0000
 19 C      6.2574     6.0000    -0.2574     3.7795     3.7795     0.0000
 20 C      6.2634     6.0000    -0.2634     3.7806     3.7806     0.0000
 21 C      6.3070     6.0000    -0.3070     3.7395     3.7395     0.0000
 22 C      5.8644     6.0000     0.1356     3.7011     3.7011     0.0000
 23 C      6.4258     6.0000    -0.4258     3.6572     3.6572    -0.0000
 24 C      5.9201     6.0000     0.0799     3.6675     3.6675    -0.0000
 25 N      7.6319     7.0000    -0.6319     3.1593     3.1593    -0.0000
 26 C      6.5370     6.0000    -0.5370     3.6570     3.6570     0.0000
 27 C      5.4755     6.0000     0.5245     4.0558     4.0558    -0.0000
 28 O      8.4194     8.0000    -0.4194     2.2294     2.2294     0.0000
 29 H      0.7588     1.0000     0.2412     0.9093     0.9093     0.0000
 30 H      0.7612     1.0000     0.2388     0.9047     0.9047     0.0000
 31 H      0.7525     1.0000     0.2475     0.9015     0.9015     0.0000
 32 H      0.7557     1.0000     0.2443     0.9000     0.9000     0.0000
 33 H      0.7463     1.0000     0.2537     0.8952     0.8952     0.0000
 34 H      0.7140     1.0000     0.2860     0.8844     0.8844    -0.0000
 35 H      0.7034     1.0000     0.2966     0.8811     0.8811     0.0000
 36 H      0.7669     1.0000     0.2331     0.9023     0.9023    -0.0000
 37 H      0.7670     1.0000     0.2330     0.9022     0.9022    -0.0000
 38 H      0.7378     1.0000     0.2622     0.8991     0.8991    -0.0000
 39 H      0.7222     1.0000     0.2778     0.9119     0.9119    -0.0000
 40 H      0.7342     1.0000     0.2658     0.8960     0.8960    -0.0000
 41 H      0.7316     1.0000     0.2684     0.8928     0.8928     0.0000
 42 H      0.7313     1.0000     0.2687     0.8928     0.8928    -0.0000
 43 H      0.7338     1.0000     0.2662     0.8960     0.8960    -0.0000
 44 H      0.7267     1.0000     0.2733     0.8948     0.8948    -0.0000
 45 H      0.7462     1.0000     0.2538     0.8970     0.8970    -0.0000
 46 H      0.7323     1.0000     0.2677     0.9079     0.9079     0.0000
 47 H      0.7456     1.0000     0.2544     0.8972     0.8972     0.0000

  Mayer bond orders larger than 0.100000
B(  0-C ,  1-C ) :   0.9896 B(  0-C , 29-H ) :   0.9156 B(  0-C , 30-H ) :   0.9166 
B(  0-C , 31-H ) :   0.9097 B(  1-C ,  2-O ) :   0.8549 B(  1-C , 32-H ) :   0.8986 
B(  1-C , 33-H ) :   0.9082 B(  2-O ,  3-C ) :   1.1481 B(  3-C ,  4-O ) :   2.0044 
B(  3-C ,  5-C ) :   0.9228 B(  5-C ,  6-C ) :   1.4964 B(  5-C , 24-C ) :   1.1361 
B(  6-C ,  7-C ) :   1.1709 B(  6-C , 27-C ) :   0.9417 B(  7-C ,  8-C ) :   1.2220 
B(  7-C , 14-C ) :   1.3130 B(  8-C ,  9-C ) :   1.4031 B(  8-C , 25-N ) :   0.9121 
B(  9-C , 10-C ) :   1.3415 B(  9-C , 34-H ) :   0.8918 B( 10-C , 11-C ) :   1.3926 
B( 10-C , 35-H ) :   0.8807 B( 11-C , 12-O ) :   1.0631 B( 11-C , 14-C ) :   1.1814 
B( 12-O , 13-C ) :   0.9154 B( 13-C , 36-H ) :   0.9016 B( 13-C , 37-H ) :   0.9016 
B( 13-C , 38-H ) :   0.9122 B( 14-C , 15-C ) :   1.0247 B( 15-C , 16-C ) :   1.3940 
B( 15-C , 24-C ) :   1.1922 B( 16-C , 17-C ) :   1.2505 B( 16-C , 23-C ) :   0.1021 
B( 16-C , 39-H ) :   0.8927 B( 17-C , 18-C ) :   1.2059 B( 17-C , 22-C ) :   1.2278 
B( 18-C , 19-C ) :   1.5605 B( 18-C , 40-H ) :   0.9071 B( 19-C , 20-C ) :   1.2603 
B( 19-C , 41-H ) :   0.9012 B( 20-C , 21-C ) :   1.5632 B( 20-C , 42-H ) :   0.9010 
B( 21-C , 22-C ) :   1.2000 B( 21-C , 43-H ) :   0.9072 B( 22-C , 23-C ) :   1.2864 
B( 23-C , 24-C ) :   1.3418 B( 23-C , 44-H ) :   0.9035 B( 25-N , 26-C ) :   0.9524 
B( 25-N , 27-C ) :   1.1251 B( 26-C , 45-H ) :   0.9054 B( 26-C , 46-H ) :   0.9014 
B( 26-C , 47-H ) :   0.9054 B( 27-C , 28-O ) :   2.0106 

-------
TIMINGS
-------

Total SCF time: 0 days 0 hours 2 min 17 sec 

Total time                  ....     137.895 sec
Sum of individual times     ....     136.341 sec  ( 98.9%)

Fock matrix formation       ....     130.652 sec  ( 94.7%)
  Split-RI-J                ....       9.511 sec  (  7.3% of F)
  Chain of spheres X        ....     104.504 sec  ( 80.0% of F)
  XC integration            ....       4.255 sec  (  3.3% of F)
    Basis function eval.    ....       1.619 sec  ( 38.1% of XC)
    Density eval.           ....       1.447 sec  ( 34.0% of XC)
    XC-Functional eval.     ....       0.280 sec  (  6.6% of XC)
    XC-Potential eval.      ....       0.573 sec  ( 13.5% of XC)
Diagonalization             ....       0.107 sec  (  0.1%)
Density matrix formation    ....       0.029 sec  (  0.0%)
Population analysis         ....       0.079 sec  (  0.1%)
Initial guess               ....       0.117 sec  (  0.1%)
Orbital Transformation      ....       0.000 sec  (  0.0%)
Orbital Orthonormalization  ....       0.099 sec  (  0.1%)
DIIS solution               ....       0.037 sec  (  0.0%)
SOSCF solution              ....       0.437 sec  (  0.3%)
Grid generation             ....       4.883 sec  (  3.5%)

Maximum memory used throughout the entire SCF-calculation: 151.5 MB


-------------------------------------------------------------------------------
                          DFT DISPERSION CORRECTION                            
                                                                               
                              DFTD3 V3.1  Rev 1                                
                          USING Becke-Johnson damping                          
-------------------------------------------------------------------------------
The PBEh-3c composite method is recognized
Using three-body term ABC
Active option DFTDOPT                   ...         4   

molecular C6(AA) [au] = 27796.522439 


            DFT-D V3
 parameters
 s6 scaling factor         :     1.0000 
 a1 scaling factor         :     0.4860 
 s8 scaling factor         :     0.0000 
 a2 scaling factor         :     4.5000 
 Damping factor alpha9(ATM):    16.0000 
 ad hoc parameters k1-k3   :    16.0000     1.3333    -4.0000 

 Edisp/kcal,au: -24.103415961640  -0.038411234231 
 E6   /kcal   : -24.060029874 
 E8   /kcal   :  -0.000000000 
 E6(ABC)      :  -0.043386088 
 % E8         :   0.000000000 
 % E6(ABC)    :   0.179999749 

-------------------------   ----------------
Dispersion correction           -0.038411234
-------------------------   ----------------

------------------   -----------------
gCP correction             0.088432346
------------------   -----------------

-------------------------   --------------------
FINAL SINGLE POINT ENERGY     -1278.960864117451
-------------------------   --------------------

                                *** OPTIMIZATION RUN DONE ***

                            ***************************************
                            *     ORCA property calculations      *
                            ***************************************

                                    ---------------------
                                    Active property flags
                                    ---------------------
   (+) Dipole Moment


------------------------------------------------------------------------------
                       ORCA ELECTRIC PROPERTIES CALCULATION
------------------------------------------------------------------------------

Dipole Moment Calculation                       ... on
Quadrupole Moment Calculation                   ... off
Polarizability Calculation                      ... off
GBWName                                         ... optpbed3-b2plyp-test-577-optimize-part.gbw
Electron density                                ... optpbed3-b2plyp-test-577-optimize-part.scfp
The origin for moment calculation is the CENTER OF MASS  = ( 0.047510, -0.242245  0.162192)

-------------
DIPOLE MOMENT
-------------
                                X             Y             Z
Electronic contribution:     -2.04386      -2.63869       3.49130
Nuclear contribution   :     -0.22303       3.76914      -4.22813
                        -----------------------------------------
Total Dipole Moment    :     -2.26689       1.13045      -0.73683
                        -----------------------------------------
Magnitude (a.u.)       :      2.63811
Magnitude (Debye)      :      6.70554



--------------------
Rotational spectrum 
--------------------
 
Rotational constants in cm-1:     0.006384     0.005353     0.002990 
Rotational constants in MHz :   191.375756   160.467532    89.643617 

 Dipole components along the rotational axes: 
x,y,z [a.u.] :     0.289432     2.368911    -1.124326 
x,y,z [Debye]:     0.735678     6.021292    -2.857809 

 

Timings for individual modules:

Sum of individual times         ...     5135.207 sec (=  85.587 min)
GTO integral calculation        ...       31.446 sec (=   0.524 min)   0.6 %
SCF iterations                  ...     3805.209 sec (=  63.420 min)  74.1 %
SCF Gradient evaluation         ...     1289.248 sec (=  21.487 min)  25.1 %
Geometry relaxation             ...        9.304 sec (=   0.155 min)   0.2 %
                             ****ORCA TERMINATED NORMALLY****
TOTAL RUN TIME: 0 days 1 hours 26 minutes 9 seconds 554 msec
