
                                 *****************
                                 * O   R   C   A *
                                 *****************

                                            #,                                       
                                            ###                                      
                                            ####                                     
                                            #####                                    
                                            ######                                   
                                           ########,                                 
                                     ,,################,,,,,                         
                               ,,#################################,,                 
                          ,,##########################################,,             
                       ,#########################################, ''#####,          
                    ,#############################################,,   '####,        
                  ,##################################################,,,,####,       
                ,###########''''           ''''###############################       
              ,#####''   ,,,,##########,,,,          '''####'''          '####       
            ,##' ,,,,###########################,,,                        '##       
           ' ,,###''''                  '''############,,,                           
         ,,##''                                '''############,,,,        ,,,,,,###''
      ,#''                                            '''#######################'''  
     '                                                          ''''####''''         
             ,#######,   #######,   ,#######,      ##                                
            ,#'     '#,  ##    ##  ,#'     '#,    #''#        ######   ,####,        
            ##       ##  ##   ,#'  ##            #'  '#       #        #'  '#        
            ##       ##  #######   ##           ,######,      #####,   #    #        
            '#,     ,#'  ##    ##  '#,     ,#' ,#      #,         ##   #,  ,#        
             '#######'   ##     ##  '#######'  #'      '#     #####' # '####'        



                  #######################################################
                  #                        -***-                        #
                  #          Department of theory and spectroscopy      #
                  #    Directorship and core code : Frank Neese         #
                  #        Max Planck Institute fuer Kohlenforschung    #
                  #                Kaiser Wilhelm Platz 1               #
                  #                 D-45470 Muelheim/Ruhr               #
                  #                      Germany                        #
                  #                                                     #
                  #                  All rights reserved                #
                  #                        -***-                        #
                  #######################################################


                         Program Version 5.0.2 -  RELEASE  -


 With contributions from (in alphabetic order):
   Daniel Aravena         : Magnetic Suceptibility
   Michael Atanasov       : Ab Initio Ligand Field Theory (pilot matlab implementation)
   Alexander A. Auer      : GIAO ZORA, VPT2 properties, NMR spectrum
   Ute Becker             : Parallelization
   Giovanni Bistoni       : ED, misc. LED, open-shell LED, HFLD
   Martin Brehm           : Molecular dynamics
   Dmytro Bykov           : SCF Hessian
   Vijay G. Chilkuri      : MRCI spin determinant printing, contributions to CSF-ICE
   Dipayan Datta          : RHF DLPNO-CCSD density
   Achintya Kumar Dutta   : EOM-CC, STEOM-CC
   Dmitry Ganyushin       : Spin-Orbit,Spin-Spin,Magnetic field MRCI
   Miquel Garcia          : C-PCM and meta-GGA Hessian, CC/C-PCM, Gaussian charge scheme
   Yang Guo               : DLPNO-NEVPT2, F12-NEVPT2, CIM, IAO-localization
   Andreas Hansen         : Spin unrestricted coupled pair/coupled cluster methods
   Benjamin Helmich-Paris : MC-RPA, TRAH-SCF, COSX integrals
   Lee Huntington         : MR-EOM, pCC
   Robert Izsak           : Overlap fitted RIJCOSX, COSX-SCS-MP3, EOM
   Marcus Kettner         : VPT2
   Christian Kollmar      : KDIIS, OOCD, Brueckner-CCSD(T), CCSD density, CASPT2, CASPT2-K
   Simone Kossmann        : Meta GGA functionals, TD-DFT gradient, OOMP2, MP2 Hessian
   Martin Krupicka        : Initial AUTO-CI
   Lucas Lang             : DCDCAS
   Marvin Lechner         : AUTO-CI (C++ implementation), FIC-MRCC
   Dagmar Lenk            : GEPOL surface, SMD
   Dimitrios Liakos       : Extrapolation schemes; Compound Job, initial MDCI parallelization
   Dimitrios Manganas     : Further ROCIS development; embedding schemes
   Dimitrios Pantazis     : SARC Basis sets
   Anastasios Papadopoulos: AUTO-CI, single reference methods and gradients
   Taras Petrenko         : DFT Hessian,TD-DFT gradient, ASA, ECA, R-Raman, ABS, FL, XAS/XES, NRVS
   Peter Pinski           : DLPNO-MP2, DLPNO-MP2 Gradient
   Christoph Reimann      : Effective Core Potentials
   Marius Retegan         : Local ZFS, SOC
   Christoph Riplinger    : Optimizer, TS searches, QM/MM, DLPNO-CCSD(T), (RO)-DLPNO pert. Triples
   Tobias Risthaus        : Range-separated hybrids, TD-DFT gradient, RPA, STAB
   Michael Roemelt        : Original ROCIS implementation
   Masaaki Saitow         : Open-shell DLPNO-CCSD energy and density
   Barbara Sandhoefer     : DKH picture change effects
   Avijit Sen             : IP-ROCIS
   Kantharuban Sivalingam : CASSCF convergence, NEVPT2, FIC-MRCI
   Bernardo de Souza      : ESD, SOC TD-DFT
   Georgi Stoychev        : AutoAux, RI-MP2 NMR, DLPNO-MP2 response
   Willem Van den Heuvel  : Paramagnetic NMR
   Boris Wezisla          : Elementary symmetry handling
   Frank Wennmohs         : Technical directorship


 We gratefully acknowledge several colleagues who have allowed us to
 interface, adapt or use parts of their codes:
   Stefan Grimme, W. Hujo, H. Kruse, P. Pracht,  : VdW corrections, initial TS optimization,
                  C. Bannwarth, S. Ehlert          DFT functionals, gCP, sTDA/sTD-DF
   Ed Valeev, F. Pavosevic, A. Kumar             : LibInt (2-el integral package), F12 methods
   Garnet Chan, S. Sharma, J. Yang, R. Olivares  : DMRG
   Ulf Ekstrom                                   : XCFun DFT Library
   Mihaly Kallay                                 : mrcc  (arbitrary order and MRCC methods)
   Jiri Pittner, Ondrej Demel                    : Mk-CCSD
   Frank Weinhold                                : gennbo (NPA and NBO analysis)
   Christopher J. Cramer and Donald G. Truhlar   : smd solvation model
   Lars Goerigk                                  : TD-DFT with DH, B97 family of functionals
   V. Asgeirsson, H. Jonsson                     : NEB implementation
   FAccTs GmbH                                   : IRC, NEB, NEB-TS, DLPNO-Multilevel, CI-OPT
                                                   MM, QMMM, 2- and 3-layer-ONIOM, Crystal-QMMM,
                                                   LR-CPCM, SF, NACMEs, symmetry and pop. for TD-DFT,
                                                   nearIR, NL-DFT gradient (VV10), updates on ESD,
                                                   ML-optimized integration grids
   S Lehtola, MJT Oliveira, MAL Marques          : LibXC Library
   Liviu Ungur et al                             : ANISO software


 Your calculation uses the libint2 library for the computation of 2-el integrals
 For citations please refer to: http://libint.valeyev.net

 Your ORCA version has been built with support for libXC version: 5.1.0
 For citations please refer to: https://tddft.org/programs/libxc/

 This ORCA versions uses:
   CBLAS   interface :  Fast vector & matrix operations
   LAPACKE interface :  Fast linear algebra routines
   SCALAPACK package :  Parallel linear algebra routines
   Shared memory     :  Shared parallel matrices
   BLAS/LAPACK       :  OpenBLAS 0.3.15  USE64BITINT DYNAMIC_ARCH NO_AFFINITY Haswell SINGLE_THREADED
        Core in use  :  Haswell
   Copyright (c) 2011-2014, The OpenBLAS Project


Your calculation utilizes the atom-pairwise dispersion correction
with the Becke-Johnson damping scheme (D3BJ)
Cite in your paper:
S.Grimme, S.Ehrlich, L.Goerigk, J Comput Chem, (2011), 32, 1456–1465 
S.Grimme, J.Antony, S.Ehrlich and H.Krieg, J.Chem.Phys., 132, (2010), 154104 
   

Your calculation utilizes the SMD solvation module
Please cite in your paper:
A.V. Marenich, C.J. Cramer, D.G. Truhlar J. Phys. Chem. B, 113, (2009), 6378 

================================================================================

----- Orbital basis set information -----
Your calculation utilizes the basis: aug-cc-pVTZ 
    H, B-Ne : Obtained from the ccRepo (grant-hill.group.shef.ac.uk/ccrepo) Feb. 2017
              R. A. Kendall, T. H. Dunning, Jr., R. J. Harrison, J. Chem. Phys. 96, 6796 (1992)
         He : Obtained from the ccRepo (grant-hill.group.shef.ac.uk/ccrepo) Feb. 2017
              D. E. Woon, T. H. Dunning, Jr., J. Chem. Phys. 100, 2975 (1994)
  Li-Be, Na : Obtained from the ccRepo (grant-hill.group.shef.ac.uk/ccrepo) Feb. 2017
              B. P. Prascher, D. E. Woon, K. A. Peterson, T. H. Dunning, Jr., A. K. Wilson, Theor. Chem. Acc. 128, 69 (2011)
         Mg : Obtained from the Peterson Research Group Website (tyr0.chem.wsu.edu/~kipeters) Feb. 2017
              B. P. Prascher, D. E. Woon, K. A. Peterson, T. H. Dunning, Jr., A. K. Wilson, Theor. Chem. Acc. 128, 69 (2011)
      Al-Ar : Obtained from the ccRepo (grant-hill.group.shef.ac.uk/ccrepo) Feb. 2017
              D. E. Woon, T. H. Dunning, Jr., J. Chem. Phys. 98, 1358 (1993)
      Sc-Zn : Obtained from the ccRepo (grant-hill.group.shef.ac.uk/ccrepo) Feb. 2017
              N. B. Balabanov, K. A. Peterson, J. Chem. Phys. 123, 064107 (2005)
              N. B. Balabanov, K. A. Peterson, J. Chem. Phys. 125, 074110 (2006)
      Ga-Kr : Obtained from the ccRepo (grant-hill.group.shef.ac.uk/ccrepo) Feb. 2017
              A. K. Wilson, D. E. Woon, K. A. Peterson, T. H. Dunning, Jr., J. Chem. Phys. 110, 7667 (1999)
     Ag, Au : Obtained from the Peterson Research Group Website (tyr0.chem.wsu.edu/~kipeters) Feb. 2017
              K. A. Peterson, C. Puzzarini, Theor. Chem. Acc. 114, 283 (2005)

The basis set includes element-specific modifications.

Your calculation utilizes the basis: cc-pVTZ 
       H, B-Ne : Obtained from the ccRepo (grant-hill.group.shef.ac.uk/ccrepo) Feb. 2017
                 T. H. Dunning, Jr., J. Chem. Phys. 90, 1007 (1989)
            He : Obtained from the ccRepo (grant-hill.group.shef.ac.uk/ccrepo) Feb. 2017
                 D. E. Woon, T. H. Dunning, Jr., J. Chem. Phys. 100, 2975 (1994)
  Li-Be, Na-Mg : Obtained from the ccRepo (grant-hill.group.shef.ac.uk/ccrepo) Feb. 2017
                 B. P. Prascher, D. E. Woon, K. A. Peterson, T. H. Dunning, Jr., A. K. Wilson, Theor. Chem. Acc. 128, 69 (2011)
         Al-Ar : Obtained from the ccRepo (grant-hill.group.shef.ac.uk/ccrepo) Feb. 2017
                 D. E. Woon, T. H. Dunning, Jr., J. Chem. Phys. 98, 1358 (1993)
            Ca : Obtained from the Peterson Research Group Website (tyr0.chem.wsu.edu/~kipeters) Feb. 2017
                 J. Koput, K. A. Peterson, J. Phys. Chem. 106, 9595 (2002)
         Sc-Zn : Obtained from the ccRepo (grant-hill.group.shef.ac.uk/ccrepo) Feb. 2017
                 N. B. Balabanov, K. A. Peterson, J. Chem. Phys. 123, 064107 (2005)
                 N. B. Balabanov, K. A. Peterson, J. Chem. Phys. 125, 074110 (2006)
         Ga-Kr : Obtained from the ccRepo (grant-hill.group.shef.ac.uk/ccrepo) Feb. 2017
                 A. K. Wilson, D. E. Woon, K. A. Peterson, T. H. Dunning, Jr., J. Chem. Phys. 110, 7667 (1999)
             Y : Obtained from the ccRepo (grant-hill.group.shef.ac.uk/ccrepo) Feb. 2017
                 K. A. Peterson, D. Figgen, M. Dolg, H. Stoll, J. Chem. Phys. 126, 124101 (2007)
        Ag, Au : Obtained from the Peterson Research Group Website (tyr0.chem.wsu.edu/~kipeters) Feb. 2017
                 K. A. Peterson, C. Puzzarini, Theor. Chem. Acc. 114, 283 (2005)

----- AuxJ basis set information -----
Your calculation utilizes the auxiliary basis: aug-cc-pVTZ/JK 
  H, B-F, Al-Cl, Ga-Br : Obtained from the TURBOMOLE 7.0 basis set library

The basis set includes element-specific modifications.

Your calculation utilizes the auxiliary basis: cc-pVTZ/JK 
  H, B-F, Al-Cl, Ga-Br : Obtained from the TURBOMOLE 7.0 basis set library

----- AuxC basis set information -----
Your calculation utilizes the auxiliary basis: aug-cc-pVTZ/C 
  H-He, B-F, Al-Ar, Ga-Kr : Obtained from the EMSL Basis Set Exchange (bse.pnl.gov) Feb. 2017
                            F. Weigend, A. Kohn, C. Hattig, J. Chem. Phys. 116, 3175 (2002)
                   Be, Mg : Obtained from the TURBOMOLE 7.0 basis set library
                            C. Haettig, Phys. Chem. Chem. Phys. 7, 59 (2005)
                       Ne : Obtained from the EMSL Basis Set Exchange (bse.pnl.gov) Feb. 2017
                            C. Haettig, Phys. Chem. Chem. Phys. 7, 59 (2005)
                            F. Weigend, A. Kohn, C. Hattig, J. Chem. Phys. 116, 3175 (2002)
                    Sc-Zn : Obtained from the EMSL Basis Set Exchange (bse.pnl.gov) Feb. 2017
                            J. G. Hill, J. A. Platts, J. Chem. Phys. 128, 044104 (2008)

The basis set includes element-specific modifications.

Your calculation utilizes the auxiliary basis: cc-pVTZ/C 
  Obtained from the EMSL Basis Set Exchange (bse.pnl.gov) Feb. 2017
  H-He, B-F, Al-Ar, Ga-Kr : F. Weigend, A. Kohn, C. Hattig, J. Chem. Phys. 116, 3175 (2002)
             Li-Be, Na-Mg : C. Haettig, Phys. Chem. Chem. Phys. 7, 59 (2005)
                       Ne : C. Haettig, Phys. Chem. Chem. Phys. 7, 59 (2005)
                            F. Weigend, A. Kohn, C. Hattig, J. Chem. Phys. 116, 3175 (2002)
                    Sc-Zn : J. G. Hill, J. A. Platts, J. Chem. Phys. 128, 044104 (2008)

================================================================================
                                        WARNINGS
                       Please study these warnings very carefully!
================================================================================


WARNING: Geometry Optimization
  ===> : Switching off AutoStart
         For restart on a previous wavefunction, please use MOREAD

INFO   : the flag for use of the SHARK integral package has been found!



***************************************
The coordinates will be read from file: 
***************************************


Your calculation utilizes the atom-pairwise dispersion correction
with the Becke-Johnson damping scheme (D3BJ)
Cite in your paper:
S.Grimme, S.Ehrlich, L.Goerigk, J Comput Chem, (2011), 32, 1456–1465 
S.Grimme, J.Antony, S.Ehrlich and H.Krieg, J.Chem.Phys., 132, (2010), 154104 
   

Your calculation utilizes the SMD solvation module
Please cite in your paper:
A.V. Marenich, C.J. Cramer, D.G. Truhlar J. Phys. Chem. B, 113, (2009), 6378 

================================================================================

----- Orbital basis set information -----
Your calculation utilizes the basis: aug-cc-pVTZ 
    H, B-Ne : Obtained from the ccRepo (grant-hill.group.shef.ac.uk/ccrepo) Feb. 2017
              R. A. Kendall, T. H. Dunning, Jr., R. J. Harrison, J. Chem. Phys. 96, 6796 (1992)
         He : Obtained from the ccRepo (grant-hill.group.shef.ac.uk/ccrepo) Feb. 2017
              D. E. Woon, T. H. Dunning, Jr., J. Chem. Phys. 100, 2975 (1994)
  Li-Be, Na : Obtained from the ccRepo (grant-hill.group.shef.ac.uk/ccrepo) Feb. 2017
              B. P. Prascher, D. E. Woon, K. A. Peterson, T. H. Dunning, Jr., A. K. Wilson, Theor. Chem. Acc. 128, 69 (2011)
         Mg : Obtained from the Peterson Research Group Website (tyr0.chem.wsu.edu/~kipeters) Feb. 2017
              B. P. Prascher, D. E. Woon, K. A. Peterson, T. H. Dunning, Jr., A. K. Wilson, Theor. Chem. Acc. 128, 69 (2011)
      Al-Ar : Obtained from the ccRepo (grant-hill.group.shef.ac.uk/ccrepo) Feb. 2017
              D. E. Woon, T. H. Dunning, Jr., J. Chem. Phys. 98, 1358 (1993)
      Sc-Zn : Obtained from the ccRepo (grant-hill.group.shef.ac.uk/ccrepo) Feb. 2017
              N. B. Balabanov, K. A. Peterson, J. Chem. Phys. 123, 064107 (2005)
              N. B. Balabanov, K. A. Peterson, J. Chem. Phys. 125, 074110 (2006)
      Ga-Kr : Obtained from the ccRepo (grant-hill.group.shef.ac.uk/ccrepo) Feb. 2017
              A. K. Wilson, D. E. Woon, K. A. Peterson, T. H. Dunning, Jr., J. Chem. Phys. 110, 7667 (1999)
     Ag, Au : Obtained from the Peterson Research Group Website (tyr0.chem.wsu.edu/~kipeters) Feb. 2017
              K. A. Peterson, C. Puzzarini, Theor. Chem. Acc. 114, 283 (2005)

The basis set includes element-specific modifications.

Your calculation utilizes the basis: cc-pVTZ 
       H, B-Ne : Obtained from the ccRepo (grant-hill.group.shef.ac.uk/ccrepo) Feb. 2017
                 T. H. Dunning, Jr., J. Chem. Phys. 90, 1007 (1989)
            He : Obtained from the ccRepo (grant-hill.group.shef.ac.uk/ccrepo) Feb. 2017
                 D. E. Woon, T. H. Dunning, Jr., J. Chem. Phys. 100, 2975 (1994)
  Li-Be, Na-Mg : Obtained from the ccRepo (grant-hill.group.shef.ac.uk/ccrepo) Feb. 2017
                 B. P. Prascher, D. E. Woon, K. A. Peterson, T. H. Dunning, Jr., A. K. Wilson, Theor. Chem. Acc. 128, 69 (2011)
         Al-Ar : Obtained from the ccRepo (grant-hill.group.shef.ac.uk/ccrepo) Feb. 2017
                 D. E. Woon, T. H. Dunning, Jr., J. Chem. Phys. 98, 1358 (1993)
            Ca : Obtained from the Peterson Research Group Website (tyr0.chem.wsu.edu/~kipeters) Feb. 2017
                 J. Koput, K. A. Peterson, J. Phys. Chem. 106, 9595 (2002)
         Sc-Zn : Obtained from the ccRepo (grant-hill.group.shef.ac.uk/ccrepo) Feb. 2017
                 N. B. Balabanov, K. A. Peterson, J. Chem. Phys. 123, 064107 (2005)
                 N. B. Balabanov, K. A. Peterson, J. Chem. Phys. 125, 074110 (2006)
         Ga-Kr : Obtained from the ccRepo (grant-hill.group.shef.ac.uk/ccrepo) Feb. 2017
                 A. K. Wilson, D. E. Woon, K. A. Peterson, T. H. Dunning, Jr., J. Chem. Phys. 110, 7667 (1999)
             Y : Obtained from the ccRepo (grant-hill.group.shef.ac.uk/ccrepo) Feb. 2017
                 K. A. Peterson, D. Figgen, M. Dolg, H. Stoll, J. Chem. Phys. 126, 124101 (2007)
        Ag, Au : Obtained from the Peterson Research Group Website (tyr0.chem.wsu.edu/~kipeters) Feb. 2017
                 K. A. Peterson, C. Puzzarini, Theor. Chem. Acc. 114, 283 (2005)

----- AuxJ basis set information -----
Your calculation utilizes the auxiliary basis: aug-cc-pVTZ/JK 
  H, B-F, Al-Cl, Ga-Br : Obtained from the TURBOMOLE 7.0 basis set library

The basis set includes element-specific modifications.

Your calculation utilizes the auxiliary basis: cc-pVTZ/JK 
  H, B-F, Al-Cl, Ga-Br : Obtained from the TURBOMOLE 7.0 basis set library

----- AuxC basis set information -----
Your calculation utilizes the auxiliary basis: aug-cc-pVTZ/C 
  H-He, B-F, Al-Ar, Ga-Kr : Obtained from the EMSL Basis Set Exchange (bse.pnl.gov) Feb. 2017
                            F. Weigend, A. Kohn, C. Hattig, J. Chem. Phys. 116, 3175 (2002)
                   Be, Mg : Obtained from the TURBOMOLE 7.0 basis set library
                            C. Haettig, Phys. Chem. Chem. Phys. 7, 59 (2005)
                       Ne : Obtained from the EMSL Basis Set Exchange (bse.pnl.gov) Feb. 2017
                            C. Haettig, Phys. Chem. Chem. Phys. 7, 59 (2005)
                            F. Weigend, A. Kohn, C. Hattig, J. Chem. Phys. 116, 3175 (2002)
                    Sc-Zn : Obtained from the EMSL Basis Set Exchange (bse.pnl.gov) Feb. 2017
                            J. G. Hill, J. A. Platts, J. Chem. Phys. 128, 044104 (2008)

The basis set includes element-specific modifications.

Your calculation utilizes the auxiliary basis: cc-pVTZ/C 
  Obtained from the EMSL Basis Set Exchange (bse.pnl.gov) Feb. 2017
  H-He, B-F, Al-Ar, Ga-Kr : F. Weigend, A. Kohn, C. Hattig, J. Chem. Phys. 116, 3175 (2002)
             Li-Be, Na-Mg : C. Haettig, Phys. Chem. Chem. Phys. 7, 59 (2005)
                       Ne : C. Haettig, Phys. Chem. Chem. Phys. 7, 59 (2005)
                            F. Weigend, A. Kohn, C. Hattig, J. Chem. Phys. 116, 3175 (2002)
                    Sc-Zn : J. G. Hill, J. A. Platts, J. Chem. Phys. 128, 044104 (2008)

================================================================================
                                        WARNINGS
                       Please study these warnings very carefully!
================================================================================

INFO   : Checking CIS options ...
  ===> : (D) CORRECTION FOUND - SETTING MODE=3
  ===> : JK MODE FOUND - ACTIVATING RI-MP2 CODE
  ===> : MP2 AND CIS FOUND - CHECKING
WARNING: CIS(D) and MP2 runs must have the same orbital window
  ===> : adjusting orbital windows

WARNING: No MP2 level density has been requested!
         To caclulate MP2 level properties use
         %mp2 Density relaxed end
         or
         %mp2 Density unrelaxed end
         Otherwise for double-hybrid DFT only the energy is correct!

WARNING: The frozen-core approximation is turned on by default for 
         the MP2 part of double-hybrid DFT.

INFO   : the flag for use of the SHARK integral package has been found!

================================================================================
                                       INPUT FILE
================================================================================
NAME = optpbed3-b2plyp-test-563.inp
|  1> ! pbe0 d3bj aug-cc-PVTZ RIJCOSX Opt
|  2> %maxcore 4000
|  3> %basis
|  4>  AuxJ "aug-cc-PVTZ/JK"
|  5>  AuxC "aug-cc-PVTZ/C"
|  6>  newGTO H "cc-PVTZ" end
|  7>  newAuxJGTO H "cc-PVTZ/JK" end
|  8>  newAuxCGTO H "cc-PVTZ/C" end
|  9> end
| 10> %cpcm
| 11>  SMD true
| 12>  SMDsolvent "ethyl ethanoate"
| 13> end
| 14> %pal nprocs 4 end
| 15> * xyz 0 1
| 16> O          8.19590       -0.94200       -1.56170
| 17> N          7.78780        0.07430       -1.02130
| 18> O          8.49700        1.03040       -0.74940
| 19> C          6.40970        0.14850       -0.69160
| 20> C          5.57270       -0.93670       -0.96120
| 21> C          4.24470       -0.87180       -0.63190
| 22> C          3.71340        0.28730       -0.02450
| 23> N          2.38650        0.44420        0.13610
| 24> N          1.61810       -0.41590        0.64710
| 25> C          0.27280       -0.25120        0.52110
| 26> C         -0.53920       -1.17130        1.20000
| 27> C         -1.90800       -1.11480        1.12080
| 28> C         -2.53320       -0.11220        0.33990
| 29> C         -1.71630        0.81450       -0.35620
| 30> C         -0.35120        0.73550       -0.26210
| 31> C         -2.34510        1.89360       -1.19560
| 32> C         -3.72150        1.45250       -1.66930
| 33> C         -4.53690        1.03270       -0.45480
| 34> N         -3.88710       -0.05450        0.23920
| 35> C         -4.72960       -0.92030        1.03080
| 36> C         -4.08860       -2.29190        1.18580
| 37> C         -2.74140       -2.11850        1.87040
| 38> C          4.56950        1.37960        0.22510
| 39> C          5.89900        1.30510       -0.09310
| 40> H          5.99660       -1.82100       -1.41270
| 41> H          3.57690       -1.69590       -0.83290
| 42> H         -0.06040       -1.93360        1.79530
| 43> H          0.27260        1.44030       -0.79240
| 44> H         -1.69960        2.12200       -2.04480
| 45> H         -2.43820        2.80730       -0.59980
| 46> H         -3.62320        0.60360       -2.34870
| 47> H         -4.23070        2.25950       -2.19630
| 48> H         -4.66920        1.89220        0.21900
| 49> H         -5.53010        0.69490       -0.76470
| 50> H         -4.90720       -0.47920        2.02270
| 51> H         -5.69640       -1.00980        0.52680
| 52> H         -3.94600       -2.73690        0.19930
| 53> H         -4.74210       -2.94240        1.76720
| 54> H         -2.89370       -1.77030        2.89690
| 55> H         -2.21030       -3.06980        1.92360
| 56> H          4.16080        2.26100        0.69420
| 57> H          6.57100        2.12650        0.10370
| 58> *
| 59> 
| 60> 
| 61> $new_job
| 62> ! b2plyp aug-cc-PVTZ RIJCOSX SP
| 63> %maxcore 4000
| 64> %basis
| 65>  AuxJ "aug-cc-PVTZ/JK"
| 66>  AuxC "aug-cc-PVTZ/C"
| 67>  newGTO H "cc-PVTZ" end
| 68>  newAuxJGTO H "cc-PVTZ/JK" end
| 69>  newAuxCGTO H "cc-PVTZ/C" end
| 70> end
| 71> %cpcm
| 72>  SMD true
| 73>  SMDsolvent "ethyl ethanoate"
| 74> end
| 75> %pal nprocs 4 end
| 76> %tddft
| 77>  nroots 10
| 78>  maxdim 7
| 79> end
| 80> * xyzfile 0 1
| 81> 
| 82>                          ****END OF INPUT****
================================================================================


                 $$$$$$$$$$$$$$$$$$$$$$$$$$$$$$$$$$$$$$$$$$$$$$ 
                 $ THERE ARE  2 JOBS TO BE PROCESSED THIS RUN $
                 $$$$$$$$$$$$$$$$$$$$$$$$$$$$$$$$$$$$$$$$$$$$$$ 




                 $$$$$$$$$$$$$$$$  JOB NUMBER  1 $$$$$$$$$$$$$$


                       *****************************
                       * Geometry Optimization Run *
                       *****************************

Geometry optimization settings:
Update method            Update   .... BFGS
Choice of coordinates    CoordSys .... Z-matrix Internals
Initial Hessian          InHess   .... Almoef's Model

Convergence Tolerances:
Energy Change            TolE     ....  5.0000e-06 Eh
Max. Gradient            TolMAXG  ....  3.0000e-04 Eh/bohr
RMS Gradient             TolRMSG  ....  1.0000e-04 Eh/bohr
Max. Displacement        TolMAXD  ....  4.0000e-03 bohr
RMS Displacement         TolRMSD  ....  2.0000e-03 bohr
Strict Convergence                ....  False
------------------------------------------------------------------------------
                        ORCA OPTIMIZATION COORDINATE SETUP
------------------------------------------------------------------------------

The optimization will be done in new redundant internal coordinates
Making redundant internal coordinates   ...  (new redundants) done
Evaluating the initial hessian          ...  (Almloef) done
Evaluating the coordinates              ...  done
Calculating the B-matrix                .... done
Calculating the G-matrix                .... done
Diagonalizing the G-matrix              .... done
Small eigenvalue found = 1.652e-03
Small eigenvalue found = 4.582e-03
Small eigenvalue found = 9.249e-03
Small eigenvalue found = 1.940e-02
The first mode is                       ....  126
The number of degrees of freedom        ....  120

    -----------------------------------------------------------------
                    Redundant Internal Coordinates


    -----------------------------------------------------------------
         Definition                    Initial Value    Approx d2E/dq
    -----------------------------------------------------------------
      1. B(N   1,O   0)                  1.2212         0.931639   
      2. B(O   2,N   1)                  1.2211         0.932230   
      3. B(C   3,N   1)                  1.4189         0.503172   
      4. B(C   4,C   3)                  1.3968         0.609493   
      5. B(C   5,C   4)                  1.3698         0.673031   
      6. B(C   6,C   5)                  1.4123         0.575551   
      7. B(N   7,C   6)                  1.3458         0.658348   
      8. B(N   8,N   7)                  1.2615         0.803633   
      9. B(C   9,N   8)                  1.3612         0.622074   
     10. B(C  10,C   9)                  1.4024         0.596890   
     11. B(C  11,C  10)                  1.3723         0.666888   
     12. B(C  12,C  11)                  1.4163         0.567269   
     13. B(C  13,C  12)                  1.4180         0.563775   
     14. B(C  14,C  13)                  1.3706         0.670905   
     15. B(C  14,C   9)                  1.4058         0.589501   
     16. B(C  15,C  13)                  1.5048         0.409802   
     17. B(C  16,C  15)                  1.5210         0.386134   
     18. B(C  17,C  16)                  1.5219         0.384886   
     19. B(N  18,C  17)                  1.4443         0.458470   
     20. B(N  18,C  12)                  1.3589         0.627406   
     21. B(C  19,N  18)                  1.4443         0.458373   
     22. B(C  20,C  19)                  1.5219         0.384852   
     23. B(C  21,C  20)                  1.5211         0.386015   
     24. B(C  21,C  11)                  1.5046         0.410087   
     25. B(C  22,C   6)                  1.4101         0.580366   
     26. B(C  23,C  22)                  1.3691         0.674714   
     27. B(C  23,C   3)                  1.3988         0.604843   
     28. B(H  24,C   4)                  1.0796         0.374128   
     29. B(H  25,C   5)                  1.0796         0.374148   
     30. B(H  26,C  10)                  1.0792         0.374636   
     31. B(H  27,C  14)                  1.0803         0.373138   
     32. B(H  28,C  15)                  1.0909         0.358963   
     33. B(H  29,C  15)                  1.0948         0.353862   
     34. B(H  30,C  16)                  1.0917         0.357816   
     35. B(H  31,C  16)                  1.0901         0.360001   
     36. B(H  32,C  17)                  1.1001         0.346966   
     37. B(H  33,C  17)                  1.0939         0.354992   
     38. B(H  34,C  19)                  1.1000         0.347125   
     39. B(H  35,C  19)                  1.0940         0.354911   
     40. B(H  36,C  20)                  1.0916         0.358019   
     41. B(H  37,C  20)                  1.0901         0.360016   
     42. B(H  38,C  21)                  1.0946         0.354071   
     43. B(H  39,C  21)                  1.0908         0.359028   
     44. B(H  40,C  22)                  1.0789         0.375131   
     45. B(H  41,C  23)                  1.0794         0.374458   
     46. A(O   0,N   1,C   3)          118.0918         0.441023   
     47. A(O   0,N   1,O   2)          123.7828         0.490352   
     48. A(O   2,N   1,C   3)          118.1253         0.441074   
     49. A(N   1,C   3,C  23)          119.8173         0.413607   
     50. A(C   4,C   3,C  23)          120.4116         0.430813   
     51. A(N   1,C   3,C   4)          119.7704         0.414170   
     52. A(C   3,C   4,H  24)          118.8049         0.354174   
     53. A(C   5,C   4,H  24)          121.3341         0.360193   
     54. A(C   3,C   4,C   5)          119.8522         0.439178   
     55. A(C   4,C   5,C   6)          120.4635         0.434666   
     56. A(C   6,C   5,H  25)          118.2844         0.350760   
     57. A(C   4,C   5,H  25)          121.2509         0.360196   
     58. A(N   7,C   6,C  22)          119.1555         0.430759   
     59. A(C   5,C   6,N   7)          121.1925         0.430115   
     60. A(C   5,C   6,C  22)          118.9124         0.423269   
     61. A(C   6,N   7,N   8)          124.7110         0.450797   
     62. A(N   7,N   8,C   9)          118.8175         0.446186   
     63. A(N   8,C   9,C  14)          125.1121         0.427597   
     64. A(C  10,C   9,C  14)          118.2400         0.427228   
     65. A(N   8,C   9,C  10)          116.6180         0.428553   
     66. A(C   9,C  10,C  11)          121.5057         0.436804   
     67. A(C   9,C  10,H  26)          118.2656         0.353004   
     68. A(C  11,C  10,H  26)          120.2286         0.359714   
     69. A(C  12,C  11,C  21)          120.1598         0.396988   
     70. A(C  10,C  11,C  12)          120.0855         0.432820   
     71. A(C  10,C  11,C  21)          119.7543         0.408475   
     72. A(C  11,C  12,C  13)          118.6203         0.419994   
     73. A(C  13,C  12,N  18)          120.6550         0.424843   
     74. A(C  11,C  12,N  18)          120.7131         0.425313   
     75. A(C  14,C  13,C  15)          119.7231         0.408859   
     76. A(C  12,C  13,C  15)          120.1164         0.396509   
     77. A(C  12,C  13,C  14)          120.1597         0.432807   
     78. A(C  13,C  14,H  27)          120.2513         0.359836   
     79. A(C   9,C  14,H  27)          118.3638         0.352022   
     80. A(C   9,C  14,C  13)          121.3847         0.436296   
     81. A(H  28,C  15,H  29)          107.4119         0.289899   
     82. A(C  16,C  15,H  29)          109.5471         0.325151   
     83. A(C  13,C  15,H  29)          109.2968         0.328352   
     84. A(C  16,C  15,H  28)          110.7171         0.325917   
     85. A(C  13,C  15,H  28)          109.7015         0.329129   
     86. A(C  13,C  15,C  16)          110.1145         0.371264   
     87. A(H  30,C  16,H  31)          108.4725         0.290536   
     88. A(C  15,C  16,H  31)          111.0133         0.326072   
     89. A(C  17,C  16,H  30)          109.2917         0.325572   
     90. A(C  15,C  16,H  30)          109.7450         0.325745   
     91. A(C  17,C  16,H  31)          109.8611         0.325898   
     92. A(C  15,C  16,C  17)          108.4398         0.367285   
     93. A(N  18,C  17,H  33)          108.1905         0.332665   
     94. A(N  18,C  17,H  32)          110.3605         0.331407   
     95. A(C  16,C  17,H  32)          109.7367         0.323929   
     96. A(C  16,C  17,H  33)          110.2165         0.325148   
     97. A(C  16,C  17,N  18)          110.4909         0.375933   
     98. A(H  32,C  17,H  33)          107.7937         0.288503   
     99. A(C  17,N  18,C  19)          116.8830         0.385052   
    100. A(C  12,N  18,C  19)          121.0055         0.406836   
    101. A(C  12,N  18,C  17)          121.0543         0.406851   
    102. A(C  20,C  19,H  34)          109.7286         0.323949   
    103. A(N  18,C  19,H  34)          110.3663         0.331420   
    104. A(N  18,C  19,C  20)          110.5109         0.375913   
    105. A(H  34,C  19,H  35)          107.7919         0.288513   
    106. A(C  20,C  19,H  35)          110.2072         0.325131   
    107. A(N  18,C  19,H  35)          108.1832         0.332641   
    108. A(C  19,C  20,C  21)          108.4293         0.367260   
    109. A(C  21,C  20,H  37)          111.0357         0.326058   
    110. A(C  19,C  20,H  37)          109.8548         0.325896   
    111. A(C  21,C  20,H  36)          109.7258         0.325759   
    112. A(C  19,C  20,H  36)          109.2922         0.325598   
    113. A(H  36,C  20,H  37)          108.4853         0.290564   
    114. A(H  38,C  21,H  39)          107.4234         0.289934   
    115. A(C  20,C  21,H  39)          110.7175         0.325910   
    116. A(C  11,C  21,H  39)          109.6563         0.329176   
    117. A(C  20,C  21,H  38)          109.5790         0.325166   
    118. A(C  11,C  21,H  38)          109.3945         0.328422   
    119. A(C  11,C  21,C  20)          110.0229         0.371289   
    120. A(C  23,C  22,H  40)          120.8896         0.360511   
    121. A(C   6,C  22,H  40)          118.6739         0.351410   
    122. A(C   6,C  22,C  23)          120.4166         0.435515   
    123. A(C  22,C  23,H  41)          121.3864         0.360400   
    124. A(C   3,C  23,H  41)          118.6811         0.353767   
    125. A(C   3,C  23,C  22)          119.9319         0.438770   
    126. D(C   4,C   3,N   1,O   0)      1.4172         0.020024   
    127. D(C   4,C   3,N   1,O   2)   -178.6389         0.020024   
    128. D(C  23,C   3,N   1,O   2)      1.0637         0.020024   
    129. D(C  23,C   3,N   1,O   0)   -178.8802         0.020024   
    130. D(C   5,C   4,C   3,N   1)    179.3742         0.025654   
    131. D(C   5,C   4,C   3,C  23)     -0.3266         0.025654   
    132. D(H  24,C   4,C   3,C  23)   -179.2607         0.025654   
    133. D(H  24,C   4,C   3,N   1)      0.4401         0.025654   
    134. D(C   6,C   5,C   4,C   3)      0.1897         0.031701   
    135. D(C   6,C   5,C   4,H  24)    179.0962         0.031701   
    136. D(H  25,C   5,C   4,H  24)     -1.2938         0.031701   
    137. D(H  25,C   5,C   4,C   3)    179.7997         0.031701   
    138. D(N   7,C   6,C   5,H  25)     -8.9630         0.022743   
    139. D(N   7,C   6,C   5,C   4)    170.6584         0.022743   
    140. D(C  22,C   6,C   5,C   4)      0.5945         0.022743   
    141. D(C  22,C   6,C   5,H  25)   -179.0269         0.022743   
    142. D(N   8,N   7,C   6,C   5)     50.0930         0.032100   
    143. D(N   8,N   7,C   6,C  22)   -139.8667         0.032100   
    144. D(C   9,N   8,N   7,C   6)   -167.4611         0.052159   
    145. D(C  14,C   9,N   8,N   7)      7.1855         0.028405   
    146. D(C  10,C   9,N   8,N   7)   -174.8438         0.028405   
    147. D(H  26,C  10,C   9,N   8)      1.4232         0.024547   
    148. D(C  11,C  10,C   9,C  14)     -0.5754         0.024547   
    149. D(C  11,C  10,C   9,N   8)   -178.6912         0.024547   
    150. D(H  26,C  10,C   9,C  14)    179.5389         0.024547   
    151. D(C  21,C  11,C  10,C   9)   -179.7337         0.031082   
    152. D(C  12,C  11,C  10,C   9)      0.0447         0.031082   
    153. D(C  12,C  11,C  10,H  26)    179.9281         0.031082   
    154. D(C  21,C  11,C  10,H  26)      0.1497         0.031082   
    155. D(C  13,C  12,C  11,C  21)   -179.8153         0.022065   
    156. D(C  13,C  12,C  11,C  10)      0.4072         0.022065   
    157. D(N  18,C  12,C  11,C  21)     -1.0405         0.022065   
    158. D(N  18,C  12,C  11,C  10)    179.1820         0.022065   
    159. D(C  15,C  13,C  12,N  18)      1.2339         0.021783   
    160. D(C  15,C  13,C  12,C  11)   -179.9905         0.021783   
    161. D(C  14,C  13,C  12,N  18)   -179.0954         0.021783   
    162. D(C  14,C  13,C  12,C  11)     -0.3198         0.021783   
    163. D(H  27,C  14,C  13,C  15)     -0.3738         0.031486   
    164. D(H  27,C  14,C  13,C  12)    179.9542         0.031486   
    165. D(C   9,C  14,C  13,C  15)    179.4513         0.031486   
    166. D(C   9,C  14,C  13,C  12)     -0.2207         0.031486   
    167. D(H  27,C  14,C   9,C  10)   -179.5072         0.023913   
    168. D(H  27,C  14,C   9,N   8)     -1.5665         0.023913   
    169. D(C  13,C  14,C   9,N   8)    178.6052         0.023913   
    170. D(C  13,C  14,C   9,C  10)      0.6645         0.023913   
    171. D(H  29,C  15,C  13,C  14)    -85.2127         0.012439   
    172. D(H  29,C  15,C  13,C  12)     94.4594         0.012439   
    173. D(H  28,C  15,C  13,C  14)     32.3127         0.012439   
    174. D(H  28,C  15,C  13,C  12)   -148.0152         0.012439   
    175. D(C  16,C  15,C  13,C  12)    -25.9220         0.012439   
    176. D(C  16,C  15,C  13,C  14)    154.4058         0.012439   
    177. D(H  31,C  16,C  15,H  29)     54.2093         0.011864   
    178. D(H  31,C  16,C  15,C  13)    174.4397         0.011864   
    179. D(H  30,C  16,C  15,H  29)    174.1103         0.011864   
    180. D(H  30,C  16,C  15,H  28)     55.8308         0.011864   
    181. D(H  30,C  16,C  15,C  13)    -65.6593         0.011864   
    182. D(C  17,C  16,C  15,C  13)     53.6611         0.011864   
    183. D(H  31,C  16,C  15,H  28)    -64.0703         0.011864   
    184. D(C  17,C  16,C  15,H  28)    175.1511         0.011864   
    185. D(C  17,C  16,C  15,H  29)    -66.5693         0.011864   
    186. D(N  18,C  17,C  16,H  31)    178.8761         0.011791   
    187. D(N  18,C  17,C  16,H  30)     59.9703         0.011791   
    188. D(N  18,C  17,C  16,C  15)    -59.6345         0.011791   
    189. D(H  33,C  17,C  16,H  31)     59.3539         0.011791   
    190. D(H  33,C  17,C  16,H  30)    -59.5519         0.011791   
    191. D(H  33,C  17,C  16,C  15)   -179.1567         0.011791   
    192. D(H  32,C  17,C  16,H  31)    -59.2074         0.011791   
    193. D(H  32,C  17,C  16,H  30)   -178.1132         0.011791   
    194. D(H  32,C  17,C  16,C  15)     62.2820         0.011791   
    195. D(C  19,N  18,C  17,H  32)     83.4892         0.017941   
    196. D(C  19,N  18,C  17,C  16)   -154.9624         0.017941   
    197. D(C  12,N  18,C  17,H  33)    157.4205         0.017941   
    198. D(C  12,N  18,C  17,H  32)    -84.8661         0.017941   
    199. D(C  12,N  18,C  17,C  16)     36.6824         0.017941   
    200. D(C  19,N  18,C  12,C  13)   -174.7408         0.031935   
    201. D(C  19,N  18,C  12,C  11)      6.5094         0.031935   
    202. D(C  17,N  18,C  12,C  13)     -6.8656         0.031935   
    203. D(C  19,N  18,C  17,H  33)    -34.2243         0.017941   
    204. D(C  17,N  18,C  12,C  11)    174.3846         0.031935   
    205. D(H  35,C  19,N  18,C  17)     34.4800         0.017933   
    206. D(H  35,C  19,N  18,C  12)   -157.1588         0.017933   
    207. D(H  34,C  19,N  18,C  17)    -83.2303         0.017933   
    208. D(H  34,C  19,N  18,C  12)     85.1310         0.017933   
    209. D(C  20,C  19,N  18,C  17)    155.2143         0.017933   
    210. D(C  20,C  19,N  18,C  12)    -36.4244         0.017933   
    211. D(H  37,C  20,C  19,H  35)    -59.3304         0.011789   
    212. D(H  37,C  20,C  19,H  34)     59.2181         0.011789   
    213. D(H  37,C  20,C  19,N  18)   -178.8503         0.011789   
    214. D(H  36,C  20,C  19,H  35)     59.5875         0.011789   
    215. D(H  36,C  20,C  19,H  34)    178.1360         0.011789   
    216. D(H  36,C  20,C  19,N  18)    -59.9324         0.011789   
    217. D(C  21,C  20,C  19,H  35)    179.1632         0.011789   
    218. D(C  21,C  20,C  19,H  34)    -62.2883         0.011789   
    219. D(C  21,C  20,C  19,N  18)     59.6433         0.011789   
    220. D(H  39,C  21,C  20,H  37)     64.0850         0.011857   
    221. D(H  39,C  21,C  20,H  36)    -55.8337         0.011857   
    222. D(H  38,C  21,C  20,H  37)    -54.2286         0.011857   
    223. D(H  38,C  21,C  20,H  36)   -174.1474         0.011857   
    224. D(H  38,C  21,C  20,C  19)     66.5492         0.011857   
    225. D(C  11,C  21,C  20,H  37)   -174.5426         0.011857   
    226. D(C  11,C  21,C  20,H  36)     65.5387         0.011857   
    227. D(C  11,C  21,C  20,C  19)    -53.7648         0.011857   
    228. D(H  39,C  21,C  11,C  12)    147.9557         0.012455   
    229. D(H  39,C  21,C  11,C  10)    -32.2661         0.012455   
    230. D(H  38,C  21,C  11,C  12)    -94.4741         0.012455   
    231. D(H  39,C  21,C  20,C  19)   -175.1372         0.011857   
    232. D(H  38,C  21,C  11,C  10)     85.3042         0.012455   
    233. D(C  20,C  21,C  11,C  12)     25.9512         0.012455   
    234. D(C  20,C  21,C  11,C  10)   -154.2705         0.012455   
    235. D(H  40,C  22,C   6,N   7)     10.0642         0.023142   
    236. D(H  40,C  22,C   6,C   5)   -179.6666         0.023142   
    237. D(C  23,C  22,C   6,N   7)   -171.5398         0.023142   
    238. D(C  23,C  22,C   6,C   5)     -1.2706         0.023142   
    239. D(H  41,C  23,C  22,H  40)     -0.7777         0.031872   
    240. D(H  41,C  23,C  22,C   6)   -179.1378         0.031872   
    241. D(C   3,C  23,C  22,H  40)    179.5081         0.031872   
    242. D(C   3,C  23,C  22,C   6)      1.1480         0.031872   
    243. D(H  41,C  23,C   3,C   4)    179.9306         0.025242   
    244. D(H  41,C  23,C   3,N   1)      0.2299         0.025242   
    245. D(C  22,C  23,C   3,C   4)     -0.3474         0.025242   
    246. D(C  22,C  23,C   3,N   1)    179.9519         0.025242   
    -----------------------------------------------------------------

Number of atoms                         .... 42
Number of degrees of freedom            .... 246

         *************************************************************
         *                GEOMETRY OPTIMIZATION CYCLE   1            *
         *************************************************************
---------------------------------
CARTESIAN COORDINATES (ANGSTROEM)
---------------------------------
  O      8.195900   -0.942000   -1.561700
  N      7.787800    0.074300   -1.021300
  O      8.497000    1.030400   -0.749400
  C      6.409700    0.148500   -0.691600
  C      5.572700   -0.936700   -0.961200
  C      4.244700   -0.871800   -0.631900
  C      3.713400    0.287300   -0.024500
  N      2.386500    0.444200    0.136100
  N      1.618100   -0.415900    0.647100
  C      0.272800   -0.251200    0.521100
  C     -0.539200   -1.171300    1.200000
  C     -1.908000   -1.114800    1.120800
  C     -2.533200   -0.112200    0.339900
  C     -1.716300    0.814500   -0.356200
  C     -0.351200    0.735500   -0.262100
  C     -2.345100    1.893600   -1.195600
  C     -3.721500    1.452500   -1.669300
  C     -4.536900    1.032700   -0.454800
  N     -3.887100   -0.054500    0.239200
  C     -4.729600   -0.920300    1.030800
  C     -4.088600   -2.291900    1.185800
  C     -2.741400   -2.118500    1.870400
  C      4.569500    1.379600    0.225100
  C      5.899000    1.305100   -0.093100
  H      5.996600   -1.821000   -1.412700
  H      3.576900   -1.695900   -0.832900
  H     -0.060400   -1.933600    1.795300
  H      0.272600    1.440300   -0.792400
  H     -1.699600    2.122000   -2.044800
  H     -2.438200    2.807300   -0.599800
  H     -3.623200    0.603600   -2.348700
  H     -4.230700    2.259500   -2.196300
  H     -4.669200    1.892200    0.219000
  H     -5.530100    0.694900   -0.764700
  H     -4.907200   -0.479200    2.022700
  H     -5.696400   -1.009800    0.526800
  H     -3.946000   -2.736900    0.199300
  H     -4.742100   -2.942400    1.767200
  H     -2.893700   -1.770300    2.896900
  H     -2.210300   -3.069800    1.923600
  H      4.160800    2.261000    0.694200
  H      6.571000    2.126500    0.103700

----------------------------
CARTESIAN COORDINATES (A.U.)
----------------------------
  NO LB      ZA    FRAG     MASS         X           Y           Z
   0 O     8.0000    0    15.999   15.488006   -1.780122   -2.951185
   1 N     7.0000    0    14.007   14.716809    0.140407   -1.929977
   2 O     8.0000    0    15.999   16.057003    1.947174   -1.416161
   3 C     6.0000    0    12.011   12.112578    0.280624   -1.306935
   4 C     6.0000    0    12.011   10.530877   -1.770106   -1.816405
   5 C     6.0000    0    12.011    8.021321   -1.647463   -1.194118
   6 C     6.0000    0    12.011    7.017309    0.542918   -0.046298
   7 N     7.0000    0    14.007    4.509831    0.839416    0.257192
   8 N     7.0000    0    14.007    3.057766   -0.785937    1.222842
   9 C     6.0000    0    12.011    0.515517   -0.474699    0.984736
  10 C     6.0000    0    12.011   -1.018940   -2.213436    2.267671
  11 C     6.0000    0    12.011   -3.605597   -2.106667    2.118005
  12 C     6.0000    0    12.011   -4.787054   -0.212027    0.642318
  13 C     6.0000    0    12.011   -3.243337    1.539182   -0.673120
  14 C     6.0000    0    12.011   -0.663672    1.389894   -0.495297
  15 C     6.0000    0    12.011   -4.431597    3.578385   -2.259357
  16 C     6.0000    0    12.011   -7.032616    2.744827   -3.154520
  17 C     6.0000    0    12.011   -8.573498    1.951520   -0.859447
  18 N     7.0000    0    14.007   -7.345554   -0.102990    0.452022
  19 C     6.0000    0    12.011   -8.937649   -1.739115    1.947930
  20 C     6.0000    0    12.011   -7.726334   -4.331063    2.240837
  21 C     6.0000    0    12.011   -5.180495   -4.003385    3.534544
  22 C     6.0000    0    12.011    8.635104    2.607066    0.425377
  23 C     6.0000    0    12.011   11.147494    2.466282   -0.175934
  24 H     1.0000    0     1.008   11.331932   -3.441191   -2.669616
  25 H     1.0000    0     1.008    6.759361   -3.204787   -1.573953
  26 H     1.0000    0     1.008   -0.114139   -3.653974    3.392625
  27 H     1.0000    0     1.008    0.515139    2.721773   -1.497419
  28 H     1.0000    0     1.008   -3.211779    4.009999   -3.864112
  29 H     1.0000    0     1.008   -4.607530    5.305028   -1.133458
  30 H     1.0000    0     1.008   -6.846856    1.140639   -4.438400
  31 H     1.0000    0     1.008   -7.994864    4.269836   -4.150406
  32 H     1.0000    0     1.008   -8.823509    3.575740    0.413850
  33 H     1.0000    0     1.008  -10.450374    1.313171   -1.445074
  34 H     1.0000    0     1.008   -9.273264   -0.905557    3.822349
  35 H     1.0000    0     1.008  -10.764636   -1.908245    0.995508
  36 H     1.0000    0     1.008   -7.456859   -5.171991    0.376622
  37 H     1.0000    0     1.008   -8.961270   -5.560330    3.339524
  38 H     1.0000    0     1.008   -5.468301   -3.345382    5.474348
  39 H     1.0000    0     1.008   -4.176862   -5.801081    3.635077
  40 H     1.0000    0     1.008    7.862772    4.272671    1.311848
  41 H     1.0000    0     1.008   12.417390    4.018503    0.195965

--------------------------------
INTERNAL COORDINATES (ANGSTROEM)
--------------------------------
 O      0   0   0     0.000000000000     0.00000000     0.00000000
 N      1   0   0     1.221246682698     0.00000000     0.00000000
 O      2   1   0     1.221073896208   123.78282947     0.00000000
 C      2   1   3     1.418931760163   118.09181471   179.94050536
 C      4   2   1     1.396750586182   119.77039213     1.41715122
 C      5   4   2     1.369757095254   119.85220024   179.37420945
 C      6   5   4     1.412348136969   120.46351476     0.18968798
 N      7   6   5     1.345761338425   121.19252195   170.65841795
 N      8   7   6     1.261479912642   124.71104259    50.09299763
 C      9   8   7     1.361188517436   118.81748087   192.53891296
 C     10   9   8     1.402438312369   116.61803598   185.15621289
 C     11  10   9     1.372253012385   121.50567345   181.30878751
 C     12  11  10     1.416293264123   120.08553441     0.04465095
 C     13  12  11     1.417975214875   118.62034808     0.40716347
 C     14  13  12     1.370618043074   120.15966938   359.68018584
 C     14  13  12     1.504805173436   120.11644469   180.00949034
 C     16  14  13     1.520998967784   110.11445748   334.07798492
 C     17  16  14     1.521880235104   108.43976347    53.66107145
 N     13  12  11     1.358865331812   120.71311033   179.18197507
 C     19  13  12     1.444315218365   121.00547857     6.50937976
 C     20  19  13     1.521904254544   110.51092622   323.57555328
 C     12  11  10     1.504616034076   119.75432928   180.26625807
 C      7   6   5     1.410080373596   118.91240257     0.59449386
 C     23   7   6     1.369076966427   120.41663407   358.72943555
 H      5   4   2     1.079597123931   118.80488442     0.44014173
 H      6   5   4     1.079582627685   121.25094145   179.79971233
 H     11  10   9     1.079227881404   118.26558204     1.42316735
 H     15  14  13     1.080318272547   120.25129680   179.95418208
 H     16  14  13     1.090860875639   109.70153853   211.98479683
 H     16  14  13     1.094757023270   109.29676937    94.45941658
 H     17  16  14     1.091731862684   109.74497586   294.34073001
 H     17  16  14     1.090074602952   111.01333287   174.43965952
 H     18  17  16     1.100113621405   109.73674108    62.28201773
 H     18  17  16     1.093888975171   110.21645844   180.84334724
 H     20  19  13     1.099989354494   110.36630992    85.13096278
 H     20  19  13     1.093950862699   108.18318360   202.84123997
 H     21  20  19     1.091577761774   109.29215061   300.06758565
 H     21  20  19     1.090063511911   109.85479371   181.14966778
 H     22  12  11     1.094596172111   109.39450879    85.30415289
 H     22  12  11     1.090811230232   109.65630710   327.73391765
 H     23   7   6     1.078868138375   118.67393696   180.33344882
 H     24  23   7     1.079357308772   121.38636896   180.86223510

---------------------------
INTERNAL COORDINATES (A.U.)
---------------------------
 O      0   0   0     0.000000000000     0.00000000     0.00000000
 N      1   0   0     2.307821772258     0.00000000     0.00000000
 O      2   1   0     2.307495253113   123.78282947     0.00000000
 C      2   1   3     2.681392429431   118.09181471   179.94050536
 C      4   2   1     2.639476085278   119.77039213     1.41715122
 C      5   4   2     2.588465780026   119.85220024   179.37420945
 C      6   5   4     2.668951184625   120.46351476     0.18968798
 N      7   6   5     2.543120371243   121.19252195   170.65841795
 N      8   7   6     2.383851558337   124.71104259    50.09299763
 C      9   8   7     2.572273514593   118.81748087   192.53891296
 C     10   9   8     2.650224330096   116.61803598   185.15621289
 C     11  10   9     2.593182379856   121.50567345   181.30878751
 C     12  11  10     2.676406394510   120.08553441     0.04465095
 C     13  12  11     2.679584820802   118.62034808     0.40716347
 C     14  13  12     2.590092735621   120.15966938   359.68018584
 C     14  13  12     2.843669662702   120.11644469   180.00949034
 C     16  14  13     2.874271499089   110.11445748   334.07798492
 C     17  16  14     2.875936852974   108.43976347    53.66107145
 N     13  12  11     2.567883330004   120.71311033   179.18197507
 C     19  13  12     2.729360213764   121.00547857     6.50937976
 C     20  19  13     2.875982243138   110.51092622   323.57555328
 C     12  11  10     2.843312241111   119.75432928   180.26625807
 C      7   6   5     2.664665732913   118.91240257     0.59449386
 C     23   7   6     2.587180522806   120.41663407   358.72943555
 H      5   4   2     2.040142899199   118.80488442     0.44014173
 H      6   5   4     2.040115505264   121.25094145   179.79971233
 H     11  10   9     2.039445131946   118.26558204     1.42316735
 H     15  14  13     2.041505672586   120.25129680   179.95418208
 H     16  14  13     2.061428305167   109.70153853   211.98479683
 H     16  14  13     2.068790957168   109.29676937    94.45941658
 H     17  16  14     2.063074232149   109.74497586   294.34073001
 H     17  16  14     2.059942465121   111.01333287   174.43965952
 H     18  17  16     2.078913460651   109.73674108    62.28201773
 H     18  17  16     2.067150583988   110.21645844   180.84334724
 H     20  19  13     2.078678630222   110.36630992    85.13096278
 H     20  19  13     2.067267534468   108.18318360   202.84123997
 H     21  20  19     2.062783023632   109.29215061   300.06758565
 H     21  20  19     2.059921506092   109.85479371   181.14966778
 H     22  12  11     2.068486992528   109.39450879    85.30415289
 H     22  12  11     2.061334488944   109.65630710   327.73391765
 H     23   7   6     2.038765316142   118.67393696   180.33344882
 H     24  23   7     2.039689714226   121.38636896   180.86223510

---------------------
BASIS SET INFORMATION
---------------------
There are 4 groups of distinct atoms

 Group   1 Type O   : 19s6p3d2f contracted to 5s4p3d2f pattern {88111/3111/111/11}
 Group   2 Type N   : 19s6p3d2f contracted to 5s4p3d2f pattern {88111/3111/111/11}
 Group   3 Type C   : 19s6p3d2f contracted to 5s4p3d2f pattern {88111/3111/111/11}
 Group   4 Type H   : 5s2p1d contracted to 3s2p1d pattern {311/11/1}

Atom   0O    basis set group =>   1
Atom   1N    basis set group =>   2
Atom   2O    basis set group =>   1
Atom   3C    basis set group =>   3
Atom   4C    basis set group =>   3
Atom   5C    basis set group =>   3
Atom   6C    basis set group =>   3
Atom   7N    basis set group =>   2
Atom   8N    basis set group =>   2
Atom   9C    basis set group =>   3
Atom  10C    basis set group =>   3
Atom  11C    basis set group =>   3
Atom  12C    basis set group =>   3
Atom  13C    basis set group =>   3
Atom  14C    basis set group =>   3
Atom  15C    basis set group =>   3
Atom  16C    basis set group =>   3
Atom  17C    basis set group =>   3
Atom  18N    basis set group =>   2
Atom  19C    basis set group =>   3
Atom  20C    basis set group =>   3
Atom  21C    basis set group =>   3
Atom  22C    basis set group =>   3
Atom  23C    basis set group =>   3
Atom  24H    basis set group =>   4
Atom  25H    basis set group =>   4
Atom  26H    basis set group =>   4
Atom  27H    basis set group =>   4
Atom  28H    basis set group =>   4
Atom  29H    basis set group =>   4
Atom  30H    basis set group =>   4
Atom  31H    basis set group =>   4
Atom  32H    basis set group =>   4
Atom  33H    basis set group =>   4
Atom  34H    basis set group =>   4
Atom  35H    basis set group =>   4
Atom  36H    basis set group =>   4
Atom  37H    basis set group =>   4
Atom  38H    basis set group =>   4
Atom  39H    basis set group =>   4
Atom  40H    basis set group =>   4
Atom  41H    basis set group =>   4
---------------------------------
AUXILIARY/J BASIS SET INFORMATION
---------------------------------
There are 4 groups of distinct atoms

 Group   1 Type O   : 10s7p5d2f1g contracted to 10s7p5d2f1g pattern {1111111111/1111111/11111/11/1}
 Group   2 Type N   : 10s7p5d2f1g contracted to 10s7p5d2f1g pattern {1111111111/1111111/11111/11/1}
 Group   3 Type C   : 10s7p5d2f1g contracted to 10s7p5d2f1g pattern {1111111111/1111111/11111/11/1}
 Group   4 Type H   : 4s3p2d1f contracted to 4s3p2d1f pattern {1111/111/11/1}

Atom   0O    basis set group =>   1
Atom   1N    basis set group =>   2
Atom   2O    basis set group =>   1
Atom   3C    basis set group =>   3
Atom   4C    basis set group =>   3
Atom   5C    basis set group =>   3
Atom   6C    basis set group =>   3
Atom   7N    basis set group =>   2
Atom   8N    basis set group =>   2
Atom   9C    basis set group =>   3
Atom  10C    basis set group =>   3
Atom  11C    basis set group =>   3
Atom  12C    basis set group =>   3
Atom  13C    basis set group =>   3
Atom  14C    basis set group =>   3
Atom  15C    basis set group =>   3
Atom  16C    basis set group =>   3
Atom  17C    basis set group =>   3
Atom  18N    basis set group =>   2
Atom  19C    basis set group =>   3
Atom  20C    basis set group =>   3
Atom  21C    basis set group =>   3
Atom  22C    basis set group =>   3
Atom  23C    basis set group =>   3
Atom  24H    basis set group =>   4
Atom  25H    basis set group =>   4
Atom  26H    basis set group =>   4
Atom  27H    basis set group =>   4
Atom  28H    basis set group =>   4
Atom  29H    basis set group =>   4
Atom  30H    basis set group =>   4
Atom  31H    basis set group =>   4
Atom  32H    basis set group =>   4
Atom  33H    basis set group =>   4
Atom  34H    basis set group =>   4
Atom  35H    basis set group =>   4
Atom  36H    basis set group =>   4
Atom  37H    basis set group =>   4
Atom  38H    basis set group =>   4
Atom  39H    basis set group =>   4
Atom  40H    basis set group =>   4
Atom  41H    basis set group =>   4
---------------------------------
AUXILIARY/C BASIS SET INFORMATION
---------------------------------
There are 4 groups of distinct atoms

 Group   1 Type O   : 9s7p6d4f2g contracted to 9s7p6d4f2g pattern {111111111/1111111/111111/1111/11}
 Group   2 Type N   : 9s7p6d4f2g contracted to 9s7p6d4f2g pattern {111111111/1111111/111111/1111/11}
 Group   3 Type C   : 9s7p6d4f2g contracted to 9s7p6d4f2g pattern {111111111/1111111/111111/1111/11}
 Group   4 Type H   : 4s3p2d1f contracted to 4s3p2d1f pattern {1111/111/11/1}

Atom   0O    basis set group =>   1
Atom   1N    basis set group =>   2
Atom   2O    basis set group =>   1
Atom   3C    basis set group =>   3
Atom   4C    basis set group =>   3
Atom   5C    basis set group =>   3
Atom   6C    basis set group =>   3
Atom   7N    basis set group =>   2
Atom   8N    basis set group =>   2
Atom   9C    basis set group =>   3
Atom  10C    basis set group =>   3
Atom  11C    basis set group =>   3
Atom  12C    basis set group =>   3
Atom  13C    basis set group =>   3
Atom  14C    basis set group =>   3
Atom  15C    basis set group =>   3
Atom  16C    basis set group =>   3
Atom  17C    basis set group =>   3
Atom  18N    basis set group =>   2
Atom  19C    basis set group =>   3
Atom  20C    basis set group =>   3
Atom  21C    basis set group =>   3
Atom  22C    basis set group =>   3
Atom  23C    basis set group =>   3
Atom  24H    basis set group =>   4
Atom  25H    basis set group =>   4
Atom  26H    basis set group =>   4
Atom  27H    basis set group =>   4
Atom  28H    basis set group =>   4
Atom  29H    basis set group =>   4
Atom  30H    basis set group =>   4
Atom  31H    basis set group =>   4
Atom  32H    basis set group =>   4
Atom  33H    basis set group =>   4
Atom  34H    basis set group =>   4
Atom  35H    basis set group =>   4
Atom  36H    basis set group =>   4
Atom  37H    basis set group =>   4
Atom  38H    basis set group =>   4
Atom  39H    basis set group =>   4
Atom  40H    basis set group =>   4
Atom  41H    basis set group =>   4


           ************************************************************
           *        Program running with 4 parallel MPI-processes     *
           *              working on a common directory               *
           ************************************************************
------------------------------------------------------------------------------
                           ORCA GTO INTEGRAL CALCULATION
                           -- RI-GTO INTEGRALS CHOSEN --
------------------------------------------------------------------------------
------------------------------------------------------------------------------
                   ___                                                        
                  /   \      - P O W E R E D   B Y -                         
                 /     \                                                     
                 |  |  |   _    _      __       _____    __    __             
                 |  |  |  | |  | |    /  \     |  _  \  |  |  /  |          
                  \  \/   | |  | |   /    \    | | | |  |  | /  /          
                 / \  \   | |__| |  /  /\  \   | |_| |  |  |/  /          
                |  |  |   |  __  | /  /__\  \  |    /   |      \           
                |  |  |   | |  | | |   __   |  |    \   |  |\   \          
                \     /   | |  | | |  |  |  |  | |\  \  |  | \   \       
                 \___/    |_|  |_| |__|  |__|  |_| \__\ |__|  \__/        
                                                                              
                      - O R C A' S   B I G   F R I E N D -                    
                                      &                                       
                       - I N T E G R A L  F E E D E R -                       
                                                                              
 v1 FN, 2020, v2 2021                                                         
------------------------------------------------------------------------------


Reading SHARK input file optpbed3-b2plyp-test-563.SHARKINP.tmp ... ok
----------------------
SHARK INTEGRAL PACKAGE
----------------------

Number of atoms                             ...     42
Number of basis functions                   ...   1500
Number of shells                            ...    588
Maximum angular momentum                    ...      3
Integral batch strategy                     ... SHARK/LIBINT Hybrid
RI-J (if used) integral strategy            ... SPLIT-RIJ (Revised 2003 algorithm where possible)
Printlevel                                  ...      1
Contraction scheme used                     ... PARTIAL GENERAL contraction
Coulomb Range Separation                    ... NOT USED
Exchange Range Separation                   ... NOT USED
Finite Nucleus Model                        ... NOT USED
Auxiliary Coulomb fitting basis             ... AVAILABLE
   # of basis functions in Aux-J            ...   2436
   # of shells in Aux-J                     ...    780
   Maximum angular momentum in Aux-J        ...      4
Auxiliary J/K fitting basis                 ... NOT available
Auxiliary Correlation fitting basis         ... AVAILABLE
   # of basis functions in Aux-C            ...   3084
   # of shells in Aux-C                     ...    852
   Maximum angular momentum in Aux-C        ...      4
Auxiliary 'external' fitting basis          ... NOT available
Integral threshold                          ...     2.500000e-11
Primitive cut-off                           ...     2.500000e-12
Primitive pair pre-selection threshold      ...     2.500000e-12

Calculating pre-screening integrals         ... done (  0.4 sec) Dimension = 588
Calculating pre-screening integrals (ORCA)  ... done (  0.8 sec) Dimension = 444
Organizing shell pair data                  ... done (  1.8 sec)
Shell pair information
Total number of shell pairs                 ...    173166
Shell pairs after pre-screening             ...     98209
Total number of primitive shell pairs       ...    226254
Primitive shell pairs kept                  ...    115164
          la=0 lb=0:  22388 shell pairs
          la=1 lb=0:  25581 shell pairs
          la=1 lb=1:   6413 shell pairs
          la=2 lb=0:  16293 shell pairs
          la=2 lb=1:   8260 shell pairs
          la=2 lb=2:   2739 shell pairs
          la=3 lb=0:   8562 shell pairs
          la=3 lb=1:   4375 shell pairs
          la=3 lb=2:   2829 shell pairs
          la=3 lb=3:    769 shell pairs

Calculating one electron integrals          ... done (  0.4 sec)
Calculating RI/J V-Matrix + Cholesky decomp.... done (  0.4 sec)
Calculating RI/C V-Matrix + Cholesky decomp.... done (  0.7 sec)
Calculating Nuclear repulsion               ... done (  0.0 sec) ENN=   1872.541900874058 Eh

SHARK setup successfully completed in   6.1 seconds

Maximum memory used throughout the entire GTOINT-calculation: 162.4 MB


           ************************************************************
           *        Program running with 4 parallel MPI-processes     *
           *              working on a common directory               *
           ************************************************************
-------------------------------------------------------------------------------
                                 ORCA SCF
-------------------------------------------------------------------------------

------------
SCF SETTINGS
------------
Hamiltonian:
 Density Functional     Method          .... DFT(GTOs)
 Exchange Functional    Exchange        .... PBE
   PBE kappa parameter   XKappa         ....  0.804000
   PBE mue parameter    XMuePBE         ....  0.219520
 Correlation Functional Correlation     .... PBE
   PBE beta parameter  CBetaPBE         ....  0.066725
 LDA part of GGA corr.  LDAOpt          .... PW91-LDA
 Gradients option       PostSCFGGA      .... off
 Hybrid DFT is turned on
   Fraction HF Exchange ScalHFX         ....  0.250000
   Scaling of DF-GGA-X  ScalDFX         ....  0.750000
   Scaling of DF-GGA-C  ScalDFC         ....  1.000000
   Scaling of DF-LDA-C  ScalLDAC        ....  1.000000
   Perturbative correction              ....  0.000000
   Density functional embedding theory  .... OFF
   NL short-range parameter             ....  6.900000
 RI-approximation to the Coulomb term is turned on
   Number of AuxJ basis functions       .... 2436
   RIJ-COSX (HFX calculated with COS-X)).... on


General Settings:
 Integral files         IntName         .... optpbed3-b2plyp-test-563
 Hartree-Fock type      HFTyp           .... RHF
 Total Charge           Charge          ....    0
 Multiplicity           Mult            ....    1
 Number of Electrons    NEL             ....  170
 Basis Dimension        Dim             .... 1356
 Nuclear Repulsion      ENuc            ....   1872.5419008741 Eh

Convergence Acceleration:
 DIIS                   CNVDIIS         .... on
   Start iteration      DIISMaxIt       ....    12
   Startup error        DIISStart       ....  0.200000
   # of expansion vecs  DIISMaxEq       ....     5
   Bias factor          DIISBfac        ....   1.050
   Max. coefficient     DIISMaxC        ....  10.000
 Trust-Rad. Augm. Hess. CNVTRAH         .... auto
   Auto Start mean grad. ratio tolernc. ....  1.125000
   Auto Start start iteration           ....    20
   Auto Start num. interpolation iter.  ....    10
   Max. Number of Micro iterations      ....    16
   Max. Number of Macro iterations      .... Maxiter - #DIIS iter
   Number of Davidson start vectors     ....     2
   Converg. threshold I  (grad. norm)   ....   1.000e-05
   Converg. threshold II (energy diff.) ....   1.000e-08
   Grad. Scal. Fac. for Micro threshold ....   0.100
   Minimum threshold for Micro iter.    ....   0.010
   NR start threshold (gradient norm)   ....   0.001
   Initial trust radius                 ....   0.400
   Minimum AH scaling param. (alpha)    ....   1.000
   Maximum AH scaling param. (alpha)    .... 1000.000
   Orbital update algorithm             .... Taylor
   White noise on init. David. guess    .... on
   Maximum white noise                  ....   0.010
   Quad. conv. algorithm                .... NR
 SOSCF                  CNVSOSCF        .... on
   Start iteration      SOSCFMaxIt      ....   150
   Startup grad/error   SOSCFStart      ....  0.003300
 Level Shifting         CNVShift        .... on
   Level shift para.    LevelShift      ....    0.2500
   Turn off err/grad.   ShiftErr        ....    0.0010
 Zerner damping         CNVZerner       .... off
 Static damping         CNVDamp         .... on
   Fraction old density DampFac         ....    0.7000
   Max. Damping (<1)    DampMax         ....    0.9800
   Min. Damping (>=0)   DampMin         ....    0.0000
   Turn off err/grad.   DampErr         ....    0.1000
 Fernandez-Rico         CNVRico         .... off

SCF Procedure:
 Maximum # iterations   MaxIter         ....   125
 SCF integral mode      SCFMode         .... Direct
   Integral package                     .... SHARK and LIBINT hybrid scheme
 Reset frequency        DirectResetFreq ....    20
 Integral Threshold     Thresh          ....  2.500e-11 Eh
 Primitive CutOff       TCut            ....  2.500e-12 Eh

Convergence Tolerance:
 Convergence Check Mode ConvCheckMode   .... Total+1el-Energy
 Convergence forced     ConvForced      .... 0
 Energy Change          TolE            ....  1.000e-08 Eh
 1-El. energy change                    ....  1.000e-05 Eh
 Orbital Gradient       TolG            ....  1.000e-05
 Orbital Rotation angle TolX            ....  1.000e-05
 DIIS Error             TolErr          ....  5.000e-07


Diagonalization of the overlap matrix:
Smallest eigenvalue                        ... 2.220e-07
Time for diagonalization                   ...    0.445 sec
Threshold for overlap eigenvalues          ... 1.000e-08
Number of eigenvalues below threshold      ... 0
Time for construction of square roots      ...    0.300 sec
Total time needed                          ...    0.756 sec

Time for model grid setup =    0.962 sec

------------------------------
INITIAL GUESS: MODEL POTENTIAL
------------------------------
Loading Hartree-Fock densities                     ... done
Calculating cut-offs                               ... done
Initializing the effective Hamiltonian             ... done
Setting up the integral package (SHARK)            ... done
Starting the Coulomb interaction                   ... done (   4.0 sec)
Reading the grid                                   ... done
Mapping shells                                     ... done
Starting the XC term evaluation                    ... done (   2.7 sec)
  promolecular density results
     # of electrons  =    169.996622933
     EX              =   -140.007985014
     EC              =     -5.765107772
     EX+EC           =   -145.773092785
Transforming the Hamiltonian                       ... done (   0.2 sec)
Diagonalizing the Hamiltonian                      ... done (   0.4 sec)
Back transforming the eigenvectors                 ... done (   0.1 sec)
Now organizing SCF variables                       ... done
                      ------------------
                      INITIAL GUESS DONE (   8.4 sec)
                      ------------------
-------------------
DFT GRID GENERATION
-------------------

General Integration Accuracy     IntAcc      ... 4.388
Radial Grid Type                 RadialGrid  ... OptM3 with GC (2021)
Angular Grid (max. ang.)         AngularGrid ... 4 (Lebedev-302)
Angular grid pruning method      GridPruning ... 4 (adaptive)
Weight generation scheme         WeightScheme... Becke
Basis function cutoff            BFCut       ... 1.0000e-11
Integration weight cutoff        WCut        ... 1.0000e-14
Angular grids for H and He will be reduced by one unit
Partially contracted basis set               ... off
Rotationally invariant grid construction     ... off

Total number of grid points                  ...   206431
Total number of batches                      ...     3246
Average number of points per batch           ...       63
Average number of grid points per atom       ...     4915
Time for grid setup =    3.207 sec

--------------------
COSX GRID GENERATION
--------------------

GRIDX 1
-------
General Integration Accuracy     IntAcc      ... 3.816
Radial Grid Type                 RadialGrid  ... OptM3 with GC (2021)
Angular Grid (max. ang.)         AngularGrid ... 1 (Lebedev-50)
Angular grid pruning method      GridPruning ... 4 (adaptive)
Weight generation scheme         WeightScheme... Becke
Basis function cutoff            BFCut       ... 1.0000e-11
Integration weight cutoff        WCut        ... 1.0000e-14
Angular grids for H and He will be reduced by one unit
Partially contracted basis set               ... on
Rotationally invariant grid construction     ... off

Total number of grid points                  ...    26247
Total number of batches                      ...      434
Average number of points per batch           ...       60
Average number of grid points per atom       ...      625
UseSFitting                                  ... on

GRIDX 2
-------
General Integration Accuracy     IntAcc      ... 4.020
Radial Grid Type                 RadialGrid  ... OptM3 with GC (2021)
Angular Grid (max. ang.)         AngularGrid ... 2 (Lebedev-110)
Angular grid pruning method      GridPruning ... 4 (adaptive)
Weight generation scheme         WeightScheme... Becke
Basis function cutoff            BFCut       ... 1.0000e-11
Integration weight cutoff        WCut        ... 1.0000e-14
Angular grids for H and He will be reduced by one unit
Partially contracted basis set               ... on
Rotationally invariant grid construction     ... off

Total number of grid points                  ...    61801
Total number of batches                      ...      985
Average number of points per batch           ...       62
Average number of grid points per atom       ...     1471
UseSFitting                                  ... on

GRIDX 3
-------
General Integration Accuracy     IntAcc      ... 4.338
Radial Grid Type                 RadialGrid  ... OptM3 with GC (2021)
Angular Grid (max. ang.)         AngularGrid ... 3 (Lebedev-194)
Angular grid pruning method      GridPruning ... 4 (adaptive)
Weight generation scheme         WeightScheme... Becke
Basis function cutoff            BFCut       ... 1.0000e-11
Integration weight cutoff        WCut        ... 1.0000e-14
Angular grids for H and He will be reduced by one unit
Partially contracted basis set               ... on
Rotationally invariant grid construction     ... off

Total number of grid points                  ...   133299
Total number of batches                      ...     2107
Average number of points per batch           ...       63
Average number of grid points per atom       ...     3174
UseSFitting                                  ... on

Time for X-Grid setup             =    7.945 sec


--------------------
CPCM SOLVATION MODEL
--------------------
CPCM parameters:
  Epsilon                                         ...       5.9867
  Refrac                                          ...       1.3723
  Rsolv                                           ...       1.3000
  Surface type                                    ... GAUSSIAN VDW
  Epsilon function type                           ...         CPCM
Solvent:                                     ... ETHYL ETHANOATE
SMD-CDS solvent descriptors:
  Soln                                       ...    1.3723
  Soln25                                     ...    1.3704
  Sola                                       ...    0.0000
  Solb                                       ...    0.4500
  Solg                                       ...   33.6700
  Solc                                       ...    0.0000
  Solh                                       ...    0.0000
Radii:
 Radius for O  used is    4.3350 Bohr (=   2.2940 Ang.)
 Radius for N  used is    3.5716 Bohr (=   1.8900 Ang.)
 Radius for C  used is    3.4960 Bohr (=   1.8500 Ang.)
 Radius for H  used is    2.2677 Bohr (=   1.2000 Ang.)
Calculating surface                               ...        done! (  0.0s)
GEPOL surface points                              ...         2312
GEPOL Volume                                      ...    2406.4463
GEPOL Surface-area                                ...    1287.1089
Calculating surface distance matrix               ...        done! (  0.1s)
Performing Cholesky decomposition & store         ...        done! (  0.3s)
Overall time for CPCM initialization              ...                 0.3s
 re-compute Schwartz prescreening matrix in partically contracted basis (1) ...done (   0.287 sec)
--------------
SCF ITERATIONS
--------------
ITER       Energy         Delta-E        Max-DP      RMS-DP      [F,P]     Damp
               ***  Starting incremental Fock matrix formation  ***
  0  -1064.7662556107   0.000000000000 0.24093525  0.00149477  0.2021253 0.7000
  1  -1064.9824095501  -0.216153939388 0.21205500  0.00126824  0.0878237 0.7000
                               ***Turning on DIIS***
  2  -1065.0761170411  -0.093707491003 0.35622793  0.00252985  0.0348271 0.0000
  3  -1065.2249199182  -0.148802877127 0.12585916  0.00067826  0.0387408 0.0000
  4  -1065.2526030872  -0.027683169059 0.04245198  0.00023998  0.0178054 0.0000
  5  -1065.2541809214  -0.001577834198 0.02091202  0.00012518  0.0065881 0.0000
                      *** Initiating the SOSCF procedure ***
                           *** Shutting down DIIS ***
                      *** Re-Reading the Fockian *** 
                      *** Removing any level shift *** 
ITER      Energy       Delta-E        Grad      Rot      Max-DP    RMS-DP
  6  -1065.25438248  -0.0002015605  0.000513  0.000513  0.010065  0.000077
               *** Restarting incremental Fock matrix formation ***
  7  -1065.25438570  -0.0000032196  0.000176  0.001256  0.091585  0.000710
  8  -1065.25437985   0.0000058545  0.000372  0.001380  0.009146  0.000061
  9  -1065.25439138  -0.0000115304  0.000097  0.000538  0.013091  0.000113
 10  -1065.25439078   0.0000005926  0.000130  0.000313  0.008680  0.000055
 11  -1065.25439175  -0.0000009687  0.000011  0.000051  0.028720  0.000150
 12  -1065.25439166   0.0000000900  0.000019  0.000027  0.003225  0.000029
                  ***Gradient check signals convergence***
              ***Rediagonalizing the Fockian in SOSCF/NRSCF***

               *****************************************************
               *                     SUCCESS                       *
               *           SCF CONVERGED AFTER  13 CYCLES          *
               *****************************************************

[...]
   Final sigma-completion         ...     0.01 sec
   Done building sigma-vectors             Size of expansion space: 50
   Lowest Energy          :     0.105793374788
   Maximum Energy change  :     0.009559110760 (vector 9)
   Maximum residual norm  :     0.001420027093

                       ****Iteration    9****
              <<< Entering MO-section for Build Sigma(Double) >>>
   Forming the XC and CPCM contribution:
   Time for densities:            0.353
   Time for XC-Integration:      22.541
   Time for LR-CPCM terms:       16.414
   Time for Sigma-Completion:     0.261
   Time for building 10 sigma-vectors
   Data Preparation Phase         ...     0.01 sec
   Transformed RI Coulomb         ...     1.37 sec
   Transformed RI-exchange        ...   913.71 sec
   (ab|v) reading and digestion   ...   875.05 sec
   Final sigma-completion         ...     0.01 sec
   Done building sigma-vectors             Size of expansion space: 60
   Lowest Energy          :     0.105793374735
   Maximum Energy change  :     0.001705328023 (vector 8)
   Maximum residual norm  :     0.000254318681

                       ****Iteration   10****
              <<< Entering MO-section for Build Sigma(Double) >>>
   Forming the XC and CPCM contribution:
   Time for densities:            0.368
   Time for XC-Integration:      24.385
   Time for LR-CPCM terms:       16.496
   Time for Sigma-Completion:     0.285
   Time for building 10 sigma-vectors
   Data Preparation Phase         ...     0.01 sec
   Transformed RI Coulomb         ...     1.35 sec
   Transformed RI-exchange        ...   918.31 sec
   (ab|v) reading and digestion   ...   881.41 sec
   Final sigma-completion         ...     0.01 sec
   Done building sigma-vectors             Size of expansion space: 70
   Lowest Energy          :     0.105793374732
   Maximum Energy change  :     0.000363005390 (vector 8)
   Maximum residual norm  :     0.000022110949
   Rebuilding the expansion space

                       ****Iteration   11****
              <<< Entering MO-section for Build Sigma(Double) >>>
   Forming the XC and CPCM contribution:
   Time for densities:            0.692
   Time for XC-Integration:      45.413
   Time for LR-CPCM terms:       26.198
   Time for Sigma-Completion:     0.578
   Time for building 20 sigma-vectors
   Data Preparation Phase         ...     0.02 sec
   Transformed RI Coulomb         ...     2.33 sec
   Transformed RI-exchange        ...  1848.71 sec
   (ab|v) reading and digestion   ...  1767.12 sec
   Final sigma-completion         ...     0.02 sec
   Done building sigma-vectors             Size of expansion space: 20
   Lowest Energy          :     0.105793374717
   Maximum Energy change  :     0.000028257156 (vector 8)
   Maximum residual norm  :     0.000003792615

                       ****Iteration   12****
              <<< Entering MO-section for Build Sigma(Double) >>>
   Forming the XC and CPCM contribution:
   Time for densities:            0.357
   Time for XC-Integration:      25.711
   Time for LR-CPCM terms:       16.749
   Time for Sigma-Completion:     0.282
   Time for building 10 sigma-vectors
   Data Preparation Phase         ...     0.01 sec
   Transformed RI Coulomb         ...     1.40 sec
   Transformed RI-exchange        ...   917.66 sec
   (ab|v) reading and digestion   ...   877.38 sec
   Final sigma-completion         ...     0.01 sec
   Done building sigma-vectors             Size of expansion space: 30
   Lowest Energy          :     0.105793374717
   Maximum Energy change  :     0.000005629573 (vector 8)
   Maximum residual norm  :     0.000000636397

      *** CONVERGENCE OF RESIDUAL NORM REACHED ***

Storing the converged CI vectors               ... optpbed3-b2plyp-test-563_job2.cis1

                 *** DAVIDSON DONE ***

Total time for solving the CIS problem: 14050.441sec

------------------
DOUBLES CORRECTION (Double precision version)
------------------

The (D) correction will be scaled by  0.2700
Doing v(i,a)*T(i,a) terms (RI)                    ... ok
Doing u(i,j,a,b) terms for state   0              ... ok
Doing u(i,j,a,b) terms for state   1              ... ok
Doing u(i,j,a,b) terms for state   2              ... ok
Doing u(i,j,a,b) terms for state   3              ... ok
Doing u(i,j,a,b) terms for state   4              ... ok
Doing u(i,j,a,b) terms for state   5              ... ok
Doing u(i,j,a,b) terms for state   6              ... ok
Doing u(i,j,a,b) terms for state   7              ... ok
Doing u(i,j,a,b) terms for state   8              ... ok
Doing u(i,j,a,b) terms for state   9              ... ok

Contributions to the (D) correction(s) (in eV)

STATE  Final   Init.   Total   v(ext)   v(int)  v(3)    u
       omega   omega     (D)                             
-----------------------------------------------------------------------------
   0   2.388   2.879  -0.491   0.804   1.036  -0.061  -2.270
   1   2.692   3.079  -0.387   0.810   0.815  -0.040  -1.972
   2   3.566   4.273  -0.707   0.702   1.040  -0.035  -2.413
   3   3.649   4.335  -0.686   0.766   0.970  -0.032  -2.390
   4   3.811   4.378  -0.567   0.991   0.789  -0.040  -2.307
   5   4.146   4.620  -0.474   0.759   0.928  -0.035  -2.127
   6   4.353   4.800  -0.448   0.425   1.018  -0.031  -1.859
   7   4.263   4.826  -0.564   0.529   1.013  -0.039  -2.066
   8   4.460   4.901  -0.442   0.983   0.786  -0.036  -2.176
   9   4.340   4.959  -0.619   0.468   1.033  -0.049  -2.071

(D)-timings
 V(i,a)*T(i,a) terms           ...  1523.240 sec
 U(i,j,a,b) 3-internal         ...    31.234 sec
 U(i,j,a,b) 3-external         ...   684.016 sec
 U(i,j,a,b) pair terms         ...   807.899 sec
 Total measured time           ...  6374.042 sec

 Time for (ab|v) I/O           ...   156.846 sec


------------------------------------
TD-DFT/TDA EXCITED STATES (SINGLETS)
------------------------------------

the weight of the individual excitations are printed if larger than 1.0e-02

STATE  1:  E=   0.087767 au      2.388 eV    19262.7 cm**-1 <S**2> =   0.000000
    81a ->  85a  :     0.013096 (c=  0.11443655)
    81a ->  86a  :     0.023734 (c= -0.15405855)
    82a ->  85a  :     0.114457 (c=  0.33831468)
    84a ->  85a  :     0.751661 (c=  0.86698396)
    84a ->  86a  :     0.043314 (c= -0.20811904)

STATE  2:  E=   0.098924 au      2.692 eV    21711.3 cm**-1 <S**2> =   0.000000
    80a ->  85a  :     0.029844 (c= -0.17275529)
    81a ->  85a  :     0.282126 (c=  0.53115536)
    81a ->  86a  :     0.073949 (c= -0.27193574)
    82a ->  85a  :     0.258434 (c=  0.50836407)
    82a ->  86a  :     0.117899 (c= -0.34336492)
    84a ->  85a  :     0.147900 (c= -0.38457831)

STATE  3:  E=   0.131048 au      3.566 eV    28761.7 cm**-1 <S**2> =   0.000000
    83a ->  85a  :     0.181823 (c= -0.42640659)
    83a ->  86a  :     0.041639 (c=  0.20405621)
    84a ->  85a  :     0.028963 (c= -0.17018387)
    84a ->  86a  :     0.555081 (c= -0.74503782)
    84a ->  89a  :     0.015830 (c=  0.12581778)
    84a ->  92a  :     0.025297 (c=  0.15905171)
    84a ->  93a  :     0.024168 (c=  0.15545991)
    84a ->  94a  :     0.034012 (c= -0.18442349)
    84a ->  99a  :     0.017630 (c= -0.13277827)

STATE  4:  E=   0.134116 au      3.649 eV    29435.0 cm**-1 <S**2> =   0.000000
    82a ->  86a  :     0.010826 (c= -0.10404952)
    83a ->  85a  :     0.473434 (c=  0.68806572)
    83a ->  86a  :     0.086441 (c= -0.29400872)
    84a ->  85a  :     0.017124 (c= -0.13085842)
    84a ->  86a  :     0.287262 (c= -0.53596833)
    84a ->  92a  :     0.017088 (c= -0.13071956)
    84a ->  93a  :     0.010112 (c= -0.10055784)
    84a ->  94a  :     0.017984 (c=  0.13410616)

STATE  5:  E=   0.140051 au      3.811 eV    30737.7 cm**-1 <S**2> =   0.000000
    76a ->  85a  :     0.558839 (c= -0.74755564)
    76a ->  86a  :     0.340264 (c= -0.58332159)
    76a -> 104a  :     0.014429 (c=  0.12012264)

STATE  6:  E=   0.152363 au      4.146 eV    33439.8 cm**-1 <S**2> =   0.000000
    80a ->  85a  :     0.673499 (c= -0.82066979)
    80a ->  86a  :     0.010051 (c= -0.10025580)
    81a ->  85a  :     0.090755 (c= -0.30125528)
    81a ->  90a  :     0.022604 (c= -0.15034617)
    82a ->  90a  :     0.032336 (c=  0.17982150)
    84a ->  87a  :     0.016653 (c=  0.12904781)
    84a ->  90a  :     0.099240 (c=  0.31502436)

STATE  7:  E=   0.159961 au      4.353 eV    35107.4 cm**-1 <S**2> =   0.000000
    81a ->  85a  :     0.211155 (c=  0.45951610)
    82a ->  85a  :     0.202258 (c= -0.44973086)
    84a ->  85a  :     0.011327 (c=  0.10642702)
    84a ->  87a  :     0.409578 (c=  0.63998316)
    84a ->  92a  :     0.014526 (c= -0.12052366)
    84a ->  95a  :     0.019444 (c= -0.13944252)
    84a ->  96a  :     0.018060 (c= -0.13438872)
    84a ->  97a  :     0.013227 (c= -0.11500690)

STATE  8:  E=   0.156653 au      4.263 eV    34381.3 cm**-1 <S**2> =   0.000000
    79a ->  85a  :     0.013350 (c= -0.11554128)
    80a ->  85a  :     0.041650 (c= -0.20408242)
    81a ->  85a  :     0.158751 (c=  0.39843576)
    82a ->  85a  :     0.188284 (c= -0.43391696)
    83a ->  85a  :     0.067991 (c=  0.26075008)
    84a ->  87a  :     0.245874 (c= -0.49585697)
    84a ->  89a  :     0.027167 (c=  0.16482295)
    84a ->  92a  :     0.076003 (c=  0.27568713)
    84a ->  94a  :     0.037729 (c= -0.19423915)
    84a ->  95a  :     0.015656 (c=  0.12512263)
    84a ->  97a  :     0.014633 (c=  0.12096534)
    84a ->  99a  :     0.011826 (c= -0.10874787)

STATE  9:  E=   0.163888 au      4.460 eV    35969.2 cm**-1 <S**2> =   0.000000
    72a ->  85a  :     0.541991 (c= -0.73620026)
    72a ->  86a  :     0.318270 (c= -0.56415380)
    72a -> 104a  :     0.012345 (c=  0.11110944)
    73a ->  85a  :     0.018272 (c= -0.13517489)
    73a ->  86a  :     0.010059 (c= -0.10029506)

STATE 10:  E=   0.159495 au      4.340 eV    35005.2 cm**-1 <S**2> =   0.000000
    81a ->  85a  :     0.025290 (c= -0.15902756)
    82a ->  85a  :     0.055875 (c=  0.23637954)
    83a ->  85a  :     0.126254 (c=  0.35532186)
    84a ->  86a  :     0.022328 (c=  0.14942463)
    84a ->  87a  :     0.095600 (c=  0.30919189)
    84a ->  89a  :     0.146387 (c=  0.38260512)
    84a ->  90a  :     0.023915 (c= -0.15464383)
    84a ->  92a  :     0.075547 (c=  0.27485839)
    84a ->  93a  :     0.159740 (c=  0.39967506)
    84a ->  94a  :     0.128705 (c= -0.35875535)
    84a ->  99a  :     0.032802 (c= -0.18111327)


-----------------------------
TD-DFT/TDA-EXCITATION SPECTRA
-----------------------------

Center of mass = (  2.1862, -0.0713, -0.1194)
Calculating the Dipole integrals                  ... done
Transforming integrals                            ... done
Calculating the Linear Momentum integrals         ... done
Transforming integrals                            ... done
Calculating angular momentum integrals            ... done
Transforming integrals                            ... done

-----------------------------------------------------------------------------
         ABSORPTION SPECTRUM VIA TRANSITION ELECTRIC DIPOLE MOMENTS
-----------------------------------------------------------------------------
State   Energy    Wavelength  fosc         T2        TX        TY        TZ  
        (cm-1)      (nm)                 (au**2)    (au)      (au)      (au) 
-----------------------------------------------------------------------------
   1   19262.7    519.1   1.156552770  19.76619   4.43142   0.05452  -0.35460
   2   21711.3    460.6   0.245184013   3.71776  -1.92079  -0.00584   0.16826
   3   28761.7    347.7   0.008565787   0.09805   0.30731  -0.05106   0.03157
   4   29435.0    339.7   0.001942503   0.02173  -0.02036  -0.12386   0.07727
   5   30737.7    325.3   0.000064703   0.00069   0.01489   0.01872  -0.01100
   6   33439.8    299.0   0.026603343   0.26191   0.07437  -0.49873   0.08741
   7   35107.4    284.8   0.050948825   0.47776  -0.67457   0.13657  -0.06380
   8   34381.3    290.9   0.150157037   1.43780  -1.01486  -0.45501   0.44813
   9   35969.2    278.0   0.001315656   0.01204   0.05041   0.02911  -0.09302
  10   35005.2    285.7   0.097483728   0.91680  -0.39725  -0.76152   0.42319

-----------------------------------------------------------------------------
         ABSORPTION SPECTRUM VIA TRANSITION VELOCITY DIPOLE MOMENTS
-----------------------------------------------------------------------------
State   Energy    Wavelength   fosc        P2         PX        PY        PZ  
        (cm-1)      (nm)                 (au**2)     (au)      (au)      (au) 
-----------------------------------------------------------------------------
   1   19262.7    519.1   0.776575023   0.10224  -0.31857   0.01171   0.02471
   2   21711.3    460.6   0.157049526   0.02330   0.15264   0.00157  -0.00185
   3   28761.7    347.7   0.014946130   0.00294  -0.04839   0.02274  -0.00887
   4   29435.0    339.7   0.000631502   0.00013  -0.00720  -0.00463   0.00734
   5   30737.7    325.3   0.000004902   0.00000  -0.00027  -0.00094  -0.00027
   6   33439.8    299.0   0.001785221   0.00041  -0.01667   0.01135  -0.00106
   7   35107.4    284.8   0.063791692   0.01531   0.12326  -0.00772   0.00738
   8   34381.3    290.9   0.100055066   0.02351   0.15189   0.00281  -0.02083
   9   35969.2    278.0   0.002726915   0.00067  -0.00668   0.00426   0.02465
  10   35005.2    285.7   0.018249605   0.00437   0.05624   0.02774  -0.02083

-------------------------------------------------------------------
                             CD SPECTRUM
-------------------------------------------------------------------
State  Energy     Wavelength     R         MX        MY        MZ   
       (cm-1)       (nm)     (1e40*cgs)   (au)      (au)      (au)  
-------------------------------------------------------------------
   1   19262.7    519.1    -346.67620  -0.16496  -0.03822   0.00639
   2   21711.3    460.6    288.21132  -0.30871  -0.17513   0.10307
   3   28761.7    347.7      3.71808   0.02573  -0.08260  -0.13431
   4   29435.0    339.7      2.86397   0.01405   0.06319   0.18360
   5   30737.7    325.3      1.96134   0.29404  -0.03138  -0.03372
   6   33439.8    299.0      4.43091  -0.00595  -0.00032   0.11073
   7   35107.4    284.8     -9.38192  -0.01036  -0.09833   0.21096
   8   34381.3    290.9    -16.33823   0.00003   0.04713  -0.02940
   9   35969.2    278.0     15.43953   0.02863   0.63985  -0.13630
  10   35005.2    285.7     10.31731  -0.01456  -0.14410  -0.22127

-------------------------------------------------------------------
         CD SPECTRUM VIA TRANSITION VELOCITY DIPOLE MOMENTS        
-------------------------------------------------------------------
State  Energy     Wavelength     R         MX        MY        MZ   
       (cm-1)       (nm)     (1e40*cgs)   (au)      (au)      (au)  
-------------------------------------------------------------------
   1   19262.7    519.1    280.72424  -0.16496  -0.03822   0.00639
   2   21711.3    460.6    -226.78111  -0.30871  -0.17513   0.10307
   3   28761.7    347.7     -6.95195   0.02573  -0.08260  -0.13431
   4   29435.0    339.7      3.35244   0.01405   0.06319   0.18360
   5   30737.7    325.3     -0.13227   0.29404  -0.03138  -0.03372
   6   33439.8    299.0     -0.06645  -0.00595  -0.00032   0.11073
   7   35107.4    284.8      3.06282  -0.01036  -0.09833   0.21096
   8   34381.3    290.9      2.25650   0.00003   0.04713  -0.02940
   9   35969.2    278.0     -2.37641   0.02863   0.63985  -0.13630
  10   35005.2    285.7     -0.61449  -0.01456  -0.14410  -0.22127

Total run time:    20436.822 sec

           *** ORCA-CIS/TD-DFT FINISHED WITHOUT ERROR ***

Maximum memory used throughout the entire CIS-calculation: 2384.0 MB

-----------------------
CIS/TD-DFT TOTAL ENERGY
-----------------------

    E(SCF)  =  -1064.253828672 Eh
    DE(CIS) =      0.087767495 Eh (Root  1)
    ----------------------------- ---------
    E(tot)  =  -1064.166061178 Eh



-------------------------------------------------------------------------------
                          DFT DISPERSION CORRECTION                            
                                                                               
                              DFTD3 V3.1  Rev 1                                
                          USING Becke-Johnson damping                          
-------------------------------------------------------------------------------
The B2PLYP functional is recognized
Active option DFTDOPT                   ...         4   

molecular C6(AA) [au] = 19775.763044 


            DFT-D V3
 parameters
 s6 scaling factor         :     0.6400 
 a1 scaling factor         :     0.3065 
 s8 scaling factor         :     0.9147 
 a2 scaling factor         :     5.0570 
 ad hoc parameters k1-k3   :    16.0000     1.3333    -4.0000 

 Edisp/kcal,au: -26.944676751009  -0.042939071027 
 E6   /kcal   : -15.290299481 
 E8   /kcal   : -11.654377270 
 % E8         :  43.252986028 

-------------------------   ----------------
Dispersion correction           -0.042939071
-------------------------   ----------------


-------------------------   --------------------
FINAL SINGLE POINT ENERGY     -1064.209000248583
-------------------------   --------------------


                            ***************************************
                            *     ORCA property calculations      *
                            ***************************************


  WARNING: The energy has been calculated at the MP2 level but the densities
           used in the property calculations are still SCF densities
           MP2 response densities have not been calculated 
           use %mp2 Density relaxed end
           or  %mp2 Density unrelaxed end

                                    ---------------------
                                    Active property flags
                                    ---------------------
   (+) Dipole Moment


------------------------------------------------------------------------------
                       ORCA ELECTRIC PROPERTIES CALCULATION
------------------------------------------------------------------------------

Dipole Moment Calculation                       ... on
Quadrupole Moment Calculation                   ... off
Polarizability Calculation                      ... off
GBWName                                         ... optpbed3-b2plyp-test-563_job2.gbw
Electron density                                ... optpbed3-b2plyp-test-563_job2.scfp
The origin for moment calculation is the CENTER OF MASS  = ( 2.186220, -0.071338 -0.119389)

-------------
DIPOLE MOMENT
-------------
                                X             Y             Z
Electronic contribution:     38.01954       0.47018      -1.92730
Nuclear contribution   :    -44.00217      -0.33054       2.30854
                        -----------------------------------------
Total Dipole Moment    :     -5.98263       0.13964       0.38124
                        -----------------------------------------
Magnitude (a.u.)       :      5.99639
Magnitude (Debye)      :     15.24161



--------------------
Rotational spectrum 
--------------------
 
Rotational constants in cm-1:     0.026273     0.002568     0.002359 
Rotational constants in MHz :   787.651996    76.989539    70.720111 

 Dipole components along the rotational axes: 
x,y,z [a.u.] :    -5.990082    -0.268235     0.060347 
x,y,z [Debye]:   -15.225578    -0.681799     0.153389 

 

Timings for individual modules:

Sum of individual times         ...    24511.120 sec (= 408.519 min)
GTO integral calculation        ...        6.956 sec (=   0.116 min)   0.0 %
SCF iterations                  ...     1747.614 sec (=  29.127 min)   7.1 %
MP2 module                      ...     2316.981 sec (=  38.616 min)   9.5 %
CIS module                      ...    20439.570 sec (= 340.659 min)  83.4 %



                             ****ORCA TERMINATED NORMALLY****
TOTAL RUN TIME: 0 days 13 hours 7 minutes 58 seconds 141 msec
