
                                 *****************
                                 * O   R   C   A *
                                 *****************

                                            #,                                       
                                            ###                                      
                                            ####                                     
                                            #####                                    
                                            ######                                   
                                           ########,                                 
                                     ,,################,,,,,                         
                               ,,#################################,,                 
                          ,,##########################################,,             
                       ,#########################################, ''#####,          
                    ,#############################################,,   '####,        
                  ,##################################################,,,,####,       
                ,###########''''           ''''###############################       
              ,#####''   ,,,,##########,,,,          '''####'''          '####       
            ,##' ,,,,###########################,,,                        '##       
           ' ,,###''''                  '''############,,,                           
         ,,##''                                '''############,,,,        ,,,,,,###''
      ,#''                                            '''#######################'''  
     '                                                          ''''####''''         
             ,#######,   #######,   ,#######,      ##                                
            ,#'     '#,  ##    ##  ,#'     '#,    #''#        ######   ,####,        
            ##       ##  ##   ,#'  ##            #'  '#       #        #'  '#        
            ##       ##  #######   ##           ,######,      #####,   #    #        
            '#,     ,#'  ##    ##  '#,     ,#' ,#      #,         ##   #,  ,#        
             '#######'   ##     ##  '#######'  #'      '#     #####' # '####'        



                  #######################################################
                  #                        -***-                        #
                  #          Department of theory and spectroscopy      #
                  #    Directorship and core code : Frank Neese         #
                  #        Max Planck Institute fuer Kohlenforschung    #
                  #                Kaiser Wilhelm Platz 1               #
                  #                 D-45470 Muelheim/Ruhr               #
                  #                      Germany                        #
                  #                                                     #
                  #                  All rights reserved                #
                  #                        -***-                        #
                  #######################################################


                         Program Version 5.0.2 -  RELEASE  -


 With contributions from (in alphabetic order):
   Daniel Aravena         : Magnetic Suceptibility
   Michael Atanasov       : Ab Initio Ligand Field Theory (pilot matlab implementation)
   Alexander A. Auer      : GIAO ZORA, VPT2 properties, NMR spectrum
   Ute Becker             : Parallelization
   Giovanni Bistoni       : ED, misc. LED, open-shell LED, HFLD
   Martin Brehm           : Molecular dynamics
   Dmytro Bykov           : SCF Hessian
   Vijay G. Chilkuri      : MRCI spin determinant printing, contributions to CSF-ICE
   Dipayan Datta          : RHF DLPNO-CCSD density
   Achintya Kumar Dutta   : EOM-CC, STEOM-CC
   Dmitry Ganyushin       : Spin-Orbit,Spin-Spin,Magnetic field MRCI
   Miquel Garcia          : C-PCM and meta-GGA Hessian, CC/C-PCM, Gaussian charge scheme
   Yang Guo               : DLPNO-NEVPT2, F12-NEVPT2, CIM, IAO-localization
   Andreas Hansen         : Spin unrestricted coupled pair/coupled cluster methods
   Benjamin Helmich-Paris : MC-RPA, TRAH-SCF, COSX integrals
   Lee Huntington         : MR-EOM, pCC
   Robert Izsak           : Overlap fitted RIJCOSX, COSX-SCS-MP3, EOM
   Marcus Kettner         : VPT2
   Christian Kollmar      : KDIIS, OOCD, Brueckner-CCSD(T), CCSD density, CASPT2, CASPT2-K
   Simone Kossmann        : Meta GGA functionals, TD-DFT gradient, OOMP2, MP2 Hessian
   Martin Krupicka        : Initial AUTO-CI
   Lucas Lang             : DCDCAS
   Marvin Lechner         : AUTO-CI (C++ implementation), FIC-MRCC
   Dagmar Lenk            : GEPOL surface, SMD
   Dimitrios Liakos       : Extrapolation schemes; Compound Job, initial MDCI parallelization
   Dimitrios Manganas     : Further ROCIS development; embedding schemes
   Dimitrios Pantazis     : SARC Basis sets
   Anastasios Papadopoulos: AUTO-CI, single reference methods and gradients
   Taras Petrenko         : DFT Hessian,TD-DFT gradient, ASA, ECA, R-Raman, ABS, FL, XAS/XES, NRVS
   Peter Pinski           : DLPNO-MP2, DLPNO-MP2 Gradient
   Christoph Reimann      : Effective Core Potentials
   Marius Retegan         : Local ZFS, SOC
   Christoph Riplinger    : Optimizer, TS searches, QM/MM, DLPNO-CCSD(T), (RO)-DLPNO pert. Triples
   Tobias Risthaus        : Range-separated hybrids, TD-DFT gradient, RPA, STAB
   Michael Roemelt        : Original ROCIS implementation
   Masaaki Saitow         : Open-shell DLPNO-CCSD energy and density
   Barbara Sandhoefer     : DKH picture change effects
   Avijit Sen             : IP-ROCIS
   Kantharuban Sivalingam : CASSCF convergence, NEVPT2, FIC-MRCI
   Bernardo de Souza      : ESD, SOC TD-DFT
   Georgi Stoychev        : AutoAux, RI-MP2 NMR, DLPNO-MP2 response
   Willem Van den Heuvel  : Paramagnetic NMR
   Boris Wezisla          : Elementary symmetry handling
   Frank Wennmohs         : Technical directorship


 We gratefully acknowledge several colleagues who have allowed us to
 interface, adapt or use parts of their codes:
   Stefan Grimme, W. Hujo, H. Kruse, P. Pracht,  : VdW corrections, initial TS optimization,
                  C. Bannwarth, S. Ehlert          DFT functionals, gCP, sTDA/sTD-DF
   Ed Valeev, F. Pavosevic, A. Kumar             : LibInt (2-el integral package), F12 methods
   Garnet Chan, S. Sharma, J. Yang, R. Olivares  : DMRG
   Ulf Ekstrom                                   : XCFun DFT Library
   Mihaly Kallay                                 : mrcc  (arbitrary order and MRCC methods)
   Jiri Pittner, Ondrej Demel                    : Mk-CCSD
   Frank Weinhold                                : gennbo (NPA and NBO analysis)
   Christopher J. Cramer and Donald G. Truhlar   : smd solvation model
   Lars Goerigk                                  : TD-DFT with DH, B97 family of functionals
   V. Asgeirsson, H. Jonsson                     : NEB implementation
   FAccTs GmbH                                   : IRC, NEB, NEB-TS, DLPNO-Multilevel, CI-OPT
                                                   MM, QMMM, 2- and 3-layer-ONIOM, Crystal-QMMM,
                                                   LR-CPCM, SF, NACMEs, symmetry and pop. for TD-DFT,
                                                   nearIR, NL-DFT gradient (VV10), updates on ESD,
                                                   ML-optimized integration grids
   S Lehtola, MJT Oliveira, MAL Marques          : LibXC Library
   Liviu Ungur et al                             : ANISO software


 Your calculation uses the libint2 library for the computation of 2-el integrals
 For citations please refer to: http://libint.valeyev.net

 Your ORCA version has been built with support for libXC version: 5.1.0
 For citations please refer to: https://tddft.org/programs/libxc/

 This ORCA versions uses:
   CBLAS   interface :  Fast vector & matrix operations
   LAPACKE interface :  Fast linear algebra routines
   SCALAPACK package :  Parallel linear algebra routines
   Shared memory     :  Shared parallel matrices
   BLAS/LAPACK       :  OpenBLAS 0.3.15  USE64BITINT DYNAMIC_ARCH NO_AFFINITY Sandybridge SINGLE_THREADED
        Core in use  :  Sandybridge
   Copyright (c) 2011-2014, The OpenBLAS Project


Your calculation utilizes the atom-pairwise dispersion correction
with the Becke-Johnson damping scheme (D3BJ)
Cite in your paper:
S.Grimme, S.Ehrlich, L.Goerigk, J Comput Chem, (2011), 32, 1456–1465 
S.Grimme, J.Antony, S.Ehrlich and H.Krieg, J.Chem.Phys., 132, (2010), 154104 
   

Your calculation utilizes the SMD solvation module
Please cite in your paper:
A.V. Marenich, C.J. Cramer, D.G. Truhlar J. Phys. Chem. B, 113, (2009), 6378 

================================================================================

----- Orbital basis set information -----
Your calculation utilizes the basis: aug-cc-pVTZ 
    H, B-Ne : Obtained from the ccRepo (grant-hill.group.shef.ac.uk/ccrepo) Feb. 2017
              R. A. Kendall, T. H. Dunning, Jr., R. J. Harrison, J. Chem. Phys. 96, 6796 (1992)
         He : Obtained from the ccRepo (grant-hill.group.shef.ac.uk/ccrepo) Feb. 2017
              D. E. Woon, T. H. Dunning, Jr., J. Chem. Phys. 100, 2975 (1994)
  Li-Be, Na : Obtained from the ccRepo (grant-hill.group.shef.ac.uk/ccrepo) Feb. 2017
              B. P. Prascher, D. E. Woon, K. A. Peterson, T. H. Dunning, Jr., A. K. Wilson, Theor. Chem. Acc. 128, 69 (2011)
         Mg : Obtained from the Peterson Research Group Website (tyr0.chem.wsu.edu/~kipeters) Feb. 2017
              B. P. Prascher, D. E. Woon, K. A. Peterson, T. H. Dunning, Jr., A. K. Wilson, Theor. Chem. Acc. 128, 69 (2011)
      Al-Ar : Obtained from the ccRepo (grant-hill.group.shef.ac.uk/ccrepo) Feb. 2017
              D. E. Woon, T. H. Dunning, Jr., J. Chem. Phys. 98, 1358 (1993)
      Sc-Zn : Obtained from the ccRepo (grant-hill.group.shef.ac.uk/ccrepo) Feb. 2017
              N. B. Balabanov, K. A. Peterson, J. Chem. Phys. 123, 064107 (2005)
              N. B. Balabanov, K. A. Peterson, J. Chem. Phys. 125, 074110 (2006)
      Ga-Kr : Obtained from the ccRepo (grant-hill.group.shef.ac.uk/ccrepo) Feb. 2017
              A. K. Wilson, D. E. Woon, K. A. Peterson, T. H. Dunning, Jr., J. Chem. Phys. 110, 7667 (1999)
     Ag, Au : Obtained from the Peterson Research Group Website (tyr0.chem.wsu.edu/~kipeters) Feb. 2017
              K. A. Peterson, C. Puzzarini, Theor. Chem. Acc. 114, 283 (2005)

The basis set includes element-specific modifications.

Your calculation utilizes the basis: cc-pVTZ 
       H, B-Ne : Obtained from the ccRepo (grant-hill.group.shef.ac.uk/ccrepo) Feb. 2017
                 T. H. Dunning, Jr., J. Chem. Phys. 90, 1007 (1989)
            He : Obtained from the ccRepo (grant-hill.group.shef.ac.uk/ccrepo) Feb. 2017
                 D. E. Woon, T. H. Dunning, Jr., J. Chem. Phys. 100, 2975 (1994)
  Li-Be, Na-Mg : Obtained from the ccRepo (grant-hill.group.shef.ac.uk/ccrepo) Feb. 2017
                 B. P. Prascher, D. E. Woon, K. A. Peterson, T. H. Dunning, Jr., A. K. Wilson, Theor. Chem. Acc. 128, 69 (2011)
         Al-Ar : Obtained from the ccRepo (grant-hill.group.shef.ac.uk/ccrepo) Feb. 2017
                 D. E. Woon, T. H. Dunning, Jr., J. Chem. Phys. 98, 1358 (1993)
            Ca : Obtained from the Peterson Research Group Website (tyr0.chem.wsu.edu/~kipeters) Feb. 2017
                 J. Koput, K. A. Peterson, J. Phys. Chem. 106, 9595 (2002)
         Sc-Zn : Obtained from the ccRepo (grant-hill.group.shef.ac.uk/ccrepo) Feb. 2017
                 N. B. Balabanov, K. A. Peterson, J. Chem. Phys. 123, 064107 (2005)
                 N. B. Balabanov, K. A. Peterson, J. Chem. Phys. 125, 074110 (2006)
         Ga-Kr : Obtained from the ccRepo (grant-hill.group.shef.ac.uk/ccrepo) Feb. 2017
                 A. K. Wilson, D. E. Woon, K. A. Peterson, T. H. Dunning, Jr., J. Chem. Phys. 110, 7667 (1999)
             Y : Obtained from the ccRepo (grant-hill.group.shef.ac.uk/ccrepo) Feb. 2017
                 K. A. Peterson, D. Figgen, M. Dolg, H. Stoll, J. Chem. Phys. 126, 124101 (2007)
        Ag, Au : Obtained from the Peterson Research Group Website (tyr0.chem.wsu.edu/~kipeters) Feb. 2017
                 K. A. Peterson, C. Puzzarini, Theor. Chem. Acc. 114, 283 (2005)

----- AuxJ basis set information -----
Your calculation utilizes the auxiliary basis: aug-cc-pVTZ/JK 
  H, B-F, Al-Cl, Ga-Br : Obtained from the TURBOMOLE 7.0 basis set library

The basis set includes element-specific modifications.

Your calculation utilizes the auxiliary basis: cc-pVTZ/JK 
  H, B-F, Al-Cl, Ga-Br : Obtained from the TURBOMOLE 7.0 basis set library

----- AuxC basis set information -----
Your calculation utilizes the auxiliary basis: aug-cc-pVTZ/C 
  H-He, B-F, Al-Ar, Ga-Kr : Obtained from the EMSL Basis Set Exchange (bse.pnl.gov) Feb. 2017
                            F. Weigend, A. Kohn, C. Hattig, J. Chem. Phys. 116, 3175 (2002)
                   Be, Mg : Obtained from the TURBOMOLE 7.0 basis set library
                            C. Haettig, Phys. Chem. Chem. Phys. 7, 59 (2005)
                       Ne : Obtained from the EMSL Basis Set Exchange (bse.pnl.gov) Feb. 2017
                            C. Haettig, Phys. Chem. Chem. Phys. 7, 59 (2005)
                            F. Weigend, A. Kohn, C. Hattig, J. Chem. Phys. 116, 3175 (2002)
                    Sc-Zn : Obtained from the EMSL Basis Set Exchange (bse.pnl.gov) Feb. 2017
                            J. G. Hill, J. A. Platts, J. Chem. Phys. 128, 044104 (2008)

The basis set includes element-specific modifications.

Your calculation utilizes the auxiliary basis: cc-pVTZ/C 
  Obtained from the EMSL Basis Set Exchange (bse.pnl.gov) Feb. 2017
  H-He, B-F, Al-Ar, Ga-Kr : F. Weigend, A. Kohn, C. Hattig, J. Chem. Phys. 116, 3175 (2002)
             Li-Be, Na-Mg : C. Haettig, Phys. Chem. Chem. Phys. 7, 59 (2005)
                       Ne : C. Haettig, Phys. Chem. Chem. Phys. 7, 59 (2005)
                            F. Weigend, A. Kohn, C. Hattig, J. Chem. Phys. 116, 3175 (2002)
                    Sc-Zn : J. G. Hill, J. A. Platts, J. Chem. Phys. 128, 044104 (2008)

================================================================================
                                        WARNINGS
                       Please study these warnings very carefully!
================================================================================


WARNING: Geometry Optimization
  ===> : Switching off AutoStart
         For restart on a previous wavefunction, please use MOREAD

INFO   : the flag for use of the SHARK integral package has been found!



***************************************
The coordinates will be read from file: 
***************************************


Your calculation utilizes the atom-pairwise dispersion correction
with the Becke-Johnson damping scheme (D3BJ)
Cite in your paper:
S.Grimme, S.Ehrlich, L.Goerigk, J Comput Chem, (2011), 32, 1456–1465 
S.Grimme, J.Antony, S.Ehrlich and H.Krieg, J.Chem.Phys., 132, (2010), 154104 
   

Your calculation utilizes the SMD solvation module
Please cite in your paper:
A.V. Marenich, C.J. Cramer, D.G. Truhlar J. Phys. Chem. B, 113, (2009), 6378 

================================================================================

----- Orbital basis set information -----
Your calculation utilizes the basis: aug-cc-pVTZ 
    H, B-Ne : Obtained from the ccRepo (grant-hill.group.shef.ac.uk/ccrepo) Feb. 2017
              R. A. Kendall, T. H. Dunning, Jr., R. J. Harrison, J. Chem. Phys. 96, 6796 (1992)
         He : Obtained from the ccRepo (grant-hill.group.shef.ac.uk/ccrepo) Feb. 2017
              D. E. Woon, T. H. Dunning, Jr., J. Chem. Phys. 100, 2975 (1994)
  Li-Be, Na : Obtained from the ccRepo (grant-hill.group.shef.ac.uk/ccrepo) Feb. 2017
              B. P. Prascher, D. E. Woon, K. A. Peterson, T. H. Dunning, Jr., A. K. Wilson, Theor. Chem. Acc. 128, 69 (2011)
         Mg : Obtained from the Peterson Research Group Website (tyr0.chem.wsu.edu/~kipeters) Feb. 2017
              B. P. Prascher, D. E. Woon, K. A. Peterson, T. H. Dunning, Jr., A. K. Wilson, Theor. Chem. Acc. 128, 69 (2011)
      Al-Ar : Obtained from the ccRepo (grant-hill.group.shef.ac.uk/ccrepo) Feb. 2017
              D. E. Woon, T. H. Dunning, Jr., J. Chem. Phys. 98, 1358 (1993)
      Sc-Zn : Obtained from the ccRepo (grant-hill.group.shef.ac.uk/ccrepo) Feb. 2017
              N. B. Balabanov, K. A. Peterson, J. Chem. Phys. 123, 064107 (2005)
              N. B. Balabanov, K. A. Peterson, J. Chem. Phys. 125, 074110 (2006)
      Ga-Kr : Obtained from the ccRepo (grant-hill.group.shef.ac.uk/ccrepo) Feb. 2017
              A. K. Wilson, D. E. Woon, K. A. Peterson, T. H. Dunning, Jr., J. Chem. Phys. 110, 7667 (1999)
     Ag, Au : Obtained from the Peterson Research Group Website (tyr0.chem.wsu.edu/~kipeters) Feb. 2017
              K. A. Peterson, C. Puzzarini, Theor. Chem. Acc. 114, 283 (2005)

The basis set includes element-specific modifications.

Your calculation utilizes the basis: cc-pVTZ 
       H, B-Ne : Obtained from the ccRepo (grant-hill.group.shef.ac.uk/ccrepo) Feb. 2017
                 T. H. Dunning, Jr., J. Chem. Phys. 90, 1007 (1989)
            He : Obtained from the ccRepo (grant-hill.group.shef.ac.uk/ccrepo) Feb. 2017
                 D. E. Woon, T. H. Dunning, Jr., J. Chem. Phys. 100, 2975 (1994)
  Li-Be, Na-Mg : Obtained from the ccRepo (grant-hill.group.shef.ac.uk/ccrepo) Feb. 2017
                 B. P. Prascher, D. E. Woon, K. A. Peterson, T. H. Dunning, Jr., A. K. Wilson, Theor. Chem. Acc. 128, 69 (2011)
         Al-Ar : Obtained from the ccRepo (grant-hill.group.shef.ac.uk/ccrepo) Feb. 2017
                 D. E. Woon, T. H. Dunning, Jr., J. Chem. Phys. 98, 1358 (1993)
            Ca : Obtained from the Peterson Research Group Website (tyr0.chem.wsu.edu/~kipeters) Feb. 2017
                 J. Koput, K. A. Peterson, J. Phys. Chem. 106, 9595 (2002)
         Sc-Zn : Obtained from the ccRepo (grant-hill.group.shef.ac.uk/ccrepo) Feb. 2017
                 N. B. Balabanov, K. A. Peterson, J. Chem. Phys. 123, 064107 (2005)
                 N. B. Balabanov, K. A. Peterson, J. Chem. Phys. 125, 074110 (2006)
         Ga-Kr : Obtained from the ccRepo (grant-hill.group.shef.ac.uk/ccrepo) Feb. 2017
                 A. K. Wilson, D. E. Woon, K. A. Peterson, T. H. Dunning, Jr., J. Chem. Phys. 110, 7667 (1999)
             Y : Obtained from the ccRepo (grant-hill.group.shef.ac.uk/ccrepo) Feb. 2017
                 K. A. Peterson, D. Figgen, M. Dolg, H. Stoll, J. Chem. Phys. 126, 124101 (2007)
        Ag, Au : Obtained from the Peterson Research Group Website (tyr0.chem.wsu.edu/~kipeters) Feb. 2017
                 K. A. Peterson, C. Puzzarini, Theor. Chem. Acc. 114, 283 (2005)

----- AuxJ basis set information -----
Your calculation utilizes the auxiliary basis: aug-cc-pVTZ/JK 
  H, B-F, Al-Cl, Ga-Br : Obtained from the TURBOMOLE 7.0 basis set library

The basis set includes element-specific modifications.

Your calculation utilizes the auxiliary basis: cc-pVTZ/JK 
  H, B-F, Al-Cl, Ga-Br : Obtained from the TURBOMOLE 7.0 basis set library

----- AuxC basis set information -----
Your calculation utilizes the auxiliary basis: aug-cc-pVTZ/C 
  H-He, B-F, Al-Ar, Ga-Kr : Obtained from the EMSL Basis Set Exchange (bse.pnl.gov) Feb. 2017
                            F. Weigend, A. Kohn, C. Hattig, J. Chem. Phys. 116, 3175 (2002)
                   Be, Mg : Obtained from the TURBOMOLE 7.0 basis set library
                            C. Haettig, Phys. Chem. Chem. Phys. 7, 59 (2005)
                       Ne : Obtained from the EMSL Basis Set Exchange (bse.pnl.gov) Feb. 2017
                            C. Haettig, Phys. Chem. Chem. Phys. 7, 59 (2005)
                            F. Weigend, A. Kohn, C. Hattig, J. Chem. Phys. 116, 3175 (2002)
                    Sc-Zn : Obtained from the EMSL Basis Set Exchange (bse.pnl.gov) Feb. 2017
                            J. G. Hill, J. A. Platts, J. Chem. Phys. 128, 044104 (2008)

The basis set includes element-specific modifications.

Your calculation utilizes the auxiliary basis: cc-pVTZ/C 
  Obtained from the EMSL Basis Set Exchange (bse.pnl.gov) Feb. 2017
  H-He, B-F, Al-Ar, Ga-Kr : F. Weigend, A. Kohn, C. Hattig, J. Chem. Phys. 116, 3175 (2002)
             Li-Be, Na-Mg : C. Haettig, Phys. Chem. Chem. Phys. 7, 59 (2005)
                       Ne : C. Haettig, Phys. Chem. Chem. Phys. 7, 59 (2005)
                            F. Weigend, A. Kohn, C. Hattig, J. Chem. Phys. 116, 3175 (2002)
                    Sc-Zn : J. G. Hill, J. A. Platts, J. Chem. Phys. 128, 044104 (2008)

================================================================================
                                        WARNINGS
                       Please study these warnings very carefully!
================================================================================

INFO   : Checking CIS options ...
  ===> : (D) CORRECTION FOUND - SETTING MODE=3
  ===> : JK MODE FOUND - ACTIVATING RI-MP2 CODE
  ===> : MP2 AND CIS FOUND - CHECKING
WARNING: CIS(D) and MP2 runs must have the same orbital window
  ===> : adjusting orbital windows

WARNING: No MP2 level density has been requested!
         To caclulate MP2 level properties use
         %mp2 Density relaxed end
         or
         %mp2 Density unrelaxed end
         Otherwise for double-hybrid DFT only the energy is correct!

WARNING: The frozen-core approximation is turned on by default for 
         the MP2 part of double-hybrid DFT.

INFO   : the flag for use of the SHARK integral package has been found!

================================================================================
                                       INPUT FILE
================================================================================
NAME = optpbed3-b2plyp-test-600.inp
|  1> ! pbe0 d3bj aug-cc-PVTZ RIJCOSX Opt
|  2> %maxcore 4000
|  3> %basis
|  4>  AuxJ "aug-cc-PVTZ/JK"
|  5>  AuxC "aug-cc-PVTZ/C"
|  6>  newGTO H "cc-PVTZ" end
|  7>  newAuxJGTO H "cc-PVTZ/JK" end
|  8>  newAuxCGTO H "cc-PVTZ/C" end
|  9> end
| 10> %cpcm
| 11>  SMD true
| 12>  SMDsolvent "cyclohexane"
| 13> end
| 14> %pal nprocs 4 end
| 15> * xyz 0 1
| 16> N          1.38310       -3.65340        0.06630
| 17> C          0.93720       -2.59590        0.07140
| 18> C          0.43360       -1.28100        0.06840
| 19> C         -0.92000       -0.98790        0.29750
| 20> N         -1.97290       -1.79940        0.55170
| 21> C         -3.01240       -1.00260        0.68570
| 22> C         -4.35530       -1.32250        0.95760
| 23> C         -5.26990       -0.31510        1.05310
| 24> C         -4.88460        1.03710        0.88280
| 25> C         -3.58850        1.34710        0.62030
| 26> N         -2.68110        0.34840        0.52550
| 27> C         -1.33570        0.38330        0.27400
| 28> N         -0.60310        1.45520        0.06010
| 29> C          0.67760        1.18130       -0.15690
| 30> N          1.65090        2.08380       -0.40310
| 31> C          2.75640        1.39300       -0.55710
| 32> C          4.05750        1.85270       -0.83150
| 33> C          5.07100        0.94930       -0.95300
| 34> C          4.82380       -0.43610       -0.80600
| 35> C          3.56870       -0.88400       -0.54090
| 36> N          2.55620        0.00860       -0.41880
| 37> C          1.22300       -0.15520       -0.16010
| 38> H         -4.61540       -2.36000        1.08160
| 39> H         -6.30440       -0.54020        1.26090
| 40> H         -5.62040        1.81990        0.96160
| 41> H         -3.20870        2.34670        0.47690
| 42> H          4.20480        2.91410       -0.93640
| 43> H          6.07540        1.28200       -1.16330
| 44> H          5.63150       -1.14190       -0.90380
| 45> H          3.32160       -1.92740       -0.41880
| 46> *
| 47> 
| 48> 
| 49> $new_job
| 50> ! b2plyp aug-cc-PVTZ RIJCOSX SP
| 51> %maxcore 4000
| 52> %basis
| 53>  AuxJ "aug-cc-PVTZ/JK"
| 54>  AuxC "aug-cc-PVTZ/C"
| 55>  newGTO H "cc-PVTZ" end
| 56>  newAuxJGTO H "cc-PVTZ/JK" end
| 57>  newAuxCGTO H "cc-PVTZ/C" end
| 58> end
| 59> %cpcm
| 60>  SMD true
| 61>  SMDsolvent "cyclohexane"
| 62> end
| 63> %pal nprocs 4 end
| 64> %tddft
| 65>  nroots 10
| 66>  maxdim 7
| 67> end
| 68> * xyzfile 0 1
| 69> 
| 70>                          ****END OF INPUT****
================================================================================


                 $$$$$$$$$$$$$$$$$$$$$$$$$$$$$$$$$$$$$$$$$$$$$$ 
                 $ THERE ARE  2 JOBS TO BE PROCESSED THIS RUN $
                 $$$$$$$$$$$$$$$$$$$$$$$$$$$$$$$$$$$$$$$$$$$$$$ 




                 $$$$$$$$$$$$$$$$  JOB NUMBER  1 $$$$$$$$$$$$$$


                       *****************************
                       * Geometry Optimization Run *
                       *****************************

Geometry optimization settings:
Update method            Update   .... BFGS
Choice of coordinates    CoordSys .... Z-matrix Internals
Initial Hessian          InHess   .... Almoef's Model

Convergence Tolerances:
Energy Change            TolE     ....  5.0000e-06 Eh
Max. Gradient            TolMAXG  ....  3.0000e-04 Eh/bohr
RMS Gradient             TolRMSG  ....  1.0000e-04 Eh/bohr
Max. Displacement        TolMAXD  ....  4.0000e-03 bohr
RMS Displacement         TolRMSD  ....  2.0000e-03 bohr
Strict Convergence                ....  False
------------------------------------------------------------------------------
                        ORCA OPTIMIZATION COORDINATE SETUP
------------------------------------------------------------------------------

The optimization will be done in new redundant internal coordinates
Making redundant internal coordinates   ...  (new redundants) done
Evaluating the initial hessian          ...  (Almloef) done
Evaluating the coordinates              ...  done
Calculating the B-matrix                .... done
Calculating the G-matrix                .... done
Diagonalizing the G-matrix              .... done
Small eigenvalue found = 1.326e-02
The first mode is                       ....   90
The number of degrees of freedom        ....   84

    -----------------------------------------------------------------
                    Redundant Internal Coordinates


    -----------------------------------------------------------------
         Definition                    Initial Value    Approx d2E/dq
    -----------------------------------------------------------------
      1. B(C   1,N   0)                  1.1477         1.362978   
      2. B(C   2,C   1)                  1.4080         0.584726   
      3. B(C   3,C   2)                  1.4038         0.593932   
      4. B(N   4,C   3)                  1.3534         0.640081   
      5. B(C   5,N   4)                  1.3166         0.732821   
      6. B(C   6,C   5)                  1.4070         0.586973   
      7. B(C   7,C   6)                  1.3640         0.687442   
      8. B(C   8,C   7)                  1.4163         0.567257   
      9. B(C   9,C   8)                  1.3583         0.702055   
     10. B(N  10,C   9)                  1.3527         0.641808   
     11. B(N  10,C   5)                  1.4002         0.538971   
     12. B(C  11,N  10)                  1.3691         0.604144   
     13. B(C  11,C   3)                  1.4330         0.533460   
     14. B(N  12,C  11)                  1.3158         0.734850   
     15. B(C  13,N  12)                  1.3275         0.703983   
     16. B(N  14,C  13)                  1.3500         0.648235   
     17. B(C  15,N  14)                  1.3127         0.743502   
     18. B(C  16,C  15)                  1.4069         0.587099   
     19. B(C  17,C  16)                  1.3631         0.689661   
     20. B(C  18,C  17)                  1.4149         0.570100   
     21. B(C  19,C  18)                  1.3587         0.700834   
     22. B(N  20,C  19)                  1.3553         0.635711   
     23. B(N  20,C  15)                  1.4056         0.528388   
     24. B(C  21,N  20)                  1.3679         0.606902   
     25. B(C  21,C  13)                  1.4435         0.513306   
     26. B(C  21,C   2)                  1.3938         0.616044   
     27. B(H  22,C   6)                  1.0768         0.378033   
     28. B(H  23,C   7)                  1.0789         0.375077   
     29. B(H  24,C   8)                  1.0772         0.377420   
     30. B(H  25,C   9)                  1.0789         0.375096   
     31. B(H  26,C  16)                  1.0767         0.378139   
     32. B(H  27,C  17)                  1.0788         0.375273   
     33. B(H  28,C  18)                  1.0771         0.377606   
     34. B(H  29,C  19)                  1.0792         0.374688   
     35. L(N   0,C   1,C   2,C  21, 2) 180.0054         0.492632   
     36. L(N   0,C   1,C   2,C  21, 1) 178.0568         0.492632   
     37. A(C   1,C   2,C  21)          123.5082         0.429028   
     38. A(C   3,C   2,C  21)          113.8419         0.430233   
     39. A(C   1,C   2,C   3)          122.6499         0.426227   
     40. A(C   2,C   3,N   4)          130.9654         0.430370   
     41. A(C   2,C   3,C  11)          118.4781         0.419295   
     42. A(N   4,C   3,C  11)          110.5565         0.422173   
     43. A(C   3,N   4,C   5)          105.6922         0.444052   
     44. A(N   4,C   5,N  10)          112.6730         0.430501   
     45. A(C   6,C   5,N  10)          117.8596         0.416466   
     46. A(N   4,C   5,C   6)          129.4674         0.440048   
     47. A(C   5,C   6,C   7)          119.0513         0.437876   
     48. A(C   5,C   6,H  22)          118.1562         0.352542   
     49. A(C   7,C   6,H  22)          122.7925         0.362138   
     50. A(C   8,C   7,H  23)          118.8948         0.350048   
     51. A(C   6,C   7,H  23)          120.1540         0.361653   
     52. A(C   6,C   7,C   8)          120.9511         0.435189   
     53. A(C   7,C   8,C   9)          120.0488         0.436841   
     54. A(C   9,C   8,H  24)          120.0053         0.363340   
     55. A(C   7,C   8,H  24)          119.9459         0.350416   
     56. A(C   8,C   9,N  10)          119.0223         0.443756   
     57. A(C   8,C   9,H  25)          124.9640         0.362957   
     58. A(N  10,C   9,H  25)          116.0137         0.355241   
     59. A(C   5,N  10,C   9)          123.0669         0.420403   
     60. A(C   9,N  10,C  11)          130.7856         0.429077   
     61. A(C   5,N  10,C  11)          106.1475         0.415897   
     62. A(N  10,C  11,N  12)          126.7070         0.439658   
     63. A(C   3,C  11,N  12)          128.3622         0.432749   
     64. A(C   3,C  11,N  10)          104.9308         0.417844   
     65. A(C  11,N  12,C  13)          113.3045         0.452009   
     66. A(N  12,C  13,N  14)          125.9746         0.441850   
     67. A(N  14,C  13,C  21)          110.2528         0.420229   
     68. A(N  12,C  13,C  21)          123.7726         0.426472   
     69. A(C  13,N  14,C  15)          106.0676         0.446239   
     70. A(C  16,C  15,N  20)          118.2102         0.415015   
     71. A(N  14,C  15,N  20)          112.7570         0.430087   
     72. A(N  14,C  15,C  16)          129.0328         0.441217   
     73. A(C  15,C  16,C  17)          119.2372         0.438148   
     74. A(C  17,C  16,H  26)          122.8833         0.362354   
     75. A(C  15,C  16,H  26)          117.8795         0.352572   
     76. A(C  18,C  17,H  27)          119.0050         0.350374   
     77. A(C  16,C  17,H  27)          120.3475         0.361884   
     78. A(C  16,C  17,C  18)          120.6474         0.435834   
     79. A(C  19,C  18,H  28)          119.6304         0.363263   
     80. A(C  17,C  18,H  28)          120.0771         0.350741   
     81. A(C  17,C  18,C  19)          120.2925         0.437097   
     82. A(C  18,C  19,N  20)          119.3776         0.442851   
     83. A(N  20,C  19,H  29)          117.0981         0.354601   
     84. A(C  18,C  19,H  29)          123.5243         0.362782   
     85. A(C  15,N  20,C  19)          122.2351         0.418207   
     86. A(C  19,N  20,C  21)          131.7815         0.428693   
     87. A(C  15,N  20,C  21)          105.9834         0.414769   
     88. A(C  13,C  21,N  20)          104.9392         0.415326   
     89. A(C   2,C  21,N  20)          132.8201         0.429084   
     90. A(C   2,C  21,C  13)          122.2406         0.419149   
     91. D(N   4,C   3,C   2,C   1)     -0.0037         0.024292   
     92. D(N   4,C   3,C   2,C  21)    179.9960         0.024292   
     93. D(C  11,C   3,C   2,C   1)   -179.9951         0.024292   
     94. D(C  11,C   3,C   2,C  21)      0.0046         0.024292   
     95. D(C   5,N   4,C   3,C  11)     -0.0019         0.030204   
     96. D(C   5,N   4,C   3,C   2)   -179.9937         0.030204   
     97. D(C   6,C   5,N   4,C   3)   -179.9985         0.040587   
     98. D(N  10,C   5,N   4,C   3)      0.0007         0.040587   
     99. D(H  22,C   6,C   5,N  10)    179.9955         0.023698   
    100. D(H  22,C   6,C   5,N   4)     -0.0053         0.023698   
    101. D(C   7,C   6,C   5,N   4)    179.9986         0.023698   
    102. D(C   7,C   6,C   5,N  10)     -0.0006         0.023698   
    103. D(C   8,C   7,C   6,H  22)   -179.9944         0.033184   
    104. D(C   8,C   7,C   6,C   5)      0.0016         0.033184   
    105. D(H  23,C   7,C   6,C   5)    179.9942         0.033184   
    106. D(H  23,C   7,C   6,H  22)     -0.0017         0.033184   
    107. D(H  24,C   8,C   7,C   6)    179.9967         0.022064   
    108. D(H  24,C   8,C   7,H  23)      0.0040         0.022064   
    109. D(C   9,C   8,C   7,H  23)   -179.9951         0.022064   
    110. D(C   9,C   8,C   7,C   6)     -0.0023         0.022064   
    111. D(H  25,C   9,C   8,H  24)      0.0050         0.034731   
    112. D(H  25,C   9,C   8,C   7)   -179.9959         0.034731   
    113. D(N  10,C   9,C   8,H  24)   -179.9969         0.034731   
    114. D(N  10,C   9,C   8,C   7)      0.0021         0.034731   
    115. D(C   5,N  10,C   9,H  25)    179.9970         0.033543   
    116. D(C   5,N  10,C   9,C   8)     -0.0012         0.033543   
    117. D(C  11,N  10,C   5,C   6)   -180.0000         0.023105   
    118. D(C  11,N  10,C   5,N   4)      0.0007         0.023105   
    119. D(C   9,N  10,C   5,C   6)      0.0004         0.023105   
    120. D(C  11,N  10,C   9,C   8)    179.9993         0.033543   
    121. D(C   9,N  10,C   5,N   4)   -179.9989         0.023105   
    122. D(C  11,N  10,C   9,H  25)     -0.0025         0.033543   
    123. D(N  12,C  11,N  10,C   9)      0.0061         0.029439   
    124. D(C   3,C  11,N  10,C   9)    179.9978         0.029439   
    125. D(C   3,C  11,N  10,C   5)     -0.0017         0.029439   
    126. D(N  12,C  11,C   3,N   4)    179.9938         0.019431   
    127. D(N  12,C  11,C   3,C   2)     -0.0132         0.019431   
    128. D(N  12,C  11,N  10,C   5)   -179.9934         0.029439   
    129. D(N  10,C  11,C   3,N   4)      0.0023         0.019431   
    130. D(N  10,C  11,C   3,C   2)    179.9953         0.019431   
    131. D(C  13,N  12,C  11,N  10)   -179.9981         0.040835   
    132. D(C  13,N  12,C  11,C   3)      0.0121         0.040835   
    133. D(C  21,C  13,N  12,C  11)     -0.0037         0.037154   
    134. D(N  14,C  13,N  12,C  11)    179.9932         0.037154   
    135. D(C  15,N  14,C  13,C  21)     -0.0054         0.031042   
    136. D(C  15,N  14,C  13,N  12)    179.9973         0.031042   
    137. D(N  20,C  15,N  14,C  13)      0.0051         0.041906   
    138. D(C  16,C  15,N  14,C  13)   -179.9980         0.041906   
    139. D(H  26,C  16,C  15,N  20)    179.9992         0.023709   
    140. D(H  26,C  16,C  15,N  14)      0.0024         0.023709   
    141. D(C  17,C  16,C  15,N  20)      0.0008         0.023709   
    142. D(C  17,C  16,C  15,N  14)   -179.9960         0.023709   
    143. D(H  27,C  17,C  16,H  26)     -0.0041         0.033416   
    144. D(H  27,C  17,C  16,C  15)    179.9943         0.033416   
    145. D(C  18,C  17,C  16,H  26)   -179.9959         0.033416   
    146. D(C  18,C  17,C  16,C  15)      0.0025         0.033416   
    147. D(H  28,C  18,C  17,H  27)      0.0119         0.022295   
    148. D(H  28,C  18,C  17,C  16)   -179.9962         0.022295   
    149. D(C  19,C  18,C  17,H  27)   -179.9980         0.022295   
    150. D(C  19,C  18,C  17,C  16)     -0.0062         0.022295   
    151. D(H  29,C  19,C  18,C  17)   -179.9932         0.034600   
    152. D(N  20,C  19,C  18,H  28)    179.9964         0.034600   
    153. D(N  20,C  19,C  18,C  17)      0.0063         0.034600   
    154. D(H  29,C  19,C  18,H  28)     -0.0031         0.034600   
    155. D(C  21,N  20,C  19,H  29)     -0.0042         0.032856   
    156. D(C  21,N  20,C  19,C  18)    179.9963         0.032856   
    157. D(C  15,N  20,C  19,H  29)    179.9965         0.032856   
    158. D(C  15,N  20,C  19,C  18)     -0.0030         0.032856   
    159. D(C  21,N  20,C  15,C  16)    180.0000         0.022165   
    160. D(C  21,N  20,C  15,N  14)     -0.0027         0.022165   
    161. D(C  19,N  20,C  15,C  16)     -0.0006         0.022165   
    162. D(C  19,N  20,C  15,N  14)    179.9967         0.022165   
    163. D(C  13,C  21,N  20,C  19)    179.9999         0.029729   
    164. D(C  13,C  21,N  20,C  15)     -0.0007         0.029729   
    165. D(C   2,C  21,N  20,C  19)      0.0048         0.029729   
    166. D(C   2,C  21,N  20,C  15)   -179.9958         0.029729   
    167. D(N  20,C  21,C  13,N  14)      0.0038         0.017960   
    168. D(N  20,C  21,C  13,N  12)   -179.9989         0.017960   
    169. D(C   2,C  21,C  13,N  14)    179.9995         0.017960   
    170. D(C   2,C  21,C  13,N  12)     -0.0031         0.017960   
    171. D(N  20,C  21,C   2,C   3)    179.9967         0.026241   
    172. D(N  20,C  21,C   2,C   1)     -0.0036         0.026241   
    173. D(C  13,C  21,C   2,C   3)      0.0023         0.026241   
    174. D(C  13,C  21,C   2,C   1)   -179.9980         0.026241   
    -----------------------------------------------------------------

Number of atoms                         .... 30
Number of degrees of freedom            .... 174

         *************************************************************
         *                GEOMETRY OPTIMIZATION CYCLE   1            *
         *************************************************************
---------------------------------
CARTESIAN COORDINATES (ANGSTROEM)
---------------------------------
  N      1.383100   -3.653400    0.066300
  C      0.937200   -2.595900    0.071400
  C      0.433600   -1.281000    0.068400
  C     -0.920000   -0.987900    0.297500
  N     -1.972900   -1.799400    0.551700
  C     -3.012400   -1.002600    0.685700
  C     -4.355300   -1.322500    0.957600
  C     -5.269900   -0.315100    1.053100
  C     -4.884600    1.037100    0.882800
  C     -3.588500    1.347100    0.620300
  N     -2.681100    0.348400    0.525500
  C     -1.335700    0.383300    0.274000
  N     -0.603100    1.455200    0.060100
  C      0.677600    1.181300   -0.156900
  N      1.650900    2.083800   -0.403100
  C      2.756400    1.393000   -0.557100
  C      4.057500    1.852700   -0.831500
  C      5.071000    0.949300   -0.953000
  C      4.823800   -0.436100   -0.806000
  C      3.568700   -0.884000   -0.540900
  N      2.556200    0.008600   -0.418800
  C      1.223000   -0.155200   -0.160100
  H     -4.615400   -2.360000    1.081600
  H     -6.304400   -0.540200    1.260900
  H     -5.620400    1.819900    0.961600
  H     -3.208700    2.346700    0.476900
  H      4.204800    2.914100   -0.936400
  H      6.075400    1.282000   -1.163300
  H      5.631500   -1.141900   -0.903800
  H      3.321600   -1.927400   -0.418800

----------------------------
CARTESIAN COORDINATES (A.U.)
----------------------------
  NO LB      ZA    FRAG     MASS         X           Y           Z
   0 N     7.0000    0    14.007    2.613680   -6.903925    0.125289
   1 C     6.0000    0    12.011    1.771051   -4.905540    0.134926
   2 C     6.0000    0    12.011    0.819385   -2.420739    0.129257
   3 C     6.0000    0    12.011   -1.738548   -1.866860    0.562194
   4 N     7.0000    0    14.007   -3.728241   -3.400373    1.042562
   5 C     6.0000    0    12.011   -5.692611   -1.894639    1.295785
   6 C     6.0000    0    12.011   -8.230324   -2.499163    1.809602
   7 C     6.0000    0    12.011   -9.958668   -0.595453    1.990071
   8 C     6.0000    0    12.011   -9.230556    1.959835    1.668250
   9 C     6.0000    0    12.011   -6.781282    2.545650    1.172197
  10 N     7.0000    0    14.007   -5.066545    0.658381    0.993051
  11 C     6.0000    0    12.011   -2.524107    0.724332    0.517785
  12 N     7.0000    0    14.007   -1.139694    2.749929    0.113573
  13 C     6.0000    0    12.011    1.280478    2.232333   -0.296498
  14 N     7.0000    0    14.007    3.119749    3.937811   -0.761749
  15 C     6.0000    0    12.011    5.208841    2.632389   -1.052766
  16 C     6.0000    0    12.011    7.667564    3.501096   -1.571307
  17 C     6.0000    0    12.011    9.582801    1.793917   -1.800909
  18 C     6.0000    0    12.011    9.115661   -0.824110   -1.523119
  19 C     6.0000    0    12.011    6.743866   -1.670518   -1.022153
  20 N     7.0000    0    14.007    4.830518    0.016252   -0.791417
  21 C     6.0000    0    12.011    2.311135   -0.293285   -0.302545
  22 H     1.0000    0     1.008   -8.721842   -4.459754    2.043928
  23 H     1.0000    0     1.008  -11.913589   -1.020830    2.382756
  24 H     1.0000    0     1.008  -10.621017    3.439113    1.817161
  25 H     1.0000    0     1.008   -6.063564    4.434620    0.901210
  26 H     1.0000    0     1.008    7.945920    5.506851   -1.769540
  27 H     1.0000    0     1.008   11.480842    2.422629   -2.198318
  28 H     1.0000    0     1.008   10.641993   -2.157878   -1.707934
  29 H     1.0000    0     1.008    6.276914   -3.642258   -0.791417

--------------------------------
INTERNAL COORDINATES (ANGSTROEM)
--------------------------------
 N      0   0   0     0.000000000000     0.00000000     0.00000000
 C      1   0   0     1.147675507275     0.00000000     0.00000000
 C      2   1   0     1.408042602338   178.05677476     0.00000000
 C      3   2   1     1.403790361842   122.64991683   180.07877712
 N      4   3   2     1.353420961859   130.96535712     0.00000000
 C      5   4   3     1.316588960154   105.69219980   180.00626973
 C      6   5   4     1.406998944563   129.46740125   180.00149490
 C      7   6   5     1.363989798349   119.05127560   179.99859144
 C      8   7   6     1.416299057403   120.95114531     0.00000000
 C      9   8   7     1.358264134843   120.04881281     0.00000000
 N     10   9   8     1.352687506411   119.02228923     0.00000000
 C     11  10   9     1.369149889530   130.78560362   179.99934334
 N     12  11  10     1.315836456403   126.70703221     0.00000000
 C     13  12  11     1.327517495177   113.30451568   180.00189378
 N     14  13  12     1.349975399776   125.97457908   179.99318919
 C     15  14  13     1.312650330438   106.06758548   179.99730417
 C     16  15  14     1.406940176411   129.03278622   180.00202280
 C     17  16  15     1.363112636579   119.23715652   180.00396886
 C     18  17  16     1.414938161193   120.64744107     0.00000000
 C     19  18  17     1.358737807673   120.29246166     0.00000000
 N     20  19  18     1.355285733711   119.37762708     0.00000000
 C     21  20  19     1.367910220007   131.78150060   179.99630705
 H      7   6   5     1.076770291195   118.15618717     0.00000000
 H      8   7   6     1.078907363957   120.15403165   179.99421495
 H      9   8   7     1.077212569552   119.94586130   179.99668285
 H     10   9   8     1.078893766782   124.96398793   180.00405345
 H     17  16  15     1.076694599225   117.87950551     0.00000000
 H     18  17  16     1.078765377642   120.34751126   179.99427637
 H     19  18  17     1.077078349054   120.07711408   180.00380416
 H     20  19  18     1.079189686756   123.52426655   180.00680166

---------------------------
INTERNAL COORDINATES (A.U.)
---------------------------
 N      0   0   0     0.000000000000     0.00000000     0.00000000
 C      1   0   0     2.168792399360     0.00000000     0.00000000
 C      2   1   0     2.660814903313   178.05677476     0.00000000
 C      3   2   1     2.652779333319   122.64991683   180.07877712
 N      4   3   2     2.557594961822   130.96535712     0.00000000
 C      5   4   3     2.487992565636   105.69219980   180.00626973
 C      6   5   4     2.658842675939   129.46740125   180.00149490
 C      7   6   5     2.577567168342   119.05127560   179.99859144
 C      8   7   6     2.676417342222   120.95114531     0.00000000
 C      9   8   7     2.566747232380   120.04881281     0.00000000
 N     10   9   8     2.556208931893   119.02228923     0.00000000
 C     11  10   9     2.587318327500   130.78560362   179.99934334
 N     12  11  10     2.486570539632   126.70703221     0.00000000
 C     13  12  11     2.508644503873   113.30451568   180.00189378
 N     14  13  12     2.551083793107   125.97457908   179.99318919
 C     15  14  13     2.480549634130   106.06758548   179.99730417
 C     16  15  14     2.658731620228   129.03278622   180.00202280
 C     17  16  15     2.575909572821   119.23715652   180.00396886
 C     18  17  16     2.673845621089   120.64744107     0.00000000
 C     19  18  17     2.567642344307   120.29246166     0.00000000
 N     20  19  18     2.561118869924   119.37762708     0.00000000
 C     21  20  19     2.584975691605   131.78150060   179.99630705
 H      7   6   5     2.034800959501   118.15618717     0.00000000
 H      8   7   6     2.038839441749   120.15403165   179.99421495
 H      9   8   7     2.035636744470   119.94586130   179.99668285
 H     10   9   8     2.038813746812   124.96398793   180.00405345
 H     17  16  15     2.034657922407   117.87950551     0.00000000
 H     18  17  16     2.038571126500   120.34751126   179.99427637
 H     19  18  17     2.035383104487   120.07711408   180.00380416
 H     20  19  18     2.039372954521   123.52426655   180.00680166

---------------------
BASIS SET INFORMATION
---------------------
There are 3 groups of distinct atoms

 Group   1 Type N   : 19s6p3d2f contracted to 5s4p3d2f pattern {88111/3111/111/11}
 Group   2 Type C   : 19s6p3d2f contracted to 5s4p3d2f pattern {88111/3111/111/11}
 Group   3 Type H   : 5s2p1d contracted to 3s2p1d pattern {311/11/1}

Atom   0N    basis set group =>   1
Atom   1C    basis set group =>   2
Atom   2C    basis set group =>   2
Atom   3C    basis set group =>   2
Atom   4N    basis set group =>   1
Atom   5C    basis set group =>   2
Atom   6C    basis set group =>   2
Atom   7C    basis set group =>   2
Atom   8C    basis set group =>   2
Atom   9C    basis set group =>   2
Atom  10N    basis set group =>   1
Atom  11C    basis set group =>   2
Atom  12N    basis set group =>   1
Atom  13C    basis set group =>   2
Atom  14N    basis set group =>   1
Atom  15C    basis set group =>   2
Atom  16C    basis set group =>   2
Atom  17C    basis set group =>   2
Atom  18C    basis set group =>   2
Atom  19C    basis set group =>   2
Atom  20N    basis set group =>   1
Atom  21C    basis set group =>   2
Atom  22H    basis set group =>   3
Atom  23H    basis set group =>   3
Atom  24H    basis set group =>   3
Atom  25H    basis set group =>   3
Atom  26H    basis set group =>   3
Atom  27H    basis set group =>   3
Atom  28H    basis set group =>   3
Atom  29H    basis set group =>   3
---------------------------------
AUXILIARY/J BASIS SET INFORMATION
---------------------------------
There are 3 groups of distinct atoms

 Group   1 Type N   : 10s7p5d2f1g contracted to 10s7p5d2f1g pattern {1111111111/1111111/11111/11/1}
 Group   2 Type C   : 10s7p5d2f1g contracted to 10s7p5d2f1g pattern {1111111111/1111111/11111/11/1}
 Group   3 Type H   : 4s3p2d1f contracted to 4s3p2d1f pattern {1111/111/11/1}

Atom   0N    basis set group =>   1
Atom   1C    basis set group =>   2
Atom   2C    basis set group =>   2
Atom   3C    basis set group =>   2
Atom   4N    basis set group =>   1
Atom   5C    basis set group =>   2
Atom   6C    basis set group =>   2
Atom   7C    basis set group =>   2
Atom   8C    basis set group =>   2
Atom   9C    basis set group =>   2
Atom  10N    basis set group =>   1
Atom  11C    basis set group =>   2
Atom  12N    basis set group =>   1
Atom  13C    basis set group =>   2
Atom  14N    basis set group =>   1
Atom  15C    basis set group =>   2
Atom  16C    basis set group =>   2
Atom  17C    basis set group =>   2
Atom  18C    basis set group =>   2
Atom  19C    basis set group =>   2
Atom  20N    basis set group =>   1
Atom  21C    basis set group =>   2
Atom  22H    basis set group =>   3
Atom  23H    basis set group =>   3
Atom  24H    basis set group =>   3
Atom  25H    basis set group =>   3
Atom  26H    basis set group =>   3
Atom  27H    basis set group =>   3
Atom  28H    basis set group =>   3
Atom  29H    basis set group =>   3
---------------------------------
AUXILIARY/C BASIS SET INFORMATION
---------------------------------
There are 3 groups of distinct atoms

 Group   1 Type N   : 9s7p6d4f2g contracted to 9s7p6d4f2g pattern {111111111/1111111/111111/1111/11}
 Group   2 Type C   : 9s7p6d4f2g contracted to 9s7p6d4f2g pattern {111111111/1111111/111111/1111/11}
 Group   3 Type H   : 4s3p2d1f contracted to 4s3p2d1f pattern {1111/111/11/1}

Atom   0N    basis set group =>   1
Atom   1C    basis set group =>   2
Atom   2C    basis set group =>   2
Atom   3C    basis set group =>   2
Atom   4N    basis set group =>   1
Atom   5C    basis set group =>   2
Atom   6C    basis set group =>   2
Atom   7C    basis set group =>   2
Atom   8C    basis set group =>   2
Atom   9C    basis set group =>   2
Atom  10N    basis set group =>   1
Atom  11C    basis set group =>   2
Atom  12N    basis set group =>   1
Atom  13C    basis set group =>   2
Atom  14N    basis set group =>   1
Atom  15C    basis set group =>   2
Atom  16C    basis set group =>   2
Atom  17C    basis set group =>   2
Atom  18C    basis set group =>   2
Atom  19C    basis set group =>   2
Atom  20N    basis set group =>   1
Atom  21C    basis set group =>   2
Atom  22H    basis set group =>   3
Atom  23H    basis set group =>   3
Atom  24H    basis set group =>   3
Atom  25H    basis set group =>   3
Atom  26H    basis set group =>   3
Atom  27H    basis set group =>   3
Atom  28H    basis set group =>   3
Atom  29H    basis set group =>   3


           ************************************************************
           *        Program running with 4 parallel MPI-processes     *
           *              working on a common directory               *
           ************************************************************
------------------------------------------------------------------------------
                           ORCA GTO INTEGRAL CALCULATION
                           -- RI-GTO INTEGRALS CHOSEN --
------------------------------------------------------------------------------
------------------------------------------------------------------------------
                   ___                                                        
                  /   \      - P O W E R E D   B Y -                         
                 /     \                                                     
                 |  |  |   _    _      __       _____    __    __             
                 |  |  |  | |  | |    /  \     |  _  \  |  |  /  |          
                  \  \/   | |  | |   /    \    | | | |  |  | /  /          
                 / \  \   | |__| |  /  /\  \   | |_| |  |  |/  /          
                |  |  |   |  __  | /  /__\  \  |    /   |      \           
                |  |  |   | |  | | |   __   |  |    \   |  |\   \          
                \     /   | |  | | |  |  |  |  | |\  \  |  | \   \       
                 \___/    |_|  |_| |__|  |__|  |_| \__\ |__|  \__/        
                                                                              
                      - O R C A' S   B I G   F R I E N D -                    
                                      &                                       
                       - I N T E G R A L  F E E D E R -                       
                                                                              
 v1 FN, 2020, v2 2021                                                         
------------------------------------------------------------------------------


Reading SHARK input file optpbed3-b2plyp-test-600.SHARKINP.tmp ... ok
----------------------
SHARK INTEGRAL PACKAGE
----------------------

Number of atoms                             ...     30
Number of basis functions                   ...   1256
Number of shells                            ...    488
Maximum angular momentum                    ...      3
Integral batch strategy                     ... SHARK/LIBINT Hybrid
RI-J (if used) integral strategy            ... SPLIT-RIJ (Revised 2003 algorithm where possible)
Printlevel                                  ...      1
Contraction scheme used                     ... PARTIAL GENERAL contraction
Coulomb Range Separation                    ... NOT USED
Exchange Range Separation                   ... NOT USED
Finite Nucleus Model                        ... NOT USED
Auxiliary Coulomb fitting basis             ... AVAILABLE
   # of basis functions in Aux-J            ...   1978
   # of shells in Aux-J                     ...    630
   Maximum angular momentum in Aux-J        ...      4
Auxiliary J/K fitting basis                 ... NOT available
Auxiliary Correlation fitting basis         ... AVAILABLE
   # of basis functions in Aux-C            ...   2572
   # of shells in Aux-C                     ...    696
   Maximum angular momentum in Aux-C        ...      4
Auxiliary 'external' fitting basis          ... NOT available
Integral threshold                          ...     2.500000e-11
Primitive cut-off                           ...     2.500000e-12
Primitive pair pre-selection threshold      ...     2.500000e-12

Calculating pre-screening integrals         ... done (  0.3 sec) Dimension = 488
Calculating pre-screening integrals (ORCA)  ... done (  0.7 sec) Dimension = 356
Organizing shell pair data                  ... done (  2.2 sec)
Shell pair information
Total number of shell pairs                 ...    119316
Shell pairs after pre-screening             ...     77411
Total number of primitive shell pairs       ...    150516
Primitive shell pairs kept                  ...     89255
          la=0 lb=0:  16894 shell pairs
          la=1 lb=0:  19437 shell pairs
          la=1 lb=1:   4518 shell pairs
          la=2 lb=0:  13290 shell pairs
          la=2 lb=1:   6279 shell pairs
          la=2 lb=2:   2232 shell pairs
          la=3 lb=0:   7611 shell pairs
          la=3 lb=1:   3711 shell pairs
          la=3 lb=2:   2630 shell pairs
          la=3 lb=3:    809 shell pairs

Calculating one electron integrals          ... done (  0.2 sec)
Calculating RI/J V-Matrix + Cholesky decomp.... done (  1.1 sec)
Calculating RI/C V-Matrix + Cholesky decomp.... done (  0.6 sec)
Calculating Nuclear repulsion               ... done (  0.0 sec) ENN=   1600.171993761815 Eh

SHARK setup successfully completed in   7.1 seconds

Maximum memory used throughout the entire GTOINT-calculation: 120.9 MB


           ************************************************************
           *        Program running with 4 parallel MPI-processes     *
           *              working on a common directory               *
           ************************************************************
-------------------------------------------------------------------------------
                                 ORCA SCF
-------------------------------------------------------------------------------

------------
SCF SETTINGS
------------
Hamiltonian:
 Density Functional     Method          .... DFT(GTOs)
 Exchange Functional    Exchange        .... PBE
   PBE kappa parameter   XKappa         ....  0.804000
   PBE mue parameter    XMuePBE         ....  0.219520
 Correlation Functional Correlation     .... PBE
   PBE beta parameter  CBetaPBE         ....  0.066725
 LDA part of GGA corr.  LDAOpt          .... PW91-LDA
 Gradients option       PostSCFGGA      .... off
 Hybrid DFT is turned on
   Fraction HF Exchange ScalHFX         ....  0.250000
   Scaling of DF-GGA-X  ScalDFX         ....  0.750000
   Scaling of DF-GGA-C  ScalDFC         ....  1.000000
   Scaling of DF-LDA-C  ScalLDAC        ....  1.000000
   Perturbative correction              ....  0.000000
   Density functional embedding theory  .... OFF
   NL short-range parameter             ....  6.900000
 RI-approximation to the Coulomb term is turned on
   Number of AuxJ basis functions       .... 1978
   RIJ-COSX (HFX calculated with COS-X)).... on


General Settings:
 Integral files         IntName         .... optpbed3-b2plyp-test-600
 Hartree-Fock type      HFTyp           .... RHF
 Total Charge           Charge          ....    0
 Multiplicity           Mult            ....    1
 Number of Electrons    NEL             ....  146
 Basis Dimension        Dim             .... 1124
 Nuclear Repulsion      ENuc            ....   1600.1719937618 Eh

Convergence Acceleration:
 DIIS                   CNVDIIS         .... on
   Start iteration      DIISMaxIt       ....    12
   Startup error        DIISStart       ....  0.200000
   # of expansion vecs  DIISMaxEq       ....     5
   Bias factor          DIISBfac        ....   1.050
   Max. coefficient     DIISMaxC        ....  10.000
 Trust-Rad. Augm. Hess. CNVTRAH         .... auto
   Auto Start mean grad. ratio tolernc. ....  1.125000
   Auto Start start iteration           ....    20
   Auto Start num. interpolation iter.  ....    10
   Max. Number of Micro iterations      ....    16
   Max. Number of Macro iterations      .... Maxiter - #DIIS iter
   Number of Davidson start vectors     ....     2
   Converg. threshold I  (grad. norm)   ....   1.000e-05
   Converg. threshold II (energy diff.) ....   1.000e-08
   Grad. Scal. Fac. for Micro threshold ....   0.100
   Minimum threshold for Micro iter.    ....   0.010
   NR start threshold (gradient norm)   ....   0.001
   Initial trust radius                 ....   0.400
   Minimum AH scaling param. (alpha)    ....   1.000
   Maximum AH scaling param. (alpha)    .... 1000.000
   Orbital update algorithm             .... Taylor
   White noise on init. David. guess    .... on
   Maximum white noise                  ....   0.010
   Quad. conv. algorithm                .... NR
 SOSCF                  CNVSOSCF        .... on
   Start iteration      SOSCFMaxIt      ....   150
   Startup grad/error   SOSCFStart      ....  0.003300
 Level Shifting         CNVShift        .... on
   Level shift para.    LevelShift      ....    0.2500
   Turn off err/grad.   ShiftErr        ....    0.0010
 Zerner damping         CNVZerner       .... off
 Static damping         CNVDamp         .... on
   Fraction old density DampFac         ....    0.7000
   Max. Damping (<1)    DampMax         ....    0.9800
   Min. Damping (>=0)   DampMin         ....    0.0000
   Turn off err/grad.   DampErr         ....    0.1000
 Fernandez-Rico         CNVRico         .... off

SCF Procedure:
 Maximum # iterations   MaxIter         ....   125
 SCF integral mode      SCFMode         .... Direct
   Integral package                     .... SHARK and LIBINT hybrid scheme
 Reset frequency        DirectResetFreq ....    20
 Integral Threshold     Thresh          ....  2.500e-11 Eh
 Primitive CutOff       TCut            ....  2.500e-12 Eh

Convergence Tolerance:
 Convergence Check Mode ConvCheckMode   .... Total+1el-Energy
 Convergence forced     ConvForced      .... 0
 Energy Change          TolE            ....  1.000e-08 Eh
 1-El. energy change                    ....  1.000e-05 Eh
 Orbital Gradient       TolG            ....  1.000e-05
 Orbital Rotation angle TolX            ....  1.000e-05
 DIIS Error             TolErr          ....  5.000e-07


Diagonalization of the overlap matrix:
Smallest eigenvalue                        ... 2.506e-07
Time for diagonalization                   ...    0.324 sec
Threshold for overlap eigenvalues          ... 1.000e-08
Number of eigenvalues below threshold      ... 0
Time for construction of square roots      ...    0.724 sec
Total time needed                          ...    1.055 sec

Time for model grid setup =    0.717 sec

------------------------------
INITIAL GUESS: MODEL POTENTIAL
------------------------------
Loading Hartree-Fock densities                     ... done
Calculating cut-offs                               ... done
Initializing the effective Hamiltonian             ... done
Setting up the integral package (SHARK)            ... done
Starting the Coulomb interaction                   ... done (   3.2 sec)
Reading the grid                                   ... done
Mapping shells                                     ... done
Starting the XC term evaluation                    ... done (   2.7 sec)
  promolecular density results
     # of electrons  =    145.991445279
     EX              =   -123.582509815
     EC              =     -4.971733489
     EX+EC           =   -128.554243304
Transforming the Hamiltonian                       ... done (   0.2 sec)
Diagonalizing the Hamiltonian                      ... done (   0.4 sec)
Back transforming the eigenvectors                 ... done (   0.1 sec)
Now organizing SCF variables                       ... done
                      ------------------
                      INITIAL GUESS DONE (   7.2 sec)
                      ------------------
-------------------
DFT GRID GENERATION
-------------------

General Integration Accuracy     IntAcc      ... 4.388
Radial Grid Type                 RadialGrid  ... OptM3 with GC (2021)
Angular Grid (max. ang.)         AngularGrid ... 4 (Lebedev-302)
Angular grid pruning method      GridPruning ... 4 (adaptive)
Weight generation scheme         WeightScheme... Becke
Basis function cutoff            BFCut       ... 1.0000e-11
Integration weight cutoff        WCut        ... 1.0000e-14
Angular grids for H and He will be reduced by one unit
Partially contracted basis set               ... off
Rotationally invariant grid construction     ... off

Total number of grid points                  ...   162521
Total number of batches                      ...     2555
Average number of points per batch           ...       63
Average number of grid points per atom       ...     5417
Time for grid setup =    2.671 sec

--------------------
COSX GRID GENERATION
--------------------

GRIDX 1
-------
General Integration Accuracy     IntAcc      ... 3.816
Radial Grid Type                 RadialGrid  ... OptM3 with GC (2021)
Angular Grid (max. ang.)         AngularGrid ... 1 (Lebedev-50)
Angular grid pruning method      GridPruning ... 4 (adaptive)
Weight generation scheme         WeightScheme... Becke
Basis function cutoff            BFCut       ... 1.0000e-11
Integration weight cutoff        WCut        ... 1.0000e-14
Angular grids for H and He will be reduced by one unit
Partially contracted basis set               ... on
Rotationally invariant grid construction     ... off

Total number of grid points                  ...    20622
Total number of batches                      ...      341
Average number of points per batch           ...       60
Average number of grid points per atom       ...      687
UseSFitting                                  ... on

GRIDX 2
-------
General Integration Accuracy     IntAcc      ... 4.020
Radial Grid Type                 RadialGrid  ... OptM3 with GC (2021)
Angular Grid (max. ang.)         AngularGrid ... 2 (Lebedev-110)
Angular grid pruning method      GridPruning ... 4 (adaptive)
Weight generation scheme         WeightScheme... Becke
Basis function cutoff            BFCut       ... 1.0000e-11
Integration weight cutoff        WCut        ... 1.0000e-14
Angular grids for H and He will be reduced by one unit
Partially contracted basis set               ... on
Rotationally invariant grid construction     ... off

Total number of grid points                  ...    50828
Total number of batches                      ...      810
Average number of points per batch           ...       62
Average number of grid points per atom       ...     1694
UseSFitting                                  ... on

GRIDX 3
-------
General Integration Accuracy     IntAcc      ... 4.338
Radial Grid Type                 RadialGrid  ... OptM3 with GC (2021)
Angular Grid (max. ang.)         AngularGrid ... 3 (Lebedev-194)
Angular grid pruning method      GridPruning ... 4 (adaptive)
Weight generation scheme         WeightScheme... Becke
Basis function cutoff            BFCut       ... 1.0000e-11
Integration weight cutoff        WCut        ... 1.0000e-14
Angular grids for H and He will be reduced by one unit
Partially contracted basis set               ... on
Rotationally invariant grid construction     ... off

Total number of grid points                  ...   109856
Total number of batches                      ...     1732
Average number of points per batch           ...       63
Average number of grid points per atom       ...     3662
UseSFitting                                  ... on

Time for X-Grid setup             =    7.046 sec


--------------------
CPCM SOLVATION MODEL
--------------------
CPCM parameters:
  Epsilon                                         ...       2.0165
  Refrac                                          ...       1.4266
  Rsolv                                           ...       1.3000
  Surface type                                    ... GAUSSIAN VDW
  Epsilon function type                           ...         CPCM
Solvent:                                     ... CYCLOHEXANE
SMD-CDS solvent descriptors:
  Soln                                       ...    1.4266
  Soln25                                     ...    1.4235
  Sola                                       ...    0.0000
  Solb                                       ...    0.0000
  Solg                                       ...   35.4800
  Solc                                       ...    0.0000
  Solh                                       ...    0.0000
Radii:
 Radius for N  used is    3.5716 Bohr (=   1.8900 Ang.)
 Radius for C  used is    3.4960 Bohr (=   1.8500 Ang.)
 Radius for H  used is    2.2677 Bohr (=   1.2000 Ang.)
Calculating surface                               ...        done! (  0.0s)
GEPOL surface points                              ...         1706
GEPOL Volume                                      ...    1863.2511
GEPOL Surface-area                                ...    1006.2070
Calculating surface distance matrix               ...        done! (  0.0s)
Performing Cholesky decomposition & store         ...        done! (  0.2s)
Overall time for CPCM initialization              ...                 0.3s
 re-compute Schwartz prescreening matrix in partically contracted basis (1) ...done (   0.284 sec)
--------------
SCF ITERATIONS
--------------
ITER       Energy         Delta-E        Max-DP      RMS-DP      [F,P]     Damp
               ***  Starting incremental Fock matrix formation  ***
  0   -941.8564496896   0.000000000000 0.42850805  0.00195958  0.2438347 0.7000
  1   -942.0523566351  -0.195906945496 0.31429523  0.00144158  0.1120336 0.7000
                               ***Turning on DIIS***
  2   -942.1311949060  -0.078838270913 0.70134779  0.00292354  0.0411550 0.0000
  3   -942.2612236240  -0.130028718016 0.18790880  0.00079608  0.0529808 0.0000
  4   -942.2842495780  -0.023025954009 0.03073693  0.00021097  0.0245010 0.0000
  5   -942.2866972569  -0.002447678867 0.02222716  0.00011444  0.0049274 0.0000
                      *** Initiating the SOSCF procedure ***
                           *** Shutting down DIIS ***
                      *** Re-Reading the Fockian *** 
                      *** Removing any level shift *** 
ITER      Energy       Delta-E        Grad      Rot      Max-DP    RMS-DP
  6   -942.28677266  -0.0000753985  0.000406  0.000406  0.041738  0.000127
               *** Restarting incremental Fock matrix formation ***
  7   -942.28676731   0.0000053493  0.000216  0.001247  0.109505  0.000530
  8   -942.28676984  -0.0000025384  0.000144  0.000590  0.084385  0.000259
  9   -942.28677144  -0.0000016003  0.000111  0.000375  0.060062  0.000234
 10   -942.28677179  -0.0000003454  0.000077  0.000103  0.030097  0.000136
 11   -942.28677190  -0.0000001119  0.000042  0.000083  0.091881  0.000226
 12   -942.28677198  -0.0000000787  0.000018  0.000048  0.054903  0.000182
 13   -942.28677198  -0.0000000024  0.000008  0.000045  0.067796  0.000227
 14   -942.28677198   0.0000000057  0.000005  0.000010  0.097279  0.000313
 15   -942.28677192   0.0000000581  0.000004  0.000008  0.096706  0.000378
 16   -942.28677191   0.0000000079  0.000005  0.000017  0.086732  0.000259
 17   -942.28677191  -0.0000000028  0.000003  0.000010  0.132060  0.000503
 18   -942.28677191   0.0000000016  0.000004  0.000014  0.077064  0.000180
 19   -942.28677193  -0.0000000163  0.000003  0.000022  0.169895  0.000440
 20   -942.28677188   0.0000000507  0.000005  0.000011  0.050018  0.000240
 21   -942.28677188   0.0000000026  0.000003  0.000026  0.170897  0.000527

 WARNING: the maximum gradient error descreased on average only by a factor   1.0
          during the last 20 iterations

                      *** Initiating the TRAH-SCF procedure ***

              ***Rediagonalizing the Fockian in SOSCF/NRSCF***

TRAH GRIDX
----------

General Integration Accuracy     IntAcc      ... 3.067
Radial Grid Type                 RadialGrid  ... OptM3 with GC (2021)
Angular Grid (max. ang.)         AngularGrid ... 1 (Lebedev-50)
Angular grid pruning method      GridPruning ... 4 (adaptive)
Weight generation scheme         WeightScheme... Becke
Basis function cutoff            BFCut       ... 1.0000e-11
Integration weight cutoff        WCut        ... 1.0000e-14
Angular grids for H and He will be reduced by one unit
Partially contracted basis set               ... on
Rotationally invariant grid construction     ... off

Total number of grid points                  ...    11142
Total number of batches                      ...      190
Average number of points per batch           ...       58
Average number of grid points per atom       ...      371


TRAH GRID
---------

General Integration Accuracy     IntAcc      ... 3.467
Radial Grid Type                 RadialGrid  ... OptM3 with GC (2021)
Angular Grid (max. ang.)         AngularGrid ... 1 (Lebedev-50)
Angular grid pruning method      GridPruning ... 4 (adaptive)
Weight generation scheme         WeightScheme... Becke
Basis function cutoff            BFCut       ... 1.0000e-11
Integration weight cutoff        WCut        ... 1.0000e-14
Angular grids for H and He will be reduced by one unit
Partially contracted basis set               ... off
Rotationally invariant grid construction     ... off

Total number of grid points                  ...    24926
Total number of batches                      ...      405
Average number of points per batch           ...       61
Average number of grid points per atom       ...      831

 --------------------------------------------------------------------------------------------
   Iter.        energy            ||Error||_2        Shift      TRadius  Mac/Mic        Rej.
 --------------------------------------------------------------------------------------------
    0       -942.286771899875     1.166870e-03                     0.400 (TRAH MAcro)   No
    0     dE    -6.276139e-08     1.424628e-03    -1.2553e-07      0.000 (TRAH MIcro)
    0     dE    -1.149601e-07     6.077222e-05    -2.2992e-07      0.000 (TRAH MIcro)
    1       -942.286772009291     6.102326e-05                           (NR   MAcro)
    1     dE    -2.149918e-10     1.723753e-05                           (NR   MIcro)
    1     dE    -2.284204e-10     7.589395e-06                           (NR   MIcro)
    1     dE    -2.323104e-10     2.465849e-06                           (NR   MIcro)
    1     dE    -2.327209e-10     1.242871e-06                           (NR   MIcro)
    1     dE    -2.327786e-10     5.535820e-07                           (NR   MIcro)
    2       -942.286772009407     5.779008e-07                           (NR   MAcro)

               *****************************************************
               *                     SUCCESS                       *
               *           SCF CONVERGED AFTER  32 CYCLES          *
               *****************************************************

Old exchange energy                            =    -31.394049553 Eh
New exchange energy                            =    -31.394064236 Eh
Exchange energy change after final integration =     -0.000014683 Eh
Total energy after final integration           =   -942.286786692 Eh
Final COS-X integration done in                =   160.799 sec

SMD CDS free energy correction energy :                -9.21986     Kcal/mol
Total Energy after SMD CDS correction =              -942.301479479 Eh

----------------
TOTAL SCF ENERGY
----------------

Total Energy       :         -942.30147948 Eh          -25641.32684 eV

Components:
Nuclear Repulsion  :         1600.17199376 Eh           43542.89363 eV
Electronic Energy  :        -2542.47347324 Eh          -69184.22046 eV
One Electron Energy:        -4453.24662879 Eh         -121179.00139 eV
Two Electron Energy:         1910.77315555 Eh           51994.78093 eV
Max COSX asymmetry :            0.00002505 Eh               0.00068 eV
CPCM Dielectric    :           -0.01472873 Eh              -0.40079 eV
SMD CDS (Gcds)     :           -0.01469279 Eh              -0.39981 eV

Virial components:
Potential Energy   :        -1879.51878519 Eh          -51144.30627 eV
Kinetic Energy     :          937.21730571 Eh           25502.97943 eV
Virial Ratio       :            2.00542475


DFT components:
N(Alpha)           :       73.000012533249 electrons
N(Beta)            :       73.000012533249 electrons
N(Total)           :      146.000025066498 electrons
E(X)               :      -94.042939967102 Eh       
E(C)               :       -4.970619406602 Eh       
E(XC)              :      -99.013559373705 Eh       
DFET-embed. en.    :        0.000000000000 Eh       
CPCM Solvation Model Properties:
Surface-charge          :           -0.05087463
Charge-correction       :           -0.00004017 Eh              -0.00109 eV
Free-energy (cav+disp)  :           -0.01469279 Eh              -0.39981 eV

---------------
SCF CONVERGENCE
---------------

  Last Energy change         ...   -1.1619e-10  Tolerance :   1.0000e-08
  Last Orbital Gradient      ...    5.7790e-07  Tolerance :   1.0000e-05
  Last Orbital Rotation      ...    1.1050e-05

             **** THE GBW FILE WAS UPDATED (optpbed3-b2plyp-test-600.gbw) ****
             **** DENSITY optpbed3-b2plyp-test-600.scfp WAS UPDATED ****
             **** ENERGY FILE WAS UPDATED (optpbed3-b2plyp-test-600.en.tmp) ****
             **** THE GBW FILE WAS UPDATED (optpbed3-b2plyp-test-600.gbw) ****
             **** DENSITY optpbed3-b2plyp-test-600.scfp WAS UPDATED ****
----------------
ORBITAL ENERGIES
----------------

  NO   OCC          E(Eh)            E(eV) 
   0   2.0000     -14.489909      -394.2905 
   1   2.0000     -14.483396      -394.1132 
   2   2.0000     -14.409354      -392.0984 
   3   2.0000     -14.399066      -391.8185 
   4   2.0000     -14.383866      -391.4049 
   5   2.0000     -14.378733      -391.2652 
   6   2.0000     -10.314812      -280.6803 
   7   2.0000     -10.314331      -280.6672 
   8   2.0000     -10.314117      -280.6614 
   9   2.0000     -10.302957      -280.3577 
  10   2.0000     -10.301927      -280.3297 
  11   2.0000     -10.296888      -280.1926 
  12   2.0000     -10.293618      -280.1036 
  13   2.0000     -10.293372      -280.0969 
  14   2.0000     -10.287387      -279.9340 
  15   2.0000     -10.281164      -279.7647 
  16   2.0000     -10.258814      -279.1565 
  17   2.0000     -10.257865      -279.1307 
  18   2.0000     -10.251196      -278.9492 
  19   2.0000     -10.250461      -278.9292 
  20   2.0000     -10.249686      -278.9081 
  21   2.0000     -10.249005      -278.8896 
  22   2.0000      -1.099333       -29.9144 
  23   2.0000      -1.091869       -29.7113 
  24   2.0000      -1.001718       -27.2581 
  25   2.0000      -0.969707       -26.3871 
  26   2.0000      -0.956790       -26.0356 
  27   2.0000      -0.949475       -25.8365 
  28   2.0000      -0.890867       -24.2417 
  29   2.0000      -0.874095       -23.7853 
  30   2.0000      -0.853877       -23.2352 
  31   2.0000      -0.801163       -21.8008 
  32   2.0000      -0.798018       -21.7152 
  33   2.0000      -0.777099       -21.1459 
  34   2.0000      -0.745540       -20.2872 
  35   2.0000      -0.693566       -18.8729 
  36   2.0000      -0.684115       -18.6157 
  37   2.0000      -0.673966       -18.3395 
  38   2.0000      -0.667372       -18.1601 
  39   2.0000      -0.645596       -17.5676 
  40   2.0000      -0.614498       -16.7213 
  41   2.0000      -0.591831       -16.1045 
  42   2.0000      -0.570385       -15.5210 
  43   2.0000      -0.538320       -14.6484 
  44   2.0000      -0.533540       -14.5184 
  45   2.0000      -0.523867       -14.2552 
  46   2.0000      -0.517083       -14.0705 
  47   2.0000      -0.509560       -13.8658 
  48   2.0000      -0.505585       -13.7577 
  49   2.0000      -0.503135       -13.6910 
  50   2.0000      -0.496074       -13.4989 
  51   2.0000      -0.488421       -13.2906 
  52   2.0000      -0.475986       -12.9522 
  53   2.0000      -0.467475       -12.7206 
  54   2.0000      -0.430635       -11.7182 
  55   2.0000      -0.418647       -11.3920 
  56   2.0000      -0.415902       -11.3173 
  57   2.0000      -0.414487       -11.2788 
  58   2.0000      -0.404077       -10.9955 
  59   2.0000      -0.399284       -10.8651 
  60   2.0000      -0.398695       -10.8490 
  61   2.0000      -0.380018       -10.3408 
  62   2.0000      -0.368089       -10.0162 
  63   2.0000      -0.365196        -9.9375 
  64   2.0000      -0.361873        -9.8471 
  65   2.0000      -0.345865        -9.4115 
  66   2.0000      -0.334784        -9.1099 
  67   2.0000      -0.312786        -8.5113 
  68   2.0000      -0.310269        -8.4429 
  69   2.0000      -0.290477        -7.9043 
  70   2.0000      -0.260842        -7.0979 
  71   2.0000      -0.260683        -7.0935 
  72   2.0000      -0.219582        -5.9751 
  73   0.0000      -0.100466        -2.7338 
  74   0.0000      -0.044977        -1.2239 
  75   0.0000      -0.033306        -0.9063 
  76   0.0000      -0.018503        -0.5035 
  77   0.0000      -0.001709        -0.0465 
  78   0.0000       0.002264         0.0616 
  79   0.0000       0.004148         0.1129 
  80   0.0000       0.014043         0.3821 
  81   0.0000       0.016883         0.4594 
  82   0.0000       0.019971         0.5434 
  83   0.0000       0.025040         0.6814 
  84   0.0000       0.026832         0.7301 
  85   0.0000       0.034362         0.9350 
  86   0.0000       0.038917         1.0590 
[...]
   Rebuilding the expansion space

                       ****Iteration    5****
              <<< Entering MO-section for Build Sigma(Double) >>>
   Forming the XC and CPCM contribution:
   Time for densities:            0.520
   Time for XC-Integration:      43.217
   Time for LR-CPCM terms:       18.555
   Time for Sigma-Completion:     0.520
   Time for building 20 sigma-vectors
   Data Preparation Phase         ...     0.02 sec
   Transformed RI Coulomb         ...     1.15 sec
   Transformed RI-exchange        ...   812.45 sec
   (ab|v) reading and digestion   ...   757.93 sec
   Final sigma-completion         ...     0.02 sec
   Done building sigma-vectors             Size of expansion space: 20
   Lowest Energy          :     0.114177137199
   Maximum Energy change  :     0.000804950657 (vector 9)
   Maximum residual norm  :     0.000112224538

                       ****Iteration    6****
              <<< Entering MO-section for Build Sigma(Double) >>>
   Forming the XC and CPCM contribution:
   Time for densities:            0.264
   Time for XC-Integration:      22.210
   Time for LR-CPCM terms:       11.629
   Time for Sigma-Completion:     0.280
   Time for building 10 sigma-vectors
   Data Preparation Phase         ...     0.01 sec
   Transformed RI Coulomb         ...     0.71 sec
   Transformed RI-exchange        ...   412.75 sec
   (ab|v) reading and digestion   ...   396.17 sec
   Final sigma-completion         ...     0.01 sec
   Done building sigma-vectors             Size of expansion space: 30
   Lowest Energy          :     0.114177031464
   Maximum Energy change  :     0.000277276775 (vector 9)
   Maximum residual norm  :     0.000044790367

                       ****Iteration    7****
              <<< Entering MO-section for Build Sigma(Double) >>>
   Forming the XC and CPCM contribution:
   Time for densities:            0.261
   Time for XC-Integration:      22.468
   Time for LR-CPCM terms:       11.524
   Time for Sigma-Completion:     0.273
   Time for building 10 sigma-vectors
   Data Preparation Phase         ...     0.01 sec
   Transformed RI Coulomb         ...     0.70 sec
   Transformed RI-exchange        ...   412.01 sec
   (ab|v) reading and digestion   ...   395.54 sec
   Final sigma-completion         ...     0.01 sec
   Done building sigma-vectors             Size of expansion space: 40
   Lowest Energy          :     0.114177021498
   Maximum Energy change  :     0.000089621454 (vector 9)
   Maximum residual norm  :     0.000015321217

                       ****Iteration    8****
              <<< Entering MO-section for Build Sigma(Double) >>>
   Forming the XC and CPCM contribution:
   Time for densities:            0.259
   Time for XC-Integration:      21.956
   Time for LR-CPCM terms:       11.568
   Time for Sigma-Completion:     0.232
   Time for building 10 sigma-vectors
   Data Preparation Phase         ...     0.01 sec
   Transformed RI Coulomb         ...     0.71 sec
   Transformed RI-exchange        ...   402.91 sec
   (ab|v) reading and digestion   ...   386.52 sec
   Final sigma-completion         ...     0.01 sec
   Done building sigma-vectors             Size of expansion space: 50
   Lowest Energy          :     0.114177020311
   Maximum Energy change  :     0.000050127221 (vector 9)
   Maximum residual norm  :     0.000010339156

                       ****Iteration    9****
              <<< Entering MO-section for Build Sigma(Double) >>>
   Forming the XC and CPCM contribution:
   Time for densities:            0.265
   Time for XC-Integration:      22.760
   Time for LR-CPCM terms:       11.640
   Time for Sigma-Completion:     0.223
   Time for building 10 sigma-vectors
   Data Preparation Phase         ...     0.01 sec
   Transformed RI Coulomb         ...     0.69 sec
   Transformed RI-exchange        ...   401.53 sec
   (ab|v) reading and digestion   ...   385.04 sec
   Final sigma-completion         ...     0.01 sec
   Done building sigma-vectors             Size of expansion space: 60
   Lowest Energy          :     0.114177020238
   Maximum Energy change  :     0.000021373299 (vector 9)
   Maximum residual norm  :     0.000002582867

                       ****Iteration   10****
              <<< Entering MO-section for Build Sigma(Double) >>>
   Forming the XC and CPCM contribution:
   Time for densities:            0.264
   Time for XC-Integration:      22.380
   Time for LR-CPCM terms:       11.602
   Time for Sigma-Completion:     0.221
   Time for building 10 sigma-vectors
   Data Preparation Phase         ...     0.01 sec
   Transformed RI Coulomb         ...     0.70 sec
   Transformed RI-exchange        ...   384.80 sec
   (ab|v) reading and digestion   ...   368.45 sec
   Final sigma-completion         ...     0.01 sec
   Done building sigma-vectors             Size of expansion space: 70
   Lowest Energy          :     0.114177020234
   Maximum Energy change  :     0.000004473549 (vector 9)
   Maximum residual norm  :     0.000000592045

      *** CONVERGENCE OF RESIDUAL NORM REACHED ***

Storing the converged CI vectors               ... optpbed3-b2plyp-test-600_job2.cis1

                 *** DAVIDSON DONE ***

Total time for solving the CIS problem:  4938.503sec

------------------
DOUBLES CORRECTION (Double precision version)
------------------

The (D) correction will be scaled by  0.2700
Doing v(i,a)*T(i,a) terms (RI)                    ... ok
Doing u(i,j,a,b) terms for state   0              ... ok
Doing u(i,j,a,b) terms for state   1              ... ok
Doing u(i,j,a,b) terms for state   2              ... ok
Doing u(i,j,a,b) terms for state   3              ... ok
Doing u(i,j,a,b) terms for state   4              ... ok
Doing u(i,j,a,b) terms for state   5              ... ok
Doing u(i,j,a,b) terms for state   6              ... ok
Doing u(i,j,a,b) terms for state   7              ... ok
Doing u(i,j,a,b) terms for state   8              ... ok
Doing u(i,j,a,b) terms for state   9              ... ok

Contributions to the (D) correction(s) (in eV)

STATE  Final   Init.   Total   v(ext)   v(int)  v(3)    u
       omega   omega     (D)                             
-----------------------------------------------------------------------------
   0   2.727   3.107  -0.380   0.721   1.116  -0.072  -2.145
   1   3.694   4.096  -0.402   0.713   1.077  -0.056  -2.135
   2   3.661   4.178  -0.517   0.703   0.990  -0.043  -2.166
   3   4.059   4.678  -0.619   0.550   1.106  -0.026  -2.249
   4   4.451   4.941  -0.490   0.526   1.103  -0.053  -2.066
   5   4.025   4.968  -0.943   0.762   0.782  -0.022  -2.465
   6   5.056   5.201  -0.145   0.042   1.120  -0.001  -1.306
   7   4.756   5.251  -0.495   0.586   1.095  -0.053  -2.122
   8   5.278   5.453  -0.175   0.033   1.096  -0.001  -1.302
   9   4.965   5.534  -0.569   0.584   1.026  -0.033  -2.146

(D)-timings
 V(i,a)*T(i,a) terms           ...  1005.406 sec
 U(i,j,a,b) 3-internal         ...    13.896 sec
 U(i,j,a,b) 3-external         ...   343.816 sec
 U(i,j,a,b) pair terms         ...   504.872 sec
 Total measured time           ...  4382.719 sec

 Time for (ab|v) I/O           ...   106.354 sec


------------------------------------
TD-DFT/TDA EXCITED STATES (SINGLETS)
------------------------------------

the weight of the individual excitations are printed if larger than 1.0e-02

STATE  1:  E=   0.100216 au      2.727 eV    21994.9 cm**-1 <S**2> =   0.000000
    72a ->  73a  :     0.954834 (c= -0.97715592)

STATE  2:  E=   0.135748 au      3.694 eV    29793.3 cm**-1 <S**2> =   0.000000
    71a ->  73a  :     0.865527 (c= -0.93033720)
    72a ->  76a  :     0.029009 (c= -0.17031936)
    72a ->  79a  :     0.047725 (c=  0.21845948)

STATE  3:  E=   0.134546 au      3.661 eV    29529.5 cm**-1 <S**2> =   0.000000
    70a ->  73a  :     0.858157 (c= -0.92636742)
    71a ->  74a  :     0.014142 (c=  0.11892062)
    72a ->  74a  :     0.087005 (c=  0.29496675)

STATE  4:  E=   0.149178 au      4.059 eV    32740.7 cm**-1 <S**2> =   0.000000
    70a ->  73a  :     0.071273 (c=  0.26697016)
    70a ->  76a  :     0.055253 (c=  0.23505888)
    72a ->  74a  :     0.808118 (c=  0.89895384)
    72a ->  76a  :     0.012007 (c=  0.10957564)

STATE  5:  E=   0.163559 au      4.451 eV    35897.0 cm**-1 <S**2> =   0.000000
    70a ->  74a  :     0.067653 (c= -0.26010227)
    70a ->  84a  :     0.016495 (c= -0.12843314)
    71a ->  73a  :     0.016998 (c=  0.13037522)
    71a ->  79a  :     0.013158 (c=  0.11470774)
    72a ->  76a  :     0.818516 (c= -0.90471851)

STATE  6:  E=   0.147915 au      4.025 eV    32463.5 cm**-1 <S**2> =   0.000000
    64a ->  73a  :     0.032582 (c=  0.18050586)
    68a ->  73a  :     0.879709 (c=  0.93792820)
    68a ->  76a  :     0.032673 (c=  0.18075651)

STATE  7:  E=   0.185799 au      5.056 eV    40778.1 cm**-1 <S**2> =   0.000000
    70a ->  75a  :     0.015920 (c=  0.12617506)
    72a ->  75a  :     0.283777 (c=  0.53270737)
    72a ->  77a  :     0.304251 (c=  0.55158963)
    72a ->  80a  :     0.266501 (c= -0.51623693)
    72a ->  81a  :     0.025760 (c= -0.16049820)
    72a ->  85a  :     0.039568 (c= -0.19891758)

STATE  8:  E=   0.174793 au      4.756 eV    38362.7 cm**-1 <S**2> =   0.000000
    69a ->  73a  :     0.023916 (c=  0.15464930)
    70a ->  74a  :     0.045855 (c=  0.21413728)
    70a ->  84a  :     0.033486 (c= -0.18299306)
    71a ->  73a  :     0.059136 (c=  0.24317920)
    71a ->  76a  :     0.014775 (c=  0.12155450)
    72a ->  79a  :     0.763051 (c=  0.87352766)

STATE  9:  E=   0.193947 au      5.278 eV    42566.4 cm**-1 <S**2> =   0.000000
    70a ->  75a  :     0.035645 (c=  0.18879818)
    70a ->  77a  :     0.052401 (c=  0.22891371)
    72a ->  75a  :     0.447006 (c=  0.66858535)
    72a ->  77a  :     0.347876 (c= -0.58981001)
    72a ->  83a  :     0.055551 (c=  0.23569187)
    72a ->  88a  :     0.012559 (c= -0.11206880)

STATE 10:  E=   0.182444 au      4.965 eV    40041.9 cm**-1 <S**2> =   0.000000
    67a ->  73a  :     0.012454 (c=  0.11159777)
    69a ->  73a  :     0.167799 (c=  0.40963219)
    70a ->  73a  :     0.022218 (c=  0.14905629)
    70a ->  74a  :     0.014901 (c=  0.12206852)
    70a ->  79a  :     0.100289 (c=  0.31668385)
    71a ->  74a  :     0.341134 (c=  0.58406650)
    72a ->  79a  :     0.013799 (c= -0.11746708)
    72a ->  84a  :     0.229278 (c= -0.47882931)
    72a ->  87a  :     0.012557 (c= -0.11205788)


-----------------------------
TD-DFT/TDA-EXCITATION SPECTRA
-----------------------------

Center of mass = (  0.0414, -0.1962,  0.1159)
Calculating the Dipole integrals                  ... done
Transforming integrals                            ... done
Calculating the Linear Momentum integrals         ... done
Transforming integrals                            ... done
Calculating angular momentum integrals            ... done
Transforming integrals                            ... done

-----------------------------------------------------------------------------
         ABSORPTION SPECTRUM VIA TRANSITION ELECTRIC DIPOLE MOMENTS
-----------------------------------------------------------------------------
State   Energy    Wavelength  fosc         T2        TX        TY        TZ  
        (cm-1)      (nm)                 (au**2)    (au)      (au)      (au) 
-----------------------------------------------------------------------------
   1   21994.9    454.7   0.596797037   8.93266  -2.81692   0.88916   0.45497
   2   29793.3    335.6   0.384919369   4.25331   1.71774   1.07049  -0.39587
   3   29529.5    338.6   0.001648358   0.01838  -0.08879   0.10235   0.00405
   4   32740.7    305.4   0.024159289   0.24292   0.44072   0.19799  -0.09742
   5   35897.0    278.6   0.415119641   3.80707  -1.68995  -0.90068   0.37406
   6   32463.5    308.0   0.000715665   0.00726  -0.03183  -0.01212  -0.07809
   7   40778.1    245.2   0.000015866   0.00013   0.01128   0.00094   0.00007
   8   38362.7    260.7   1.012872114   8.69203  -2.82701  -0.61006   0.57261
   9   42566.4    234.9   0.000083235   0.00064  -0.01308  -0.00383  -0.02140
  10   40041.9    249.7   0.055827521   0.45900   0.66245  -0.08179  -0.11606

-----------------------------------------------------------------------------
         ABSORPTION SPECTRUM VIA TRANSITION VELOCITY DIPOLE MOMENTS
-----------------------------------------------------------------------------
State   Energy    Wavelength   fosc        P2         PX        PY        PZ  
        (cm-1)      (nm)                 (au**2)     (au)      (au)      (au) 
-----------------------------------------------------------------------------
   1   21994.9    454.7   0.197791931   0.02973   0.15262   0.07290  -0.03356
   2   29793.3    335.6   0.147657463   0.03007  -0.17027  -0.00646   0.03215
   3   29529.5    338.6   0.004277935   0.00086   0.02133  -0.02007  -0.00234
   4   32740.7    305.4   0.008151697   0.00182  -0.04170   0.00573   0.00723
   5   35897.0    278.6   0.170661444   0.04187   0.20087  -0.01526  -0.03590
   6   32463.5    308.0   0.000854665   0.00019   0.00461   0.00115   0.01293
   7   40778.1    245.2   0.000088395   0.00002  -0.00064   0.00013   0.00492
   8   38362.7    260.7   0.576213272   0.15108   0.37944   0.04089  -0.07368
   9   42566.4    234.9   0.000055664   0.00002   0.00192   0.00026   0.00353
  10   40041.9    249.7   0.025702458   0.00703  -0.07799   0.02802   0.01294

-------------------------------------------------------------------
                             CD SPECTRUM
-------------------------------------------------------------------
State  Energy     Wavelength     R         MX        MY        MZ   
       (cm-1)       (nm)     (1e40*cgs)   (au)      (au)      (au)  
-------------------------------------------------------------------
   1   21994.9    454.7     -5.43484  -0.00010  -0.00363  -0.01888
   2   29793.3    335.6      1.60154  -0.00949  -0.00176  -0.05453
   3   29529.5    338.6      1.56970  -0.11537  -0.04333  -0.61290
   4   32740.7    305.4      0.28024  -0.07847  -0.02868  -0.41941
   5   35897.0    278.6      1.75697  -0.02020  -0.00796  -0.10047
   6   32463.5    308.0      1.91919  -0.20275  -0.07381   0.04196
   7   40778.1    245.2     -0.52217  -0.09721  -0.01337   0.01818
   8   38362.7    260.7     -1.80561   0.02949   0.00612   0.14544
   9   42566.4    234.9      0.06907  -0.01502   0.00738   0.00101
  10   40041.9    249.7      0.62598  -0.05809  -0.02246  -0.32715

-------------------------------------------------------------------
         CD SPECTRUM VIA TRANSITION VELOCITY DIPOLE MOMENTS        
-------------------------------------------------------------------
State  Energy     Wavelength     R         MX        MY        MZ   
       (cm-1)       (nm)     (1e40*cgs)   (au)      (au)      (au)  
-------------------------------------------------------------------
   1   21994.9    454.7      1.66263  -0.00010  -0.00363  -0.01888
   2   29793.3    335.6     -0.43463  -0.00949  -0.00176  -0.05453
   3   29529.5    338.6     -0.56047  -0.11537  -0.04333  -0.61290
   4   32740.7    305.4      0.23871  -0.07847  -0.02868  -0.41941
   5   35897.0    278.6     -0.95182  -0.02020  -0.00796  -0.10047
   6   32463.5    308.0     -1.51721  -0.20275  -0.07381   0.04196
   7   40778.1    245.2      0.37959  -0.09721  -0.01337   0.01818
   8   38362.7    260.7      1.95475   0.02949   0.00612   0.14544
   9   42566.4    234.9     -0.05678  -0.01502   0.00738   0.00101
  10   40041.9    249.7     -0.85669  -0.05809  -0.02246  -0.32715

Total run time:     9328.991 sec

           *** ORCA-CIS/TD-DFT FINISHED WITHOUT ERROR ***

Maximum memory used throughout the entire CIS-calculation: 1453.5 MB

-----------------------
CIS/TD-DFT TOTAL ENERGY
-----------------------

    E(SCF)  =   -941.432175350 Eh
    DE(CIS) =      0.100216023 Eh (Root  1)
    ----------------------------- ---------
    E(tot)  =   -941.331959327 Eh



-------------------------------------------------------------------------------
                          DFT DISPERSION CORRECTION                            
                                                                               
                              DFTD3 V3.1  Rev 1                                
                          USING Becke-Johnson damping                          
-------------------------------------------------------------------------------
The B2PLYP functional is recognized
Active option DFTDOPT                   ...         4   

molecular C6(AA) [au] = 13832.857567 


            DFT-D V3
 parameters
 s6 scaling factor         :     0.6400 
 a1 scaling factor         :     0.3065 
 s8 scaling factor         :     0.9147 
 a2 scaling factor         :     5.0570 
 ad hoc parameters k1-k3   :    16.0000     1.3333    -4.0000 

 Edisp/kcal,au: -21.859087775526  -0.034834669989 
 E6   /kcal   : -12.085251334 
 E8   /kcal   :  -9.773836441 
 % E8         :  44.712920053 

-------------------------   ----------------
Dispersion correction           -0.034834670
-------------------------   ----------------


-------------------------   --------------------
FINAL SINGLE POINT ENERGY      -941.366793997157
-------------------------   --------------------


                            ***************************************
                            *     ORCA property calculations      *
                            ***************************************


  WARNING: The energy has been calculated at the MP2 level but the densities
           used in the property calculations are still SCF densities
           MP2 response densities have not been calculated 
           use %mp2 Density relaxed end
           or  %mp2 Density unrelaxed end

                                    ---------------------
                                    Active property flags
                                    ---------------------
   (+) Dipole Moment


------------------------------------------------------------------------------
                       ORCA ELECTRIC PROPERTIES CALCULATION
------------------------------------------------------------------------------

Dipole Moment Calculation                       ... on
Quadrupole Moment Calculation                   ... off
Polarizability Calculation                      ... off
GBWName                                         ... optpbed3-b2plyp-test-600_job2.gbw
Electron density                                ... optpbed3-b2plyp-test-600_job2.scfp
The origin for moment calculation is the CENTER OF MASS  = ( 0.041440, -0.196209  0.115936)

-------------
DIPOLE MOMENT
-------------
                                X             Y             Z
Electronic contribution:      0.34218      -1.93865       0.14145
Nuclear contribution   :     -0.64166       3.02230      -0.18767
                        -----------------------------------------
Total Dipole Moment    :     -0.29948       1.08365      -0.04623
                        -----------------------------------------
Magnitude (a.u.)       :      1.12522
Magnitude (Debye)      :      2.86009



--------------------
Rotational spectrum 
--------------------
 
Rotational constants in cm-1:     0.026473     0.005951     0.004859 
Rotational constants in MHz :   793.639901   178.411971   145.667630 

 Dipole components along the rotational axes: 
x,y,z [a.u.] :    -0.217474    -1.103813    -0.020741 
x,y,z [Debye]:    -0.552774    -2.805670    -0.052719 

 

Timings for individual modules:

Sum of individual times         ...    11870.649 sec (= 197.844 min)
GTO integral calculation        ...        5.234 sec (=   0.087 min)   0.0 %
SCF iterations                  ...     1421.550 sec (=  23.693 min)  12.0 %
MP2 module                      ...     1113.652 sec (=  18.561 min)   9.4 %
CIS module                      ...     9330.213 sec (= 155.504 min)  78.6 %



                             ****ORCA TERMINATED NORMALLY****
TOTAL RUN TIME: 0 days 6 hours 27 minutes 32 seconds 937 msec
