
                                 *****************
                                 * O   R   C   A *
                                 *****************

                                            #,                                       
                                            ###                                      
                                            ####                                     
                                            #####                                    
                                            ######                                   
                                           ########,                                 
                                     ,,################,,,,,                         
                               ,,#################################,,                 
                          ,,##########################################,,             
                       ,#########################################, ''#####,          
                    ,#############################################,,   '####,        
                  ,##################################################,,,,####,       
                ,###########''''           ''''###############################       
              ,#####''   ,,,,##########,,,,          '''####'''          '####       
            ,##' ,,,,###########################,,,                        '##       
           ' ,,###''''                  '''############,,,                           
         ,,##''                                '''############,,,,        ,,,,,,###''
      ,#''                                            '''#######################'''  
     '                                                          ''''####''''         
             ,#######,   #######,   ,#######,      ##                                
            ,#'     '#,  ##    ##  ,#'     '#,    #''#        ######   ,####,        
            ##       ##  ##   ,#'  ##            #'  '#       #        #'  '#        
            ##       ##  #######   ##           ,######,      #####,   #    #        
            '#,     ,#'  ##    ##  '#,     ,#' ,#      #,         ##   #,  ,#        
             '#######'   ##     ##  '#######'  #'      '#     #####' # '####'        



                  #######################################################
                  #                        -***-                        #
                  #          Department of theory and spectroscopy      #
                  #    Directorship and core code : Frank Neese         #
                  #        Max Planck Institute fuer Kohlenforschung    #
                  #                Kaiser Wilhelm Platz 1               #
                  #                 D-45470 Muelheim/Ruhr               #
                  #                      Germany                        #
                  #                                                     #
                  #                  All rights reserved                #
                  #                        -***-                        #
                  #######################################################


                         Program Version 5.0.2 -  RELEASE  -


 With contributions from (in alphabetic order):
   Daniel Aravena         : Magnetic Suceptibility
   Michael Atanasov       : Ab Initio Ligand Field Theory (pilot matlab implementation)
   Alexander A. Auer      : GIAO ZORA, VPT2 properties, NMR spectrum
   Ute Becker             : Parallelization
   Giovanni Bistoni       : ED, misc. LED, open-shell LED, HFLD
   Martin Brehm           : Molecular dynamics
   Dmytro Bykov           : SCF Hessian
   Vijay G. Chilkuri      : MRCI spin determinant printing, contributions to CSF-ICE
   Dipayan Datta          : RHF DLPNO-CCSD density
   Achintya Kumar Dutta   : EOM-CC, STEOM-CC
   Dmitry Ganyushin       : Spin-Orbit,Spin-Spin,Magnetic field MRCI
   Miquel Garcia          : C-PCM and meta-GGA Hessian, CC/C-PCM, Gaussian charge scheme
   Yang Guo               : DLPNO-NEVPT2, F12-NEVPT2, CIM, IAO-localization
   Andreas Hansen         : Spin unrestricted coupled pair/coupled cluster methods
   Benjamin Helmich-Paris : MC-RPA, TRAH-SCF, COSX integrals
   Lee Huntington         : MR-EOM, pCC
   Robert Izsak           : Overlap fitted RIJCOSX, COSX-SCS-MP3, EOM
   Marcus Kettner         : VPT2
   Christian Kollmar      : KDIIS, OOCD, Brueckner-CCSD(T), CCSD density, CASPT2, CASPT2-K
   Simone Kossmann        : Meta GGA functionals, TD-DFT gradient, OOMP2, MP2 Hessian
   Martin Krupicka        : Initial AUTO-CI
   Lucas Lang             : DCDCAS
   Marvin Lechner         : AUTO-CI (C++ implementation), FIC-MRCC
   Dagmar Lenk            : GEPOL surface, SMD
   Dimitrios Liakos       : Extrapolation schemes; Compound Job, initial MDCI parallelization
   Dimitrios Manganas     : Further ROCIS development; embedding schemes
   Dimitrios Pantazis     : SARC Basis sets
   Anastasios Papadopoulos: AUTO-CI, single reference methods and gradients
   Taras Petrenko         : DFT Hessian,TD-DFT gradient, ASA, ECA, R-Raman, ABS, FL, XAS/XES, NRVS
   Peter Pinski           : DLPNO-MP2, DLPNO-MP2 Gradient
   Christoph Reimann      : Effective Core Potentials
   Marius Retegan         : Local ZFS, SOC
   Christoph Riplinger    : Optimizer, TS searches, QM/MM, DLPNO-CCSD(T), (RO)-DLPNO pert. Triples
   Tobias Risthaus        : Range-separated hybrids, TD-DFT gradient, RPA, STAB
   Michael Roemelt        : Original ROCIS implementation
   Masaaki Saitow         : Open-shell DLPNO-CCSD energy and density
   Barbara Sandhoefer     : DKH picture change effects
   Avijit Sen             : IP-ROCIS
   Kantharuban Sivalingam : CASSCF convergence, NEVPT2, FIC-MRCI
   Bernardo de Souza      : ESD, SOC TD-DFT
   Georgi Stoychev        : AutoAux, RI-MP2 NMR, DLPNO-MP2 response
   Willem Van den Heuvel  : Paramagnetic NMR
   Boris Wezisla          : Elementary symmetry handling
   Frank Wennmohs         : Technical directorship


 We gratefully acknowledge several colleagues who have allowed us to
 interface, adapt or use parts of their codes:
   Stefan Grimme, W. Hujo, H. Kruse, P. Pracht,  : VdW corrections, initial TS optimization,
                  C. Bannwarth, S. Ehlert          DFT functionals, gCP, sTDA/sTD-DF
   Ed Valeev, F. Pavosevic, A. Kumar             : LibInt (2-el integral package), F12 methods
   Garnet Chan, S. Sharma, J. Yang, R. Olivares  : DMRG
   Ulf Ekstrom                                   : XCFun DFT Library
   Mihaly Kallay                                 : mrcc  (arbitrary order and MRCC methods)
   Jiri Pittner, Ondrej Demel                    : Mk-CCSD
   Frank Weinhold                                : gennbo (NPA and NBO analysis)
   Christopher J. Cramer and Donald G. Truhlar   : smd solvation model
   Lars Goerigk                                  : TD-DFT with DH, B97 family of functionals
   V. Asgeirsson, H. Jonsson                     : NEB implementation
   FAccTs GmbH                                   : IRC, NEB, NEB-TS, DLPNO-Multilevel, CI-OPT
                                                   MM, QMMM, 2- and 3-layer-ONIOM, Crystal-QMMM,
                                                   LR-CPCM, SF, NACMEs, symmetry and pop. for TD-DFT,
                                                   nearIR, NL-DFT gradient (VV10), updates on ESD,
                                                   ML-optimized integration grids
   S Lehtola, MJT Oliveira, MAL Marques          : LibXC Library
   Liviu Ungur et al                             : ANISO software


 Your calculation uses the libint2 library for the computation of 2-el integrals
 For citations please refer to: http://libint.valeyev.net

 Your ORCA version has been built with support for libXC version: 5.1.0
 For citations please refer to: https://tddft.org/programs/libxc/

 This ORCA versions uses:
   CBLAS   interface :  Fast vector & matrix operations
   LAPACKE interface :  Fast linear algebra routines
   SCALAPACK package :  Parallel linear algebra routines
   Shared memory     :  Shared parallel matrices
   BLAS/LAPACK       :  OpenBLAS 0.3.15  USE64BITINT DYNAMIC_ARCH NO_AFFINITY Haswell SINGLE_THREADED
        Core in use  :  Haswell
   Copyright (c) 2011-2014, The OpenBLAS Project


Your calculation utilizes the atom-pairwise dispersion correction
with the Becke-Johnson damping scheme (D3BJ)
Cite in your paper:
S.Grimme, S.Ehrlich, L.Goerigk, J Comput Chem, (2011), 32, 1456–1465 
S.Grimme, J.Antony, S.Ehrlich and H.Krieg, J.Chem.Phys., 132, (2010), 154104 
   

Your calculation utilizes the SMD solvation module
Please cite in your paper:
A.V. Marenich, C.J. Cramer, D.G. Truhlar J. Phys. Chem. B, 113, (2009), 6378 

================================================================================

----- Orbital basis set information -----
Your calculation utilizes the basis: aug-cc-pVTZ 
    H, B-Ne : Obtained from the ccRepo (grant-hill.group.shef.ac.uk/ccrepo) Feb. 2017
              R. A. Kendall, T. H. Dunning, Jr., R. J. Harrison, J. Chem. Phys. 96, 6796 (1992)
         He : Obtained from the ccRepo (grant-hill.group.shef.ac.uk/ccrepo) Feb. 2017
              D. E. Woon, T. H. Dunning, Jr., J. Chem. Phys. 100, 2975 (1994)
  Li-Be, Na : Obtained from the ccRepo (grant-hill.group.shef.ac.uk/ccrepo) Feb. 2017
              B. P. Prascher, D. E. Woon, K. A. Peterson, T. H. Dunning, Jr., A. K. Wilson, Theor. Chem. Acc. 128, 69 (2011)
         Mg : Obtained from the Peterson Research Group Website (tyr0.chem.wsu.edu/~kipeters) Feb. 2017
              B. P. Prascher, D. E. Woon, K. A. Peterson, T. H. Dunning, Jr., A. K. Wilson, Theor. Chem. Acc. 128, 69 (2011)
      Al-Ar : Obtained from the ccRepo (grant-hill.group.shef.ac.uk/ccrepo) Feb. 2017
              D. E. Woon, T. H. Dunning, Jr., J. Chem. Phys. 98, 1358 (1993)
      Sc-Zn : Obtained from the ccRepo (grant-hill.group.shef.ac.uk/ccrepo) Feb. 2017
              N. B. Balabanov, K. A. Peterson, J. Chem. Phys. 123, 064107 (2005)
              N. B. Balabanov, K. A. Peterson, J. Chem. Phys. 125, 074110 (2006)
      Ga-Kr : Obtained from the ccRepo (grant-hill.group.shef.ac.uk/ccrepo) Feb. 2017
              A. K. Wilson, D. E. Woon, K. A. Peterson, T. H. Dunning, Jr., J. Chem. Phys. 110, 7667 (1999)
     Ag, Au : Obtained from the Peterson Research Group Website (tyr0.chem.wsu.edu/~kipeters) Feb. 2017
              K. A. Peterson, C. Puzzarini, Theor. Chem. Acc. 114, 283 (2005)

The basis set includes element-specific modifications.

Your calculation utilizes the basis: cc-pVTZ 
       H, B-Ne : Obtained from the ccRepo (grant-hill.group.shef.ac.uk/ccrepo) Feb. 2017
                 T. H. Dunning, Jr., J. Chem. Phys. 90, 1007 (1989)
            He : Obtained from the ccRepo (grant-hill.group.shef.ac.uk/ccrepo) Feb. 2017
                 D. E. Woon, T. H. Dunning, Jr., J. Chem. Phys. 100, 2975 (1994)
  Li-Be, Na-Mg : Obtained from the ccRepo (grant-hill.group.shef.ac.uk/ccrepo) Feb. 2017
                 B. P. Prascher, D. E. Woon, K. A. Peterson, T. H. Dunning, Jr., A. K. Wilson, Theor. Chem. Acc. 128, 69 (2011)
         Al-Ar : Obtained from the ccRepo (grant-hill.group.shef.ac.uk/ccrepo) Feb. 2017
                 D. E. Woon, T. H. Dunning, Jr., J. Chem. Phys. 98, 1358 (1993)
            Ca : Obtained from the Peterson Research Group Website (tyr0.chem.wsu.edu/~kipeters) Feb. 2017
                 J. Koput, K. A. Peterson, J. Phys. Chem. 106, 9595 (2002)
         Sc-Zn : Obtained from the ccRepo (grant-hill.group.shef.ac.uk/ccrepo) Feb. 2017
                 N. B. Balabanov, K. A. Peterson, J. Chem. Phys. 123, 064107 (2005)
                 N. B. Balabanov, K. A. Peterson, J. Chem. Phys. 125, 074110 (2006)
         Ga-Kr : Obtained from the ccRepo (grant-hill.group.shef.ac.uk/ccrepo) Feb. 2017
                 A. K. Wilson, D. E. Woon, K. A. Peterson, T. H. Dunning, Jr., J. Chem. Phys. 110, 7667 (1999)
             Y : Obtained from the ccRepo (grant-hill.group.shef.ac.uk/ccrepo) Feb. 2017
                 K. A. Peterson, D. Figgen, M. Dolg, H. Stoll, J. Chem. Phys. 126, 124101 (2007)
        Ag, Au : Obtained from the Peterson Research Group Website (tyr0.chem.wsu.edu/~kipeters) Feb. 2017
                 K. A. Peterson, C. Puzzarini, Theor. Chem. Acc. 114, 283 (2005)

----- AuxJ basis set information -----
Your calculation utilizes the auxiliary basis: aug-cc-pVTZ/JK 
  H, B-F, Al-Cl, Ga-Br : Obtained from the TURBOMOLE 7.0 basis set library

The basis set includes element-specific modifications.

Your calculation utilizes the auxiliary basis: cc-pVTZ/JK 
  H, B-F, Al-Cl, Ga-Br : Obtained from the TURBOMOLE 7.0 basis set library

----- AuxC basis set information -----
Your calculation utilizes the auxiliary basis: aug-cc-pVTZ/C 
  H-He, B-F, Al-Ar, Ga-Kr : Obtained from the EMSL Basis Set Exchange (bse.pnl.gov) Feb. 2017
                            F. Weigend, A. Kohn, C. Hattig, J. Chem. Phys. 116, 3175 (2002)
                   Be, Mg : Obtained from the TURBOMOLE 7.0 basis set library
                            C. Haettig, Phys. Chem. Chem. Phys. 7, 59 (2005)
                       Ne : Obtained from the EMSL Basis Set Exchange (bse.pnl.gov) Feb. 2017
                            C. Haettig, Phys. Chem. Chem. Phys. 7, 59 (2005)
                            F. Weigend, A. Kohn, C. Hattig, J. Chem. Phys. 116, 3175 (2002)
                    Sc-Zn : Obtained from the EMSL Basis Set Exchange (bse.pnl.gov) Feb. 2017
                            J. G. Hill, J. A. Platts, J. Chem. Phys. 128, 044104 (2008)

The basis set includes element-specific modifications.

Your calculation utilizes the auxiliary basis: cc-pVTZ/C 
  Obtained from the EMSL Basis Set Exchange (bse.pnl.gov) Feb. 2017
  H-He, B-F, Al-Ar, Ga-Kr : F. Weigend, A. Kohn, C. Hattig, J. Chem. Phys. 116, 3175 (2002)
             Li-Be, Na-Mg : C. Haettig, Phys. Chem. Chem. Phys. 7, 59 (2005)
                       Ne : C. Haettig, Phys. Chem. Chem. Phys. 7, 59 (2005)
                            F. Weigend, A. Kohn, C. Hattig, J. Chem. Phys. 116, 3175 (2002)
                    Sc-Zn : J. G. Hill, J. A. Platts, J. Chem. Phys. 128, 044104 (2008)

================================================================================
                                        WARNINGS
                       Please study these warnings very carefully!
================================================================================


WARNING: Geometry Optimization
  ===> : Switching off AutoStart
         For restart on a previous wavefunction, please use MOREAD

INFO   : the flag for use of the SHARK integral package has been found!



***************************************
The coordinates will be read from file: 
***************************************


Your calculation utilizes the atom-pairwise dispersion correction
with the Becke-Johnson damping scheme (D3BJ)
Cite in your paper:
S.Grimme, S.Ehrlich, L.Goerigk, J Comput Chem, (2011), 32, 1456–1465 
S.Grimme, J.Antony, S.Ehrlich and H.Krieg, J.Chem.Phys., 132, (2010), 154104 
   

Your calculation utilizes the SMD solvation module
Please cite in your paper:
A.V. Marenich, C.J. Cramer, D.G. Truhlar J. Phys. Chem. B, 113, (2009), 6378 

================================================================================

----- Orbital basis set information -----
Your calculation utilizes the basis: aug-cc-pVTZ 
    H, B-Ne : Obtained from the ccRepo (grant-hill.group.shef.ac.uk/ccrepo) Feb. 2017
              R. A. Kendall, T. H. Dunning, Jr., R. J. Harrison, J. Chem. Phys. 96, 6796 (1992)
         He : Obtained from the ccRepo (grant-hill.group.shef.ac.uk/ccrepo) Feb. 2017
              D. E. Woon, T. H. Dunning, Jr., J. Chem. Phys. 100, 2975 (1994)
  Li-Be, Na : Obtained from the ccRepo (grant-hill.group.shef.ac.uk/ccrepo) Feb. 2017
              B. P. Prascher, D. E. Woon, K. A. Peterson, T. H. Dunning, Jr., A. K. Wilson, Theor. Chem. Acc. 128, 69 (2011)
         Mg : Obtained from the Peterson Research Group Website (tyr0.chem.wsu.edu/~kipeters) Feb. 2017
              B. P. Prascher, D. E. Woon, K. A. Peterson, T. H. Dunning, Jr., A. K. Wilson, Theor. Chem. Acc. 128, 69 (2011)
      Al-Ar : Obtained from the ccRepo (grant-hill.group.shef.ac.uk/ccrepo) Feb. 2017
              D. E. Woon, T. H. Dunning, Jr., J. Chem. Phys. 98, 1358 (1993)
      Sc-Zn : Obtained from the ccRepo (grant-hill.group.shef.ac.uk/ccrepo) Feb. 2017
              N. B. Balabanov, K. A. Peterson, J. Chem. Phys. 123, 064107 (2005)
              N. B. Balabanov, K. A. Peterson, J. Chem. Phys. 125, 074110 (2006)
      Ga-Kr : Obtained from the ccRepo (grant-hill.group.shef.ac.uk/ccrepo) Feb. 2017
              A. K. Wilson, D. E. Woon, K. A. Peterson, T. H. Dunning, Jr., J. Chem. Phys. 110, 7667 (1999)
     Ag, Au : Obtained from the Peterson Research Group Website (tyr0.chem.wsu.edu/~kipeters) Feb. 2017
              K. A. Peterson, C. Puzzarini, Theor. Chem. Acc. 114, 283 (2005)

The basis set includes element-specific modifications.

Your calculation utilizes the basis: cc-pVTZ 
       H, B-Ne : Obtained from the ccRepo (grant-hill.group.shef.ac.uk/ccrepo) Feb. 2017
                 T. H. Dunning, Jr., J. Chem. Phys. 90, 1007 (1989)
            He : Obtained from the ccRepo (grant-hill.group.shef.ac.uk/ccrepo) Feb. 2017
                 D. E. Woon, T. H. Dunning, Jr., J. Chem. Phys. 100, 2975 (1994)
  Li-Be, Na-Mg : Obtained from the ccRepo (grant-hill.group.shef.ac.uk/ccrepo) Feb. 2017
                 B. P. Prascher, D. E. Woon, K. A. Peterson, T. H. Dunning, Jr., A. K. Wilson, Theor. Chem. Acc. 128, 69 (2011)
         Al-Ar : Obtained from the ccRepo (grant-hill.group.shef.ac.uk/ccrepo) Feb. 2017
                 D. E. Woon, T. H. Dunning, Jr., J. Chem. Phys. 98, 1358 (1993)
            Ca : Obtained from the Peterson Research Group Website (tyr0.chem.wsu.edu/~kipeters) Feb. 2017
                 J. Koput, K. A. Peterson, J. Phys. Chem. 106, 9595 (2002)
         Sc-Zn : Obtained from the ccRepo (grant-hill.group.shef.ac.uk/ccrepo) Feb. 2017
                 N. B. Balabanov, K. A. Peterson, J. Chem. Phys. 123, 064107 (2005)
                 N. B. Balabanov, K. A. Peterson, J. Chem. Phys. 125, 074110 (2006)
         Ga-Kr : Obtained from the ccRepo (grant-hill.group.shef.ac.uk/ccrepo) Feb. 2017
                 A. K. Wilson, D. E. Woon, K. A. Peterson, T. H. Dunning, Jr., J. Chem. Phys. 110, 7667 (1999)
             Y : Obtained from the ccRepo (grant-hill.group.shef.ac.uk/ccrepo) Feb. 2017
                 K. A. Peterson, D. Figgen, M. Dolg, H. Stoll, J. Chem. Phys. 126, 124101 (2007)
        Ag, Au : Obtained from the Peterson Research Group Website (tyr0.chem.wsu.edu/~kipeters) Feb. 2017
                 K. A. Peterson, C. Puzzarini, Theor. Chem. Acc. 114, 283 (2005)

----- AuxJ basis set information -----
Your calculation utilizes the auxiliary basis: aug-cc-pVTZ/JK 
  H, B-F, Al-Cl, Ga-Br : Obtained from the TURBOMOLE 7.0 basis set library

The basis set includes element-specific modifications.

Your calculation utilizes the auxiliary basis: cc-pVTZ/JK 
  H, B-F, Al-Cl, Ga-Br : Obtained from the TURBOMOLE 7.0 basis set library

----- AuxC basis set information -----
Your calculation utilizes the auxiliary basis: aug-cc-pVTZ/C 
  H-He, B-F, Al-Ar, Ga-Kr : Obtained from the EMSL Basis Set Exchange (bse.pnl.gov) Feb. 2017
                            F. Weigend, A. Kohn, C. Hattig, J. Chem. Phys. 116, 3175 (2002)
                   Be, Mg : Obtained from the TURBOMOLE 7.0 basis set library
                            C. Haettig, Phys. Chem. Chem. Phys. 7, 59 (2005)
                       Ne : Obtained from the EMSL Basis Set Exchange (bse.pnl.gov) Feb. 2017
                            C. Haettig, Phys. Chem. Chem. Phys. 7, 59 (2005)
                            F. Weigend, A. Kohn, C. Hattig, J. Chem. Phys. 116, 3175 (2002)
                    Sc-Zn : Obtained from the EMSL Basis Set Exchange (bse.pnl.gov) Feb. 2017
                            J. G. Hill, J. A. Platts, J. Chem. Phys. 128, 044104 (2008)

The basis set includes element-specific modifications.

Your calculation utilizes the auxiliary basis: cc-pVTZ/C 
  Obtained from the EMSL Basis Set Exchange (bse.pnl.gov) Feb. 2017
  H-He, B-F, Al-Ar, Ga-Kr : F. Weigend, A. Kohn, C. Hattig, J. Chem. Phys. 116, 3175 (2002)
             Li-Be, Na-Mg : C. Haettig, Phys. Chem. Chem. Phys. 7, 59 (2005)
                       Ne : C. Haettig, Phys. Chem. Chem. Phys. 7, 59 (2005)
                            F. Weigend, A. Kohn, C. Hattig, J. Chem. Phys. 116, 3175 (2002)
                    Sc-Zn : J. G. Hill, J. A. Platts, J. Chem. Phys. 128, 044104 (2008)

================================================================================
                                        WARNINGS
                       Please study these warnings very carefully!
================================================================================

INFO   : Checking CIS options ...
  ===> : (D) CORRECTION FOUND - SETTING MODE=3
  ===> : JK MODE FOUND - ACTIVATING RI-MP2 CODE
  ===> : MP2 AND CIS FOUND - CHECKING
WARNING: CIS(D) and MP2 runs must have the same orbital window
  ===> : adjusting orbital windows

WARNING: No MP2 level density has been requested!
         To caclulate MP2 level properties use
         %mp2 Density relaxed end
         or
         %mp2 Density unrelaxed end
         Otherwise for double-hybrid DFT only the energy is correct!

WARNING: The frozen-core approximation is turned on by default for 
         the MP2 part of double-hybrid DFT.

INFO   : the flag for use of the SHARK integral package has been found!

================================================================================
                                       INPUT FILE
================================================================================
NAME = optpbed3-b2plyp-test-110.inp
|  1> ! pbe0 d3bj aug-cc-PVTZ RIJCOSX Opt
|  2> %maxcore 4000
|  3> %basis
|  4>  AuxJ "aug-cc-PVTZ/JK"
|  5>  AuxC "aug-cc-PVTZ/C"
|  6>  newGTO H "cc-PVTZ" end
|  7>  newAuxJGTO H "cc-PVTZ/JK" end
|  8>  newAuxCGTO H "cc-PVTZ/C" end
|  9> end
| 10> %cpcm
| 11>  SMD true
| 12>  SMDsolvent "toluene"
| 13> end
| 14> %pal nprocs 4 end
| 15> * xyz 0 1
| 16> C         -6.70870       -0.07630       -1.74210
| 17> C         -6.27140       -1.05990       -0.65370
| 18> N         -5.34730       -0.49860        0.30510
| 19> C         -5.91510        0.20380        1.43620
| 20> C         -5.85730        1.72640        1.29670
| 21> C         -3.99960       -0.46950        0.06320
| 22> C         -3.45020       -0.91230       -1.15330
| 23> C         -2.09440       -0.91310       -1.37830
| 24> C         -1.19100       -0.46850       -0.40740
| 25> C          0.22980       -0.46430       -0.63650
| 26> C          0.93180       -0.84940       -1.75770
| 27> C          2.31570       -0.71510       -1.63320
| 28> C          2.70720       -0.22390       -0.41070
| 29> C          4.05290        0.02520        0.02520
| 30> N          5.02640       -0.21630       -0.79200
| 31> C          6.30230        0.02200       -0.36940
| 32> C          7.36230       -0.23610       -1.24930
| 33> C          8.65940       -0.00770       -0.85420
| 34> C          8.94120        0.48160        0.42130
| 35> C          7.91470        0.74230        1.30060
| 36> C          6.59220        0.51740        0.91810
| 37> C          5.49240        0.78990        1.83870
| 38> O          5.58650        1.21610        2.97100
| 39> N          4.24770        0.50970        1.29420
| 40> S          1.32450        0.07750        0.60170
| 41> C         -1.73260       -0.02410        0.80270
| 42> C         -3.08610       -0.01860        1.03330
| 43> H         -7.32090       -0.58920       -2.47950
| 44> H         -7.29400        0.73350       -1.31450
| 45> H         -5.84290        0.35130       -2.24110
| 46> H         -7.15450       -1.40460       -0.10740
| 47> H         -5.81450       -1.94150       -1.11010
| 48> H         -6.95770       -0.10680        1.53210
| 49> H         -5.40240       -0.10280        2.35370
| 50> H         -4.83230        2.06080        1.16130
| 51> H         -6.26250        2.19370        2.19070
| 52> H         -6.43840        2.05620        0.43990
| 53> H         -4.08790       -1.25640       -1.95050
| 54> H         -1.72930       -1.26140       -2.33210
| 55> H          0.45880       -1.21920       -2.64900
| 56> H          3.02940       -0.96250       -2.39690
| 57> H          7.12890       -0.61420       -2.23200
| 58> H          9.47150       -0.20890       -1.53790
| 59> H          9.96540        0.65490        0.71570
| 60> H          8.10090        1.12160        2.29420
| 61> H          3.44620        0.68050        1.89130
| 62> H         -1.06630        0.32550        1.57910
| 63> H         -3.43050        0.33140        1.99180
| 64> *
| 65> 
| 66> 
| 67> $new_job
| 68> ! b2plyp aug-cc-PVTZ RIJCOSX SP
| 69> %maxcore 4000
| 70> %basis
| 71>  AuxJ "aug-cc-PVTZ/JK"
| 72>  AuxC "aug-cc-PVTZ/C"
| 73>  newGTO H "cc-PVTZ" end
| 74>  newAuxJGTO H "cc-PVTZ/JK" end
| 75>  newAuxCGTO H "cc-PVTZ/C" end
| 76> end
| 77> %cpcm
| 78>  SMD true
| 79>  SMDsolvent "toluene"
| 80> end
| 81> %pal nprocs 4 end
| 82> %tddft
| 83>  nroots 10
| 84>  maxdim 7
| 85> end
| 86> * xyzfile 0 1
| 87> 
| 88>                          ****END OF INPUT****
================================================================================


                 $$$$$$$$$$$$$$$$$$$$$$$$$$$$$$$$$$$$$$$$$$$$$$ 
                 $ THERE ARE  2 JOBS TO BE PROCESSED THIS RUN $
                 $$$$$$$$$$$$$$$$$$$$$$$$$$$$$$$$$$$$$$$$$$$$$$ 




                 $$$$$$$$$$$$$$$$  JOB NUMBER  1 $$$$$$$$$$$$$$


                       *****************************
                       * Geometry Optimization Run *
                       *****************************

Geometry optimization settings:
Update method            Update   .... BFGS
Choice of coordinates    CoordSys .... Z-matrix Internals
Initial Hessian          InHess   .... Almoef's Model

Convergence Tolerances:
Energy Change            TolE     ....  5.0000e-06 Eh
Max. Gradient            TolMAXG  ....  3.0000e-04 Eh/bohr
RMS Gradient             TolRMSG  ....  1.0000e-04 Eh/bohr
Max. Displacement        TolMAXD  ....  4.0000e-03 bohr
RMS Displacement         TolRMSD  ....  2.0000e-03 bohr
Strict Convergence                ....  False
------------------------------------------------------------------------------
                        ORCA OPTIMIZATION COORDINATE SETUP
------------------------------------------------------------------------------

The optimization will be done in new redundant internal coordinates
Making redundant internal coordinates   ...  (new redundants) done
Evaluating the initial hessian          ...  (Almloef) done
Evaluating the coordinates              ...  done
Calculating the B-matrix                .... done
Calculating the G-matrix                .... done
Diagonalizing the G-matrix              .... done
Small eigenvalue found = 1.219e-03
Small eigenvalue found = 4.488e-03
Small eigenvalue found = 6.501e-03
Small eigenvalue found = 1.066e-02
Small eigenvalue found = 1.160e-02
Small eigenvalue found = 1.826e-02
Small eigenvalue found = 2.437e-02
The first mode is                       ....  121
The number of degrees of freedom        ....  138

    -----------------------------------------------------------------
                    Redundant Internal Coordinates


    -----------------------------------------------------------------
         Definition                    Initial Value    Approx d2E/dq
    -----------------------------------------------------------------
      1. B(C   1,C   0)                  1.5308         0.372494   
      2. B(N   2,C   1)                  1.4451         0.457052   
      3. B(C   3,N   2)                  1.4475         0.453103   
      4. B(C   4,C   3)                  1.5301         0.373480   
      5. B(C   5,N   2)                  1.3695         0.603264   
      6. B(C   6,C   5)                  1.4063         0.588401   
      7. B(C   7,C   6)                  1.3743         0.661787   
      8. B(C   8,C   7)                  1.3987         0.605075   
      9. B(C   9,C   8)                  1.4392         0.521566   
     10. B(C  10,C   9)                  1.3778         0.653555   
     11. B(C  11,C  10)                  1.3960         0.611256   
     12. B(C  12,C  11)                  1.3744         0.661577   
     13. B(C  13,C  12)                  1.4363         0.527065   
     14. B(N  14,C  13)                  1.2938         0.796901   
     15. B(C  15,N  14)                  1.3650         0.613364   
     16. B(C  16,C  15)                  1.4016         0.598764   
     17. B(C  17,C  16)                  1.3750         0.660091   
     18. B(C  18,C  17)                  1.3949         0.613666   
     19. B(C  19,C  18)                  1.3765         0.656491   
     20. B(C  20,C  19)                  1.3950         0.613532   
     21. B(C  20,C  15)                  1.4097         0.581279   
     22. B(C  21,C  20)                  1.4599         0.483293   
     23. B(O  22,C  21)                  1.2135         1.070176   
     24. B(N  23,C  21)                  1.3872         0.565423   
     25. B(N  23,C  13)                  1.3722         0.597320   
     26. B(S  24,C  12)                  1.7400         0.465670   
     27. B(S  24,C   9)                  1.7393         0.466951   
     28. B(C  25,C   8)                  1.3983         0.606096   
     29. B(C  26,C  25)                  1.3730         0.665025   
     30. B(C  26,C   5)                  1.4067         0.587555   
     31. B(H  27,C   0)                  1.0870         0.364063   
     32. B(H  28,C   0)                  1.0868         0.364321   
     33. B(H  29,C   0)                  1.0869         0.364162   
     34. B(H  30,C   1)                  1.0941         0.354674   
     35. B(H  31,C   1)                  1.0928         0.356376   
     36. B(H  32,C   3)                  1.0921         0.357332   
     37. B(H  33,C   3)                  1.0948         0.353756   
     38. B(H  34,C   4)                  1.0866         0.364575   
     39. B(H  35,C   4)                  1.0871         0.363953   
     40. B(H  36,C   4)                  1.0865         0.364717   
     41. B(H  37,C   6)                  1.0773         0.377287   
     42. B(H  38,C   7)                  1.0790         0.374883   
     43. B(H  39,C  10)                  1.0747         0.380974   
     44. B(H  40,C  11)                  1.0742         0.381681   
     45. B(H  41,C  16)                  1.0785         0.375657   
     46. B(H  42,C  17)                  1.0805         0.372919   
     47. B(H  43,C  18)                  1.0797         0.374026   
     48. B(H  44,C  19)                  1.0797         0.373969   
     49. B(H  45,N  23)                  1.0140         0.426468   
     50. B(H  46,C  25)                  1.0812         0.371945   
     51. B(H  47,C  26)                  1.0770         0.377776   
     52. A(C   1,C   0,H  27)          109.8788         0.324748   
     53. A(H  27,C   0,H  29)          108.8322         0.291854   
     54. A(C   1,C   0,H  29)          110.5875         0.324762   
     55. A(H  27,C   0,H  28)          108.3708         0.291875   
     56. A(H  28,C   0,H  29)          108.4496         0.291887   
     57. A(C   1,C   0,H  28)          110.6630         0.324786   
     58. A(C   0,C   1,N   2)          113.8813         0.373615   
     59. A(N   2,C   1,H  30)          107.8920         0.332445   
     60. A(N   2,C   1,H  31)          108.8490         0.332709   
     61. A(C   0,C   1,H  31)          109.9284         0.323612   
     62. A(C   0,C   1,H  30)          109.0785         0.323358   
     63. A(H  30,C   1,H  31)          106.9671         0.289674   
     64. A(C   1,N   2,C   3)          117.1362         0.384071   
     65. A(C   3,N   2,C   5)          120.9124         0.403202   
     66. A(C   1,N   2,C   5)          121.3546         0.403820   
     67. A(C   4,C   3,H  32)          109.0921         0.323895   
     68. A(N   2,C   3,H  32)          107.7642         0.332378   
     69. A(N   2,C   3,H  33)          109.5890         0.331824   
     70. A(H  32,C   3,H  33)          107.0873         0.289678   
     71. A(N   2,C   3,C   4)          113.3802         0.373227   
     72. A(C   4,C   3,H  33)          109.7179         0.323361   
     73. A(C   3,C   4,H  36)          110.7165         0.324985   
     74. A(H  34,C   4,H  36)          108.2290         0.291989   
     75. A(C   3,C   4,H  34)          110.6850         0.324964   
     76. A(H  34,C   4,H  35)          108.7705         0.291893   
     77. A(C   3,C   4,H  35)          109.7978         0.324873   
     78. A(H  35,C   4,H  36)          108.5824         0.291911   
     79. A(N   2,C   5,C   6)          122.0408         0.425110   
     80. A(C   6,C   5,C  26)          116.3441         0.425881   
     81. A(N   2,C   5,C  26)          121.6027         0.425001   
     82. A(C   5,C   6,C   7)          121.8156         0.435076   
     83. A(C   7,C   6,H  37)          117.5562         0.359675   
     84. A(C   5,C   6,H  37)          120.6255         0.352569   
     85. A(C   6,C   7,C   8)          121.5561         0.437272   
     86. A(C   8,C   7,H  38)          119.8431         0.353858   
     87. A(C   6,C   7,H  38)          118.5998         0.359284   
     88. A(C   9,C   8,C  25)          121.2809         0.419125   
     89. A(C   7,C   8,C   9)          121.8746         0.418999   
     90. A(C   7,C   8,C  25)          116.8445         0.430411   
     91. A(C   8,C   9,C  10)          129.1800         0.424807   
     92. A(C  10,C   9,S  24)          110.2257         0.439496   
     93. A(C   8,C   9,S  24)          120.5942         0.422049   
     94. A(C   9,C  10,C  11)          113.9321         0.437086   
     95. A(C  11,C  10,H  39)          122.9160         0.355438   
     96. A(C   9,C  10,H  39)          123.1519         0.359504   
     97. A(C  12,C  11,H  40)          121.6978         0.360366   
     98. A(C  10,C  11,C  12)          113.3342         0.438049   
     99. A(C  10,C  11,H  40)          124.9680         0.355550   
    100. A(C  11,C  12,C  13)          126.7839         0.426535   
    101. A(C  13,C  12,S  24)          122.5408         0.422633   
    102. A(C  11,C  12,S  24)          110.6753         0.440246   
    103. A(C  12,C  13,N  14)          118.7454         0.438160   
    104. A(N  14,C  13,N  23)          122.9024         0.445234   
    105. A(C  12,C  13,N  23)          118.3522         0.416105   
    106. A(C  13,N  14,C  15)          118.3714         0.447378   
    107. A(C  16,C  15,C  20)          118.8535         0.426394   
    108. A(N  14,C  15,C  20)          122.4349         0.425447   
    109. A(N  14,C  15,C  16)          118.7116         0.427712   
    110. A(C  17,C  16,H  41)          121.6142         0.359253   
    111. A(C  15,C  16,H  41)          118.2240         0.353354   
    112. A(C  15,C  16,C  17)          120.1618         0.436245   
    113. A(C  18,C  17,H  42)          119.4782         0.354389   
    114. A(C  16,C  17,H  42)          119.7527         0.358806   
    115. A(C  16,C  17,C  18)          120.7691         0.438182   
    116. A(C  19,C  18,H  43)          120.1870         0.358653   
    117. A(C  17,C  18,C  19)          119.9926         0.437750   
    118. A(C  17,C  18,H  43)          119.8205         0.354567   
    119. A(C  18,C  19,C  20)          120.0857         0.437733   
    120. A(C  20,C  19,H  44)          118.1946         0.354545   
    121. A(C  18,C  19,H  44)          121.7197         0.358644   
    122. A(C  19,C  20,C  21)          120.7442         0.414376   
    123. A(C  15,C  20,C  21)          119.1185         0.410424   
    124. A(C  15,C  20,C  19)          120.1373         0.428260   
    125. A(O  22,C  21,N  23)          120.4493         0.465118   
    126. A(C  20,C  21,N  23)          113.0003         0.405789   
    127. A(C  20,C  21,O  22)          126.5504         0.455003   
    128. A(C  13,N  23,C  21)          124.1724         0.418613   
    129. A(C  21,N  23,H  45)          116.3660         0.352236   
    130. A(C  13,N  23,H  45)          119.4615         0.355526   
    131. A(C   9,S  24,C  12)           91.8328         0.436401   
    132. A(C  26,C  25,H  46)          119.0521         0.359101   
    133. A(C   8,C  25,H  46)          119.0469         0.353488   
    134. A(C   8,C  25,C  26)          121.9010         0.437790   
    135. A(C  25,C  26,H  47)          117.7766         0.360054   
    136. A(C   5,C  26,H  47)          120.6816         0.352561   
    137. A(C   5,C  26,C  25)          121.5366         0.435346   
    138. D(H  31,C   1,C   0,H  28)    171.6331         0.011083   
    139. D(H  30,C   1,C   0,H  27)    -64.9968         0.011083   
    140. D(H  31,C   1,C   0,H  27)     51.9938         0.011083   
    141. D(N   2,C   1,C   0,H  28)    -65.9313         0.011083   
    142. D(N   2,C   1,C   0,H  29)     54.2649         0.011083   
    143. D(H  30,C   1,C   0,H  28)     54.6424         0.011083   
    144. D(H  30,C   1,C   0,H  29)    174.8386         0.011083   
    145. D(H  31,C   1,C   0,H  29)    -68.1707         0.011083   
    146. D(N   2,C   1,C   0,H  27)    174.4295         0.011083   
    147. D(C   5,N   2,C   1,H  30)    153.8167         0.017828   
    148. D(C   5,N   2,C   1,H  31)     38.0798         0.017828   
    149. D(C   5,N   2,C   1,C   0)    -84.9469         0.017828   
    150. D(C   3,N   2,C   1,H  31)   -150.7014         0.017828   
    151. D(C   3,N   2,C   1,H  30)    -34.9644         0.017828   
    152. D(C   3,N   2,C   1,C   0)     86.2720         0.017828   
    153. D(H  33,C   3,N   2,C   5)    -53.6502         0.017517   
    154. D(H  33,C   3,N   2,C   1)    135.0898         0.017517   
    155. D(H  32,C   3,N   2,C   5)   -169.8502         0.017517   
    156. D(H  32,C   3,N   2,C   1)     18.8898         0.017517   
    157. D(C   4,C   3,N   2,C   5)     69.3063         0.017517   
    158. D(C   4,C   3,N   2,C   1)   -101.9537         0.017517   
    159. D(H  36,C   4,C   3,N   2)     62.2689         0.011138   
    160. D(H  36,C   4,C   3,H  32)    -57.8225         0.011138   
    161. D(H  36,C   4,C   3,H  33)   -174.8457         0.011138   
    162. D(H  35,C   4,C   3,H  33)    -54.9618         0.011138   
    163. D(H  35,C   4,C   3,H  32)     62.0614         0.011138   
    164. D(H  34,C   4,C   3,H  33)     65.1357         0.011138   
    165. D(H  35,C   4,C   3,N   2)   -177.8473         0.011138   
    166. D(H  34,C   4,C   3,H  32)   -177.8411         0.011138   
    167. D(H  34,C   4,C   3,N   2)    -57.7497         0.011138   
    168. D(C   6,C   5,N   2,C   1)      3.5980         0.029348   
    169. D(C  26,C   5,N   2,C   3)     14.0361         0.029348   
    170. D(C  26,C   5,N   2,C   1)   -175.0750         0.029348   
    171. D(C   6,C   5,N   2,C   3)   -167.2908         0.029348   
    172. D(H  37,C   6,C   5,C  26)   -178.9532         0.023819   
    173. D(H  37,C   6,C   5,N   2)      2.3080         0.023819   
    174. D(C   7,C   6,C   5,C  26)      0.4386         0.023819   
    175. D(C   7,C   6,C   5,N   2)   -178.3002         0.023819   
    176. D(H  38,C   7,C   6,H  37)     -0.4148         0.030573   
    177. D(H  38,C   7,C   6,C   5)   -179.8245         0.030573   
    178. D(C   8,C   7,C   6,H  37)    179.2119         0.030573   
    179. D(C   8,C   7,C   6,C   5)     -0.1977         0.030573   
    180. D(C  25,C   8,C   7,H  38)    179.6568         0.025262   
    181. D(C  25,C   8,C   7,C   6)      0.0346         0.025262   
    182. D(C   9,C   8,C   7,H  38)     -0.2742         0.025262   
    183. D(C   9,C   8,C   7,C   6)   -179.8964         0.025262   
    184. D(S  24,C   9,C   8,C  25)      0.8310         0.018554   
    185. D(S  24,C   9,C   8,C   7)   -179.2410         0.018554   
    186. D(C  10,C   9,C   8,C  25)   -179.3412         0.018554   
    187. D(C  10,C   9,C   8,C   7)      0.5867         0.018554   
    188. D(H  39,C  10,C   9,S  24)   -179.9656         0.029763   
    189. D(C  11,C  10,C   9,S  24)     -0.0189         0.029763   
    190. D(C  11,C  10,C   9,C   8)   -179.8609         0.029763   
    191. D(H  39,C  10,C   9,C   8)      0.1924         0.029763   
    192. D(H  40,C  11,C  10,H  39)     -0.0435         0.025811   
    193. D(H  40,C  11,C  10,C   9)   -179.9903         0.025811   
    194. D(C  12,C  11,C  10,H  39)    179.9950         0.025811   
    195. D(C  12,C  11,C  10,C   9)      0.0482         0.025811   
    196. D(S  24,C  12,C  11,H  40)    179.9829         0.030552   
    197. D(C  13,C  12,C  11,H  40)     -0.0407         0.030552   
    198. D(C  13,C  12,C  11,C  10)    179.9223         0.030552   
    199. D(S  24,C  12,C  11,C  10)     -0.0541         0.030552   
    200. D(N  14,C  13,C  12,C  11)      0.5234         0.018957   
    201. D(N  23,C  13,C  12,S  24)      0.5229         0.018957   
    202. D(N  23,C  13,C  12,C  11)   -179.4509         0.018957   
    203. D(N  14,C  13,C  12,S  24)   -179.5028         0.018957   
    204. D(C  15,N  14,C  13,N  23)      0.0331         0.048900   
    205. D(C  15,N  14,C  13,C  12)   -179.9399         0.048900   
    206. D(C  20,C  15,N  14,C  13)      0.0596         0.027560   
    207. D(C  16,C  15,N  14,C  13)   -179.9487         0.027560   
    208. D(H  41,C  16,C  15,C  20)   -179.9551         0.024710   
    209. D(H  41,C  16,C  15,N  14)      0.0529         0.024710   
    210. D(C  17,C  16,C  15,C  20)      0.0403         0.024710   
    211. D(C  17,C  16,C  15,N  14)   -179.9518         0.024710   
    212. D(H  42,C  17,C  16,H  41)     -0.0001         0.030405   
    213. D(H  42,C  17,C  16,C  15)   -179.9954         0.030405   
    214. D(C  18,C  17,C  16,H  41)   -179.9949         0.030405   
    215. D(C  18,C  17,C  16,C  15)      0.0099         0.030405   
    216. D(H  43,C  18,C  17,H  42)     -0.0263         0.026027   
    217. D(H  43,C  18,C  17,C  16)    179.9684         0.026027   
    218. D(C  19,C  18,C  17,H  42)    179.9639         0.026027   
    219. D(C  19,C  18,C  17,C  16)     -0.0413         0.026027   
    220. D(H  44,C  19,C  18,H  43)      0.0038         0.030050   
    221. D(H  44,C  19,C  18,C  17)   -179.9865         0.030050   
    222. D(C  20,C  19,C  18,H  43)   -179.9887         0.030050   
    223. D(C  20,C  19,C  18,C  17)      0.0211         0.030050   
    224. D(C  21,C  20,C  19,H  44)      0.0559         0.026015   
    225. D(C  21,C  20,C  19,C  18)   -179.9514         0.026015   
    226. D(C  15,C  20,C  19,H  44)   -179.9631         0.026015   
    227. D(C  15,C  20,C  19,C  18)      0.0296         0.026015   
    228. D(C  21,C  20,C  15,C  16)    179.9213         0.023219   
    229. D(C  21,C  20,C  15,N  14)     -0.0869         0.023219   
    230. D(C  19,C  20,C  15,C  16)     -0.0601         0.023219   
    231. D(C  19,C  20,C  15,N  14)    179.9317         0.023219   
    232. D(N  23,C  21,C  20,C  19)   -179.9965         0.015903   
    233. D(N  23,C  21,C  20,C  15)      0.0223         0.015903   
    234. D(O  22,C  21,C  20,C  19)      0.0129         0.015903   
    235. D(O  22,C  21,C  20,C  15)   -179.9684         0.015903   
    236. D(H  45,N  23,C  21,O  22)     -0.0327         0.025561   
    237. D(H  45,N  23,C  21,C  20)    179.9761         0.025561   
    238. D(C  13,N  23,C  21,O  22)   -179.9414         0.025561   
    239. D(C  13,N  23,C  21,C  20)      0.0673         0.025561   
    240. D(H  45,N  23,C  13,N  14)    179.9920         0.028731   
    241. D(H  45,N  23,C  13,C  12)     -0.0348         0.028731   
    242. D(C  21,N  23,C  13,N  14)     -0.1019         0.028731   
    243. D(C  21,N  23,C  13,C  12)    179.8713         0.028731   
    244. D(C   9,S  24,C  12,C  13)   -179.9411         0.004692   
    245. D(C   9,S  24,C  12,C  11)      0.0365         0.004692   
    246. D(C  12,S  24,C   9,C  10)     -0.0101         0.004711   
    247. D(C  12,S  24,C   9,C   8)    179.8477         0.004711   
    248. D(H  46,C  25,C   8,C   9)     -0.1945         0.025353   
    249. D(H  46,C  25,C   8,C   7)    179.8740         0.025353   
    250. D(C  26,C  25,C   8,C   9)    179.7905         0.025353   
    251. D(C  26,C  25,C   8,C   7)     -0.1409         0.025353   
    252. D(H  47,C  26,C  25,H  46)     -0.4257         0.030895   
    253. D(H  47,C  26,C  25,C   8)    179.5892         0.030895   
    254. D(C   5,C  26,C  25,H  46)   -179.6031         0.030895   
    255. D(C   5,C  26,C  25,C   8)      0.4118         0.030895   
    256. D(H  47,C  26,C   5,C   6)   -179.6965         0.023747   
    257. D(H  47,C  26,C   5,N   2)     -0.9516         0.023747   
    258. D(C  25,C  26,C   5,C   6)     -0.5428         0.023747   
    259. D(C  25,C  26,C   5,N   2)    178.2021         0.023747   
    -----------------------------------------------------------------

Number of atoms                         .... 48
Number of degrees of freedom            .... 259

         *************************************************************
         *                GEOMETRY OPTIMIZATION CYCLE   1            *
         *************************************************************
---------------------------------
CARTESIAN COORDINATES (ANGSTROEM)
---------------------------------
  C     -6.708700   -0.076300   -1.742100
  C     -6.271400   -1.059900   -0.653700
  N     -5.347300   -0.498600    0.305100
  C     -5.915100    0.203800    1.436200
  C     -5.857300    1.726400    1.296700
  C     -3.999600   -0.469500    0.063200
  C     -3.450200   -0.912300   -1.153300
  C     -2.094400   -0.913100   -1.378300
  C     -1.191000   -0.468500   -0.407400
  C      0.229800   -0.464300   -0.636500
  C      0.931800   -0.849400   -1.757700
  C      2.315700   -0.715100   -1.633200
  C      2.707200   -0.223900   -0.410700
  C      4.052900    0.025200    0.025200
  N      5.026400   -0.216300   -0.792000
  C      6.302300    0.022000   -0.369400
  C      7.362300   -0.236100   -1.249300
  C      8.659400   -0.007700   -0.854200
  C      8.941200    0.481600    0.421300
  C      7.914700    0.742300    1.300600
  C      6.592200    0.517400    0.918100
  C      5.492400    0.789900    1.838700
  O      5.586500    1.216100    2.971000
  N      4.247700    0.509700    1.294200
  S      1.324500    0.077500    0.601700
  C     -1.732600   -0.024100    0.802700
  C     -3.086100   -0.018600    1.033300
  H     -7.320900   -0.589200   -2.479500
  H     -7.294000    0.733500   -1.314500
  H     -5.842900    0.351300   -2.241100
  H     -7.154500   -1.404600   -0.107400
  H     -5.814500   -1.941500   -1.110100
  H     -6.957700   -0.106800    1.532100
  H     -5.402400   -0.102800    2.353700
  H     -4.832300    2.060800    1.161300
  H     -6.262500    2.193700    2.190700
  H     -6.438400    2.056200    0.439900
  H     -4.087900   -1.256400   -1.950500
  H     -1.729300   -1.261400   -2.332100
  H      0.458800   -1.219200   -2.649000
  H      3.029400   -0.962500   -2.396900
  H      7.128900   -0.614200   -2.232000
  H      9.471500   -0.208900   -1.537900
  H      9.965400    0.654900    0.715700
  H      8.100900    1.121600    2.294200
  H      3.446200    0.680500    1.891300
  H     -1.066300    0.325500    1.579100
  H     -3.430500    0.331400    1.991800

----------------------------
CARTESIAN COORDINATES (A.U.)
----------------------------
  NO LB      ZA    FRAG     MASS         X           Y           Z
   0 C     6.0000    0    12.011  -12.677606   -0.144186   -3.292092
   1 C     6.0000    0    12.011  -11.851228   -2.002921   -1.235314
   2 N     7.0000    0    14.007  -10.104933   -0.942217    0.576555
   3 C     6.0000    0    12.011  -11.177919    0.385126    2.714025
   4 C     6.0000    0    12.011  -11.068693    3.262423    2.450408
   5 C     6.0000    0    12.011   -7.558149   -0.887226    0.119431
   6 C     6.0000    0    12.011   -6.519933   -1.723997   -2.179421
   7 C     6.0000    0    12.011   -3.957842   -1.725509   -2.604610
   8 C     6.0000    0    12.011   -2.250664   -0.885337   -0.769874
   9 C     6.0000    0    12.011    0.434259   -0.877400   -1.202811
  10 C     6.0000    0    12.011    1.760847   -1.605133   -3.321572
  11 C     6.0000    0    12.011    4.376039   -1.351343   -3.086301
  12 C     6.0000    0    12.011    5.115867   -0.423110   -0.776111
  13 C     6.0000    0    12.011    7.658871    0.047621    0.047621
  14 N     7.0000    0    14.007    9.498519   -0.408748   -1.496663
  15 C     6.0000    0    12.011   11.909621    0.041574   -0.698065
  16 C     6.0000    0    12.011   13.912731   -0.446164   -2.360835
  17 C     6.0000    0    12.011   16.363894   -0.014551   -1.614204
  18 C     6.0000    0    12.011   16.896419    0.910092    0.796142
  19 C     6.0000    0    12.011   14.956615    1.402744    2.457778
  20 C     6.0000    0    12.011   12.457453    0.977744    1.734958
  21 C     6.0000    0    12.011   10.379132    1.492695    3.474639
  22 O     8.0000    0    15.999   10.556955    2.298096    5.614376
  23 N     7.0000    0    14.007    8.026990    0.963193    2.445684
  24 S    16.0000    0    32.060    2.502942    0.146454    1.137048
  25 C     6.0000    0    12.011   -3.274139   -0.045542    1.516883
  26 C     6.0000    0    12.011   -5.831884   -0.035149    1.952654
  27 H     1.0000    0     1.008  -13.834496   -1.113427   -4.685576
  28 H     1.0000    0     1.008  -13.783662    1.386114   -2.484045
  29 H     1.0000    0     1.008  -11.041481    0.663861   -4.235065
  30 H     1.0000    0     1.008  -13.520046   -2.654309   -0.202957
  31 H     1.0000    0     1.008  -10.987813   -3.668903   -2.097785
  32 H     1.0000    0     1.008  -13.148148   -0.201823    2.895249
  33 H     1.0000    0     1.008  -10.209056   -0.194264    4.447848
  34 H     1.0000    0     1.008   -9.131724    3.894348    2.194539
  35 H     1.0000    0     1.008  -11.834410    4.145492    4.139823
  36 H     1.0000    0     1.008  -12.166813    3.885655    0.831291
  37 H     1.0000    0     1.008   -7.725011   -2.374252   -3.685911
  38 H     1.0000    0     1.008   -3.267903   -2.383701   -4.407030
  39 H     1.0000    0     1.008    0.867006   -2.303954   -5.005885
  40 H     1.0000    0     1.008    5.724736   -1.818861   -4.529485
  41 H     1.0000    0     1.008   13.471669   -1.160670   -4.217869
  42 H     1.0000    0     1.008   17.898541   -0.394764   -2.906210
  43 H     1.0000    0     1.008   18.831877    1.237582    1.352477
  44 H     1.0000    0     1.008   15.308482    2.119517    4.335410
  45 H     1.0000    0     1.008    6.512374    1.285959    3.574039
  46 H     1.0000    0     1.008   -2.015015    0.615106    2.984067
  47 H     1.0000    0     1.008   -6.482706    0.626255    3.763957

--------------------------------
INTERNAL COORDINATES (ANGSTROEM)
--------------------------------
 C      0   0   0     0.000000000000     0.00000000     0.00000000
 C      1   0   0     1.530788950182     0.00000000     0.00000000
 N      2   1   0     1.445100667774   113.88132031     0.00000000
 C      3   2   1     1.447463232694   117.13615509    86.27197671
 C      4   3   2     1.530069230460   113.38015622   258.04627777
 C      3   2   1     1.369546534441   121.35464777   275.05313926
 C      6   3   2     1.406337246182   122.04084949     3.59804528
 C      7   6   3     1.374343217686   121.81563928   181.69976854
 C      8   7   6     1.398730685300   121.55607732   359.80227942
 C      9   8   7     1.439158465910   121.87455926   180.10362273
 C     10   9   8     1.377750140628   129.17997553     0.58674152
 C     11  10   9     1.395964165013   113.93209250   180.13906175
 C     12  11  10     1.374429314297   113.33418558     0.04815790
 C     13  12  11     1.436303627371   126.78390988   179.92233054
 N     14  13  12     1.293769817240   118.74536589     0.52338215
 C     15  14  13     1.365026908160   118.37136739   180.06006070
 C     16  15  14     1.401584681709   118.71157646   180.05131628
 C     17  16  15     1.375041446648   120.16178424   180.04823860
 C     18  17  16     1.394892820255   120.76914334     0.00000000
 C     19  18  17     1.376530141334   119.99255621   359.95869799
 C     20  19  18     1.394952511737   120.08567319     0.00000000
 C     21  20  19     1.459904329057   120.74423210   180.04857374
 O     22  21  20     1.213509184143   126.55035933     0.00000000
 N     14  13  12     1.372242066838   118.35222097   180.54907458
 S     10   9   8     1.739268400794   120.59417264   180.75897311
 C      9   8   7     1.398271765430   116.84451548     0.03464235
 C     26   9   8     1.373014515582   121.90098010   359.85906475
 H      1   2   3     1.087020703575   109.87881550   174.42946597
 H      1   2   3     1.086827442605   110.66296153   294.06869945
 H      1   2   3     1.086946364822   110.58750791    54.26490623
 H      2   1   3     1.094133168312   109.07854163   120.57370254
 H      2   1   3     1.092829872396   109.92842023   237.56437135
 H      4   3   2     1.092100695907   107.76420663    18.88978030
 H      4   3   2     1.094838389901   109.58903927   135.08978559
 H      5   4   3     1.086637713316   110.68498998   302.25030605
 H      5   4   3     1.087102722837   109.79781311   182.15272196
 H      5   4   3     1.086531863316   110.71652631    62.26890934
 H      7   6   3     1.077308655864   120.62552905     2.30797259
 H      8   7   6     1.079048349241   118.59975523   180.17551944
 H     11  10   9     1.074661216384   123.15188990     0.19240055
 H     12  11  10     1.074156478359   124.96802089   180.00972713
 H     17  16  15     1.078487116288   118.22399531     0.05285436
 H     18  17  16     1.080478384791   119.75270204   180.00464468
 H     19  18  17     1.079671195318   119.82047369   179.96842355
 H     20  19  18     1.079712873870   121.71973942   180.01354403
 H     24  14  13     1.013954288911   119.46152909   359.96521989
 H     26   9   8     1.081190459632   119.04687605   179.87400390
 H     27  26   9     1.076955714038   117.77660463   179.58921282

---------------------------
INTERNAL COORDINATES (A.U.)
---------------------------
 C      0   0   0     0.000000000000     0.00000000     0.00000000
 C      1   0   0     2.892771884677     0.00000000     0.00000000
 N      2   1   0     2.730844498039   113.88132031     0.00000000
 C      3   2   1     2.735309098711   117.13615509    86.27197671
 C      4   3   2     2.891411811509   113.38015622   258.04627777
 C      3   2   1     2.588067877755   121.35464777   275.05313926
 C      6   3   2     2.657592247218   122.04084949     3.59804528
 C      7   6   3     2.597132295439   121.81563928   181.69976854
 C      8   7   6     2.643217930329   121.55607732   359.80227942
 C      9   8   7     2.719615363884   121.87455926   180.10362273
 C     10   9   8     2.603570446758   129.17997553     0.58674152
 C     11  10   9     2.637989964642   113.93209250   180.13906175
 C     12  11  10     2.597294994455   113.33418558     0.04815790
 C     13  12  11     2.714220500889   126.78390988   179.92233054
 N     14  13  12     2.444870634916   118.74536589     0.52338215
 C     15  14  13     2.579527021855   118.37136739   180.06006070
 C     16  15  14     2.648611201928   118.71157646   180.05131628
 C     17  16  15     2.598451756956   120.16178424   180.04823860
 C     18  17  16     2.635965416456   120.76914334     0.00000000
 C     19  18  17     2.601264982208   119.99255621   359.95869799
 C     20  19  18     2.636078217008   120.08567319     0.00000000
 C     21  20  19     2.758819363644   120.74423210   180.04857374
 O     22  21  20     2.293200019029   126.55035933     0.00000000
 N     14  13  12     2.593161695770   118.35222097   180.54907458
 S     10   9   8     3.286740950884   120.59417264   180.75897311
 C      9   8   7     2.642350697458   116.84451548     0.03464235
 C     26   9   8     2.594621412349   121.90098010   359.85906475
 H      1   2   3     2.054171431659   109.87881550   174.42946597
 H      1   2   3     2.053806221354   110.66296153   294.06869945
 H      1   2   3     2.054030951775   110.58750791    54.26490623
 H      2   1   3     2.067612042149   109.07854163   120.57370254
 H      2   1   3     2.065149169796   109.92842023   237.56437135
 H      4   3   2     2.063771225929   107.76420663    18.88978030
 H      4   3   2     2.068944717815   109.58903927   135.08978559
 H      5   4   3     2.053447684957   110.68498998   302.25030605
 H      5   4   3     2.054326425602   109.79781311   182.15272196
 H      5   4   3     2.053247657446   110.71652631    62.26890934
 H      7   6   3     2.035818321286   120.62552905     2.30797259
 H      8   7   6     2.039105865326   118.59975523   180.17551944
 H     11  10   9     2.030815385712   123.15188990     0.19240055
 H     12  11  10     2.029861569075   124.96802089   180.00972713
 H     17  16  15     2.038045288747   118.22399531     0.05285436
 H     18  17  16     2.041808240876   119.75270204   180.00464468
 H     19  18  17     2.040282873835   119.82047369   179.96842355
 H     20  19  18     2.040361634883   121.71973942   180.01354403
 H     24  14  13     1.916095918356   119.46152909   359.96521989
 H     26   9   8     2.043153867314   119.04687605   179.87400390
 H     27  26   9     2.035151357894   117.77660463   179.58921282

---------------------
BASIS SET INFORMATION
---------------------
There are 5 groups of distinct atoms

 Group   1 Type C   : 19s6p3d2f contracted to 5s4p3d2f pattern {88111/3111/111/11}
 Group   2 Type N   : 19s6p3d2f contracted to 5s4p3d2f pattern {88111/3111/111/11}
 Group   3 Type O   : 19s6p3d2f contracted to 5s4p3d2f pattern {88111/3111/111/11}
 Group   4 Type S   : 42s17p3d2f contracted to 6s5p3d2f pattern {131313111/77111/111/11}
 Group   5 Type H   : 5s2p1d contracted to 3s2p1d pattern {311/11/1}

Atom   0C    basis set group =>   1
Atom   1C    basis set group =>   1
Atom   2N    basis set group =>   2
Atom   3C    basis set group =>   1
Atom   4C    basis set group =>   1
Atom   5C    basis set group =>   1
Atom   6C    basis set group =>   1
Atom   7C    basis set group =>   1
Atom   8C    basis set group =>   1
Atom   9C    basis set group =>   1
Atom  10C    basis set group =>   1
Atom  11C    basis set group =>   1
Atom  12C    basis set group =>   1
Atom  13C    basis set group =>   1
Atom  14N    basis set group =>   2
Atom  15C    basis set group =>   1
Atom  16C    basis set group =>   1
Atom  17C    basis set group =>   1
Atom  18C    basis set group =>   1
Atom  19C    basis set group =>   1
Atom  20C    basis set group =>   1
Atom  21C    basis set group =>   1
Atom  22O    basis set group =>   3
Atom  23N    basis set group =>   2
Atom  24S    basis set group =>   4
Atom  25C    basis set group =>   1
Atom  26C    basis set group =>   1
Atom  27H    basis set group =>   5
Atom  28H    basis set group =>   5
Atom  29H    basis set group =>   5
Atom  30H    basis set group =>   5
Atom  31H    basis set group =>   5
Atom  32H    basis set group =>   5
Atom  33H    basis set group =>   5
Atom  34H    basis set group =>   5
Atom  35H    basis set group =>   5
Atom  36H    basis set group =>   5
Atom  37H    basis set group =>   5
Atom  38H    basis set group =>   5
Atom  39H    basis set group =>   5
Atom  40H    basis set group =>   5
Atom  41H    basis set group =>   5
Atom  42H    basis set group =>   5
Atom  43H    basis set group =>   5
Atom  44H    basis set group =>   5
Atom  45H    basis set group =>   5
Atom  46H    basis set group =>   5
Atom  47H    basis set group =>   5
---------------------------------
AUXILIARY/J BASIS SET INFORMATION
---------------------------------
There are 5 groups of distinct atoms

 Group   1 Type C   : 10s7p5d2f1g contracted to 10s7p5d2f1g pattern {1111111111/1111111/11111/11/1}
 Group   2 Type N   : 10s7p5d2f1g contracted to 10s7p5d2f1g pattern {1111111111/1111111/11111/11/1}
 Group   3 Type O   : 10s7p5d2f1g contracted to 10s7p5d2f1g pattern {1111111111/1111111/11111/11/1}
 Group   4 Type S   : 13s11p9d3f1g contracted to 13s11p9d3f1g pattern {1111111111111/11111111111/111111111/111/1}
 Group   5 Type H   : 4s3p2d1f contracted to 4s3p2d1f pattern {1111/111/11/1}

Atom   0C    basis set group =>   1
Atom   1C    basis set group =>   1
Atom   2N    basis set group =>   2
Atom   3C    basis set group =>   1
Atom   4C    basis set group =>   1
Atom   5C    basis set group =>   1
Atom   6C    basis set group =>   1
Atom   7C    basis set group =>   1
Atom   8C    basis set group =>   1
Atom   9C    basis set group =>   1
Atom  10C    basis set group =>   1
Atom  11C    basis set group =>   1
Atom  12C    basis set group =>   1
Atom  13C    basis set group =>   1
Atom  14N    basis set group =>   2
Atom  15C    basis set group =>   1
Atom  16C    basis set group =>   1
Atom  17C    basis set group =>   1
Atom  18C    basis set group =>   1
Atom  19C    basis set group =>   1
Atom  20C    basis set group =>   1
Atom  21C    basis set group =>   1
Atom  22O    basis set group =>   3
Atom  23N    basis set group =>   2
Atom  24S    basis set group =>   4
Atom  25C    basis set group =>   1
Atom  26C    basis set group =>   1
Atom  27H    basis set group =>   5
Atom  28H    basis set group =>   5
Atom  29H    basis set group =>   5
Atom  30H    basis set group =>   5
Atom  31H    basis set group =>   5
Atom  32H    basis set group =>   5
Atom  33H    basis set group =>   5
Atom  34H    basis set group =>   5
Atom  35H    basis set group =>   5
Atom  36H    basis set group =>   5
Atom  37H    basis set group =>   5
Atom  38H    basis set group =>   5
Atom  39H    basis set group =>   5
Atom  40H    basis set group =>   5
Atom  41H    basis set group =>   5
Atom  42H    basis set group =>   5
Atom  43H    basis set group =>   5
Atom  44H    basis set group =>   5
Atom  45H    basis set group =>   5
Atom  46H    basis set group =>   5
Atom  47H    basis set group =>   5
---------------------------------
AUXILIARY/C BASIS SET INFORMATION
---------------------------------
There are 5 groups of distinct atoms

 Group   1 Type C   : 9s7p6d4f2g contracted to 9s7p6d4f2g pattern {111111111/1111111/111111/1111/11}
 Group   2 Type N   : 9s7p6d4f2g contracted to 9s7p6d4f2g pattern {111111111/1111111/111111/1111/11}
 Group   3 Type O   : 9s7p6d4f2g contracted to 9s7p6d4f2g pattern {111111111/1111111/111111/1111/11}
 Group   4 Type S   : 11s9p8d6f3g contracted to 11s9p8d6f3g pattern {11111111111/111111111/11111111/111111/111}
 Group   5 Type H   : 4s3p2d1f contracted to 4s3p2d1f pattern {1111/111/11/1}

Atom   0C    basis set group =>   1
Atom   1C    basis set group =>   1
Atom   2N    basis set group =>   2
Atom   3C    basis set group =>   1
Atom   4C    basis set group =>   1
Atom   5C    basis set group =>   1
Atom   6C    basis set group =>   1
Atom   7C    basis set group =>   1
Atom   8C    basis set group =>   1
Atom   9C    basis set group =>   1
Atom  10C    basis set group =>   1
Atom  11C    basis set group =>   1
Atom  12C    basis set group =>   1
Atom  13C    basis set group =>   1
Atom  14N    basis set group =>   2
Atom  15C    basis set group =>   1
Atom  16C    basis set group =>   1
Atom  17C    basis set group =>   1
Atom  18C    basis set group =>   1
Atom  19C    basis set group =>   1
Atom  20C    basis set group =>   1
Atom  21C    basis set group =>   1
Atom  22O    basis set group =>   3
Atom  23N    basis set group =>   2
Atom  24S    basis set group =>   4
Atom  25C    basis set group =>   1
Atom  26C    basis set group =>   1
Atom  27H    basis set group =>   5
Atom  28H    basis set group =>   5
Atom  29H    basis set group =>   5
Atom  30H    basis set group =>   5
Atom  31H    basis set group =>   5
Atom  32H    basis set group =>   5
Atom  33H    basis set group =>   5
Atom  34H    basis set group =>   5
Atom  35H    basis set group =>   5
Atom  36H    basis set group =>   5
Atom  37H    basis set group =>   5
Atom  38H    basis set group =>   5
Atom  39H    basis set group =>   5
Atom  40H    basis set group =>   5
Atom  41H    basis set group =>   5
Atom  42H    basis set group =>   5
Atom  43H    basis set group =>   5
Atom  44H    basis set group =>   5
Atom  45H    basis set group =>   5
Atom  46H    basis set group =>   5
Atom  47H    basis set group =>   5


           ************************************************************
           *        Program running with 4 parallel MPI-processes     *
           *              working on a common directory               *
           ************************************************************
------------------------------------------------------------------------------
                           ORCA GTO INTEGRAL CALCULATION
                           -- RI-GTO INTEGRALS CHOSEN --
------------------------------------------------------------------------------
------------------------------------------------------------------------------
                   ___                                                        
                  /   \      - P O W E R E D   B Y -                         
                 /     \                                                     
                 |  |  |   _    _      __       _____    __    __             
                 |  |  |  | |  | |    /  \     |  _  \  |  |  /  |          
                  \  \/   | |  | |   /    \    | | | |  |  | /  /          
                 / \  \   | |__| |  /  /\  \   | |_| |  |  |/  /          
                |  |  |   |  __  | /  /__\  \  |    /   |      \           
                |  |  |   | |  | | |   __   |  |    \   |  |\   \          
                \     /   | |  | | |  |  |  |  | |\  \  |  | \   \       
                 \___/    |_|  |_| |__|  |__|  |_| \__\ |__|  \__/        
                                                                              
                      - O R C A' S   B I G   F R I E N D -                    
                                      &                                       
                       - I N T E G R A L  F E E D E R -                       
                                                                              
 v1 FN, 2020, v2 2021                                                         
------------------------------------------------------------------------------


Reading SHARK input file optpbed3-b2plyp-test-110.SHARKINP.tmp ... ok
----------------------
SHARK INTEGRAL PACKAGE
----------------------

Number of atoms                             ...     48
Number of basis functions                   ...   1721
Number of shells                            ...    677
Maximum angular momentum                    ...      3
Integral batch strategy                     ... SHARK/LIBINT Hybrid
RI-J (if used) integral strategy            ... SPLIT-RIJ (Revised 2003 algorithm where possible)
Printlevel                                  ...      1
Contraction scheme used                     ... PARTIAL GENERAL contraction
Coulomb Range Separation                    ... NOT USED
Exchange Range Separation                   ... NOT USED
Finite Nucleus Model                        ... NOT USED
Auxiliary Coulomb fitting basis             ... AVAILABLE
   # of basis functions in Aux-J            ...   2805
   # of shells in Aux-J                     ...    897
   Maximum angular momentum in Aux-J        ...      4
Auxiliary J/K fitting basis                 ... NOT available
Auxiliary Correlation fitting basis         ... AVAILABLE
   # of basis functions in Aux-C            ...   3533
   # of shells in Aux-C                     ...    975
   Maximum angular momentum in Aux-C        ...      4
Auxiliary 'external' fitting basis          ... NOT available
Integral threshold                          ...     2.500000e-11
Primitive cut-off                           ...     2.500000e-12
Primitive pair pre-selection threshold      ...     2.500000e-12

Calculating pre-screening integrals         ... done (  0.4 sec) Dimension = 677
Calculating pre-screening integrals (ORCA)  ... done (  1.0 sec) Dimension = 506
Organizing shell pair data                  ... done (  2.2 sec)
Shell pair information
Total number of shell pairs                 ...    229503
Shell pairs after pre-screening             ...    117439
Total number of primitive shell pairs       ...    297747
Primitive shell pairs kept                  ...    135956
          la=0 lb=0:  26261 shell pairs
          la=1 lb=0:  31195 shell pairs
          la=1 lb=1:   8170 shell pairs
          la=2 lb=0:  19064 shell pairs
          la=2 lb=1:  10070 shell pairs
          la=2 lb=2:   3180 shell pairs
          la=3 lb=0:  10008 shell pairs
          la=3 lb=1:   5300 shell pairs
          la=3 lb=2:   3294 shell pairs
          la=3 lb=3:    897 shell pairs

Calculating one electron integrals          ... done (  0.5 sec)
Calculating RI/J V-Matrix + Cholesky decomp.... done (  1.9 sec)
Calculating RI/C V-Matrix + Cholesky decomp.... done (  1.1 sec)
Calculating Nuclear repulsion               ... done (  0.0 sec) ENN=   2339.563885794889 Eh

SHARK setup successfully completed in   9.6 seconds

Maximum memory used throughout the entire GTOINT-calculation: 202.2 MB


           ************************************************************
           *        Program running with 4 parallel MPI-processes     *
           *              working on a common directory               *
           ************************************************************
-------------------------------------------------------------------------------
                                 ORCA SCF
-------------------------------------------------------------------------------

------------
SCF SETTINGS
------------
Hamiltonian:
 Density Functional     Method          .... DFT(GTOs)
 Exchange Functional    Exchange        .... PBE
   PBE kappa parameter   XKappa         ....  0.804000
   PBE mue parameter    XMuePBE         ....  0.219520
 Correlation Functional Correlation     .... PBE
   PBE beta parameter  CBetaPBE         ....  0.066725
 LDA part of GGA corr.  LDAOpt          .... PW91-LDA
 Gradients option       PostSCFGGA      .... off
 Hybrid DFT is turned on
   Fraction HF Exchange ScalHFX         ....  0.250000
   Scaling of DF-GGA-X  ScalDFX         ....  0.750000
   Scaling of DF-GGA-C  ScalDFC         ....  1.000000
   Scaling of DF-LDA-C  ScalLDAC        ....  1.000000
   Perturbative correction              ....  0.000000
   Density functional embedding theory  .... OFF
   NL short-range parameter             ....  6.900000
 RI-approximation to the Coulomb term is turned on
   Number of AuxJ basis functions       .... 2805
   RIJ-COSX (HFX calculated with COS-X)).... on


General Settings:
 Integral files         IntName         .... optpbed3-b2plyp-test-110
 Hartree-Fock type      HFTyp           .... RHF
 Total Charge           Charge          ....    0
 Multiplicity           Mult            ....    1
 Number of Electrons    NEL             ....  198
 Basis Dimension        Dim             .... 1540
 Nuclear Repulsion      ENuc            ....   2339.5638857949 Eh

Convergence Acceleration:
 DIIS                   CNVDIIS         .... on
   Start iteration      DIISMaxIt       ....    12
   Startup error        DIISStart       ....  0.200000
   # of expansion vecs  DIISMaxEq       ....     5
   Bias factor          DIISBfac        ....   1.050
   Max. coefficient     DIISMaxC        ....  10.000
 Trust-Rad. Augm. Hess. CNVTRAH         .... auto
   Auto Start mean grad. ratio tolernc. ....  1.125000
   Auto Start start iteration           ....    20
   Auto Start num. interpolation iter.  ....    10
   Max. Number of Micro iterations      ....    16
   Max. Number of Macro iterations      .... Maxiter - #DIIS iter
   Number of Davidson start vectors     ....     2
   Converg. threshold I  (grad. norm)   ....   1.000e-05
   Converg. threshold II (energy diff.) ....   1.000e-08
   Grad. Scal. Fac. for Micro threshold ....   0.100
   Minimum threshold for Micro iter.    ....   0.010
   NR start threshold (gradient norm)   ....   0.001
   Initial trust radius                 ....   0.400
   Minimum AH scaling param. (alpha)    ....   1.000
   Maximum AH scaling param. (alpha)    .... 1000.000
   Orbital update algorithm             .... Taylor
   White noise on init. David. guess    .... on
   Maximum white noise                  ....   0.010
   Quad. conv. algorithm                .... NR
 SOSCF                  CNVSOSCF        .... on
   Start iteration      SOSCFMaxIt      ....   150
   Startup grad/error   SOSCFStart      ....  0.003300
 Level Shifting         CNVShift        .... on
   Level shift para.    LevelShift      ....    0.2500
   Turn off err/grad.   ShiftErr        ....    0.0010
 Zerner damping         CNVZerner       .... off
 Static damping         CNVDamp         .... on
   Fraction old density DampFac         ....    0.7000
   Max. Damping (<1)    DampMax         ....    0.9800
   Min. Damping (>=0)   DampMin         ....    0.0000
   Turn off err/grad.   DampErr         ....    0.1000
 Fernandez-Rico         CNVRico         .... off

SCF Procedure:
 Maximum # iterations   MaxIter         ....   125
 SCF integral mode      SCFMode         .... Direct
   Integral package                     .... SHARK and LIBINT hybrid scheme
 Reset frequency        DirectResetFreq ....    20
 Integral Threshold     Thresh          ....  2.500e-11 Eh
 Primitive CutOff       TCut            ....  2.500e-12 Eh

Convergence Tolerance:
 Convergence Check Mode ConvCheckMode   .... Total+1el-Energy
 Convergence forced     ConvForced      .... 0
 Energy Change          TolE            ....  1.000e-08 Eh
 1-El. energy change                    ....  1.000e-05 Eh
 Orbital Gradient       TolG            ....  1.000e-05
 Orbital Rotation angle TolX            ....  1.000e-05
 DIIS Error             TolErr          ....  5.000e-07


Diagonalization of the overlap matrix:
Smallest eigenvalue                        ... 1.027e-07
Time for diagonalization                   ...    0.645 sec
Threshold for overlap eigenvalues          ... 1.000e-08
Number of eigenvalues below threshold      ... 0
Time for construction of square roots      ...    0.455 sec
Total time needed                          ...    1.113 sec

Time for model grid setup =    1.935 sec

------------------------------
INITIAL GUESS: MODEL POTENTIAL
------------------------------
Loading Hartree-Fock densities                     ... done
Calculating cut-offs                               ... done
Initializing the effective Hamiltonian             ... done
Setting up the integral package (SHARK)            ... done
Starting the Coulomb interaction                   ... done (   5.5 sec)
Reading the grid                                   ... done
Mapping shells                                     ... done
Starting the XC term evaluation                    ... done (   3.4 sec)
  promolecular density results
     # of electrons  =    197.980949146
     EX              =   -171.588925512
     EC              =     -6.762420616
     EX+EC           =   -178.351346128
Transforming the Hamiltonian                       ... done (   0.4 sec)
Diagonalizing the Hamiltonian                      ... done (   0.6 sec)
Back transforming the eigenvectors                 ... done (   0.2 sec)
Now organizing SCF variables                       ... done
                      ------------------
                      INITIAL GUESS DONE (  12.0 sec)
                      ------------------
-------------------
DFT GRID GENERATION
-------------------

General Integration Accuracy     IntAcc      ... 4.388
Radial Grid Type                 RadialGrid  ... OptM3 with GC (2021)
Angular Grid (max. ang.)         AngularGrid ... 4 (Lebedev-302)
Angular grid pruning method      GridPruning ... 4 (adaptive)
Weight generation scheme         WeightScheme... Becke
Basis function cutoff            BFCut       ... 1.0000e-11
Integration weight cutoff        WCut        ... 1.0000e-14
Angular grids for H and He will be reduced by one unit
Partially contracted basis set               ... off
Rotationally invariant grid construction     ... off

Total number of grid points                  ...   235713
Total number of batches                      ...     3709
Average number of points per batch           ...       63
Average number of grid points per atom       ...     4911
Time for grid setup =    5.740 sec

--------------------
COSX GRID GENERATION
--------------------

GRIDX 1
-------
General Integration Accuracy     IntAcc      ... 3.816
Radial Grid Type                 RadialGrid  ... OptM3 with GC (2021)
Angular Grid (max. ang.)         AngularGrid ... 1 (Lebedev-50)
Angular grid pruning method      GridPruning ... 4 (adaptive)
Weight generation scheme         WeightScheme... Becke
Basis function cutoff            BFCut       ... 1.0000e-11
Integration weight cutoff        WCut        ... 1.0000e-14
Angular grids for H and He will be reduced by one unit
Partially contracted basis set               ... on
Rotationally invariant grid construction     ... off

Total number of grid points                  ...    29928
Total number of batches                      ...      494
Average number of points per batch           ...       60
Average number of grid points per atom       ...      624
UseSFitting                                  ... on

GRIDX 2
-------
General Integration Accuracy     IntAcc      ... 4.020
Radial Grid Type                 RadialGrid  ... OptM3 with GC (2021)
Angular Grid (max. ang.)         AngularGrid ... 2 (Lebedev-110)
Angular grid pruning method      GridPruning ... 4 (adaptive)
Weight generation scheme         WeightScheme... Becke
Basis function cutoff            BFCut       ... 1.0000e-11
Integration weight cutoff        WCut        ... 1.0000e-14
Angular grids for H and He will be reduced by one unit
Partially contracted basis set               ... on
Rotationally invariant grid construction     ... off

Total number of grid points                  ...    69892
Total number of batches                      ...     1115
Average number of points per batch           ...       62
Average number of grid points per atom       ...     1456
UseSFitting                                  ... on

GRIDX 3
-------
General Integration Accuracy     IntAcc      ... 4.338
Radial Grid Type                 RadialGrid  ... OptM3 with GC (2021)
Angular Grid (max. ang.)         AngularGrid ... 3 (Lebedev-194)
Angular grid pruning method      GridPruning ... 4 (adaptive)
Weight generation scheme         WeightScheme... Becke
Basis function cutoff            BFCut       ... 1.0000e-11
Integration weight cutoff        WCut        ... 1.0000e-14
Angular grids for H and He will be reduced by one unit
Partially contracted basis set               ... on
Rotationally invariant grid construction     ... off

Total number of grid points                  ...   151349
Total number of batches                      ...     2391
Average number of points per batch           ...       63
Average number of grid points per atom       ...     3153
UseSFitting                                  ... on

Time for X-Grid setup             =   13.894 sec


--------------------
CPCM SOLVATION MODEL
[...]
   Time for LR-CPCM terms:       22.573
   Time for Sigma-Completion:     0.355
   Time for building 10 sigma-vectors
   Data Preparation Phase         ...     0.02 sec
   Transformed RI Coulomb         ...     1.95 sec
   Transformed RI-exchange        ...  1679.47 sec
   (ab|v) reading and digestion   ...  1611.38 sec
   Final sigma-completion         ...     0.02 sec
   Done building sigma-vectors             Size of expansion space: 60
   Lowest Energy          :     0.123495877416
   Maximum Energy change  :     0.000018827359 (vector 9)
   Maximum residual norm  :     0.000002772034

                       ****Iteration   10****
              <<< Entering MO-section for Build Sigma(Double) >>>
   Forming the XC and CPCM contribution:
   Time for densities:            0.482
   Time for XC-Integration:      32.686
   Time for LR-CPCM terms:       22.834
   Time for Sigma-Completion:     0.363
   Time for building 10 sigma-vectors
   Data Preparation Phase         ...     0.02 sec
   Transformed RI Coulomb         ...     1.96 sec
   Transformed RI-exchange        ...  1656.98 sec
   (ab|v) reading and digestion   ...  1589.95 sec
   Final sigma-completion         ...     0.02 sec
   Done building sigma-vectors             Size of expansion space: 70
   Lowest Energy          :     0.123495877414
   Maximum Energy change  :     0.000011255299 (vector 9)
   Maximum residual norm  :     0.000001954296
   Rebuilding the expansion space

                       ****Iteration   11****
              <<< Entering MO-section for Build Sigma(Double) >>>
   Forming the XC and CPCM contribution:
   Time for densities:            0.968
   Time for XC-Integration:      61.876
   Time for LR-CPCM terms:       34.404
   Time for Sigma-Completion:     0.668
   Time for building 20 sigma-vectors
   Data Preparation Phase         ...     0.04 sec
   Transformed RI Coulomb         ...     3.18 sec
   Transformed RI-exchange        ...  3352.14 sec
   (ab|v) reading and digestion   ...  3216.45 sec
   Final sigma-completion         ...     0.05 sec
   Done building sigma-vectors             Size of expansion space: 20
   Lowest Energy          :     0.123495877413
   Maximum Energy change  :     0.000003336369 (vector 9)
   Maximum residual norm  :     0.000000543582

      *** CONVERGENCE OF RESIDUAL NORM REACHED ***

Storing the converged CI vectors               ... optpbed3-b2plyp-test-110_job2.cis1

                 *** DAVIDSON DONE ***

Total time for solving the CIS problem: 23114.532sec

------------------
DOUBLES CORRECTION (Double precision version)
------------------

The (D) correction will be scaled by  0.2700
Doing v(i,a)*T(i,a) terms (RI)                    ... ok
Doing u(i,j,a,b) terms for state   0              ... ok
Doing u(i,j,a,b) terms for state   1              ... ok
Doing u(i,j,a,b) terms for state   2              ... ok
Doing u(i,j,a,b) terms for state   3              ... ok
Doing u(i,j,a,b) terms for state   4              ... ok
Doing u(i,j,a,b) terms for state   5              ... ok
Doing u(i,j,a,b) terms for state   6              ... ok
Doing u(i,j,a,b) terms for state   7              ... ok
Doing u(i,j,a,b) terms for state   8              ... ok
Doing u(i,j,a,b) terms for state   9              ... ok

Contributions to the (D) correction(s) (in eV)

STATE  Final   Init.   Total   v(ext)   v(int)  v(3)    u
       omega   omega     (D)                             
-----------------------------------------------------------------------------
   0   2.999   3.360  -0.362   0.660   1.049  -0.049  -2.022
   1   3.934   4.489  -0.554   0.600   1.023  -0.046  -2.131
   2   4.052   4.554  -0.502   0.476   1.008  -0.049  -1.936
   3   4.070   4.611  -0.541   0.553   1.014  -0.050  -2.058
   4   4.381   4.741  -0.360   0.102   1.025  -0.005  -1.483
   5   4.384   4.986  -0.602   0.434   1.004  -0.021  -2.019
   6   4.754   5.097  -0.344   0.054   1.032  -0.002  -1.427
   7   4.834   5.184  -0.351   0.050   1.023  -0.002  -1.422
   8   4.854   5.267  -0.413   0.243   0.941  -0.015  -1.581
   9   4.837   5.336  -0.499   0.279   0.978  -0.015  -1.742

(D)-timings
 V(i,a)*T(i,a) terms           ...  3621.976 sec
 U(i,j,a,b) 3-internal         ...    46.241 sec
 U(i,j,a,b) 3-external         ...  1242.512 sec
 U(i,j,a,b) pair terms         ...  1175.807 sec
 Total measured time           ... 12633.170 sec

 Time for (ab|v) I/O           ...   315.631 sec


------------------------------------
TD-DFT/TDA EXCITED STATES (SINGLETS)
------------------------------------

the weight of the individual excitations are printed if larger than 1.0e-02

STATE  1:  E=   0.110207 au      2.999 eV    24187.6 cm**-1 <S**2> =   0.000000
    97a ->  99a  :     0.021916 (c=  0.14803916)
    98a ->  99a  :     0.909824 (c= -0.95384701)

STATE  2:  E=   0.144575 au      3.934 eV    31730.5 cm**-1 <S**2> =   0.000000
    94a -> 100a  :     0.012429 (c=  0.11148399)
    96a ->  99a  :     0.014736 (c=  0.12139059)
    97a ->  99a  :     0.296926 (c=  0.54490902)
    97a -> 100a  :     0.215935 (c=  0.46468808)
    98a -> 100a  :     0.320012 (c= -0.56569588)
    98a -> 101a  :     0.011698 (c= -0.10815717)

STATE  3:  E=   0.148905 au      4.052 eV    32681.0 cm**-1 <S**2> =   0.000000
    95a ->  99a  :     0.025712 (c=  0.16034898)
    96a ->  99a  :     0.017853 (c=  0.13361681)
    97a ->  99a  :     0.064098 (c= -0.25317486)
    97a -> 108a  :     0.016039 (c=  0.12664515)
    98a -> 100a  :     0.022182 (c= -0.14893531)
    98a -> 101a  :     0.011400 (c=  0.10676898)
    98a -> 102a  :     0.029321 (c= -0.17123510)
    98a -> 103a  :     0.041399 (c=  0.20346822)
    98a -> 104a  :     0.050211 (c= -0.22407862)
    98a -> 106a  :     0.266044 (c=  0.51579436)
    98a -> 107a  :     0.108194 (c=  0.32892812)
    98a -> 108a  :     0.208014 (c=  0.45608515)
    98a -> 109a  :     0.029856 (c=  0.17279030)

STATE  4:  E=   0.149574 au      4.070 eV    32827.6 cm**-1 <S**2> =   0.000000
    94a ->  99a  :     0.010362 (c= -0.10179198)
    95a ->  99a  :     0.012540 (c= -0.11198435)
    97a ->  99a  :     0.368489 (c= -0.60703328)
    97a -> 100a  :     0.123206 (c=  0.35100723)
    98a -> 100a  :     0.191867 (c= -0.43802582)
    98a -> 101a  :     0.052914 (c=  0.23003074)
    98a -> 107a  :     0.040069 (c= -0.20017164)
    98a -> 108a  :     0.063008 (c= -0.25101440)
    98a -> 109a  :     0.013268 (c= -0.11518869)

STATE  5:  E=   0.160981 au      4.381 eV    35331.3 cm**-1 <S**2> =   0.000000
    97a ->  99a  :     0.059632 (c= -0.24419644)
    97a -> 101a  :     0.018830 (c= -0.13722314)
    98a -> 101a  :     0.643854 (c= -0.80240488)
    98a -> 102a  :     0.090895 (c= -0.30148857)
    98a -> 103a  :     0.015102 (c=  0.12289207)
    98a -> 105a  :     0.027401 (c= -0.16553190)
    98a -> 106a  :     0.010824 (c= -0.10403679)
    98a -> 109a  :     0.018761 (c=  0.13697225)
    98a -> 112a  :     0.015696 (c= -0.12528535)
    98a -> 113a  :     0.012376 (c=  0.11124625)

STATE  6:  E=   0.161107 au      4.384 eV    35358.9 cm**-1 <S**2> =   0.000000
    93a ->  99a  :     0.073092 (c=  0.27035464)
    94a ->  99a  :     0.011585 (c=  0.10763476)
    96a ->  99a  :     0.021796 (c=  0.14763347)
    97a ->  99a  :     0.087915 (c=  0.29650453)
    98a -> 102a  :     0.012899 (c= -0.11357579)
    98a -> 103a  :     0.186386 (c=  0.43172388)
    98a -> 104a  :     0.262243 (c= -0.51209627)
    98a -> 105a  :     0.013606 (c=  0.11664425)
    98a -> 106a  :     0.014482 (c=  0.12034034)
    98a -> 107a  :     0.062632 (c= -0.25026310)
    98a -> 108a  :     0.061910 (c= -0.24881667)
    98a -> 111a  :     0.032939 (c=  0.18149133)
    98a -> 116a  :     0.023062 (c=  0.15186184)

STATE  7:  E=   0.174689 au      4.754 eV    38339.8 cm**-1 <S**2> =   0.000000
    97a -> 101a  :     0.021168 (c= -0.14549062)
    97a -> 102a  :     0.011411 (c= -0.10682125)
    98a -> 101a  :     0.067708 (c= -0.26020823)
    98a -> 102a  :     0.548954 (c=  0.74091458)
    98a -> 104a  :     0.071798 (c= -0.26795182)
    98a -> 105a  :     0.101899 (c=  0.31921587)
    98a -> 109a  :     0.049247 (c=  0.22191628)
    98a -> 117a  :     0.013724 (c= -0.11715082)

STATE  8:  E=   0.177628 au      4.834 eV    38984.9 cm**-1 <S**2> =   0.000000
    97a -> 104a  :     0.010875 (c= -0.10428472)
    98a -> 102a  :     0.024513 (c= -0.15656470)
    98a -> 103a  :     0.460015 (c= -0.67824425)
    98a -> 104a  :     0.336000 (c= -0.57965529)
    98a -> 105a  :     0.018823 (c= -0.13719852)
    98a -> 110a  :     0.038590 (c=  0.19644355)
    98a -> 113a  :     0.025484 (c=  0.15963763)
    98a -> 115a  :     0.013603 (c=  0.11663326)

STATE  9:  E=   0.178373 au      4.854 eV    39148.3 cm**-1 <S**2> =   0.000000
    93a ->  99a  :     0.185446 (c= -0.43063449)
    95a ->  99a  :     0.030732 (c= -0.17530571)
    96a ->  99a  :     0.049453 (c= -0.22238060)
    97a -> 103a  :     0.016267 (c=  0.12754203)
    97a -> 104a  :     0.014989 (c= -0.12242838)
    98a -> 101a  :     0.026720 (c=  0.16346158)
    98a -> 102a  :     0.026767 (c= -0.16360624)
    98a -> 103a  :     0.112360 (c=  0.33520137)
    98a -> 104a  :     0.070230 (c= -0.26500932)
    98a -> 105a  :     0.053064 (c=  0.23035622)
    98a -> 106a  :     0.202299 (c= -0.44977622)
    98a -> 107a  :     0.032083 (c=  0.17911650)
    98a -> 108a  :     0.024094 (c=  0.15522227)
    98a -> 111a  :     0.012038 (c= -0.10971995)
    98a -> 118a  :     0.017815 (c=  0.13347416)

STATE 10:  E=   0.177758 au      4.837 eV    39013.4 cm**-1 <S**2> =   0.000000
    93a ->  99a  :     0.102939 (c= -0.32084133)
    94a ->  99a  :     0.032049 (c= -0.17902349)
    96a ->  99a  :     0.045593 (c= -0.21352517)
    97a -> 100a  :     0.024696 (c=  0.15714891)
    97a -> 102a  :     0.036030 (c= -0.18981679)
    98a -> 100a  :     0.024169 (c=  0.15546323)
    98a -> 101a  :     0.029321 (c=  0.17123317)
    98a -> 102a  :     0.014577 (c=  0.12073562)
    98a -> 103a  :     0.031598 (c=  0.17775861)
    98a -> 105a  :     0.140124 (c= -0.37433130)
    98a -> 106a  :     0.024783 (c=  0.15742719)
    98a -> 107a  :     0.062424 (c= -0.24984720)
    98a -> 109a  :     0.148165 (c=  0.38492230)
    98a -> 113a  :     0.035683 (c=  0.18890011)
    98a -> 115a  :     0.010272 (c=  0.10135323)
    98a -> 119a  :     0.040666 (c=  0.20165731)
    98a -> 124a  :     0.028866 (c= -0.16989857)


-----------------------------
TD-DFT/TDA-EXCITATION SPECTRA
-----------------------------

Center of mass = (  2.0897, -0.0394,  0.2082)
Calculating the Dipole integrals                  ... done
Transforming integrals                            ... done
Calculating the Linear Momentum integrals         ... done
Transforming integrals                            ... done
Calculating angular momentum integrals            ... done
Transforming integrals                            ... done

-----------------------------------------------------------------------------
         ABSORPTION SPECTRUM VIA TRANSITION ELECTRIC DIPOLE MOMENTS
-----------------------------------------------------------------------------
State   Energy    Wavelength  fosc         T2        TX        TY        TZ  
        (cm-1)      (nm)                 (au**2)    (au)      (au)      (au) 
-----------------------------------------------------------------------------
   1   24187.6    413.4   1.504358916  20.47550   4.52096   0.18807  -0.03182
   2   31730.5    315.2   0.087984373   0.91286   0.27731   0.26796   0.87416
   3   32681.0    306.0   0.033397482   0.33643   0.16186   0.30619   0.46527
   4   32827.6    304.6   0.040287576   0.40402  -0.61263  -0.11134   0.12770
   5   35331.3    283.0   0.020977026   0.19546  -0.35813  -0.17200   0.19397
   6   35358.9    282.8   0.015945731   0.14846   0.16560  -0.26380  -0.22683
   7   38339.8    260.8   0.011263023   0.09671  -0.19762  -0.08082   0.22611
   8   38984.9    256.5   0.010771710   0.09096   0.14414   0.14261   0.22327
   9   39148.3    255.4   0.010949204   0.09208   0.05593  -0.21767  -0.20388
  10   39013.4    256.3   0.040869421   0.34487   0.53007   0.00152  -0.25278

-----------------------------------------------------------------------------
         ABSORPTION SPECTRUM VIA TRANSITION VELOCITY DIPOLE MOMENTS
-----------------------------------------------------------------------------
State   Energy    Wavelength   fosc        P2         PX        PY        PZ  
        (cm-1)      (nm)                 (au**2)     (au)      (au)      (au) 
-----------------------------------------------------------------------------
   1   24187.6    413.4   1.196062688   0.19772  -0.44444  -0.00767  -0.01159
   2   31730.5    315.2   0.004264792   0.00092  -0.01272  -0.01491  -0.02326
   3   32681.0    306.0   0.005614546   0.00125  -0.01955   0.01632   0.02460
   4   32827.6    304.6   0.019844846   0.00445   0.06393   0.01345   0.01358
   5   35331.3    283.0   0.014648083   0.00354   0.04830   0.03115  -0.01529
   6   35358.9    282.8   0.007386513   0.00179  -0.01750   0.03820   0.00438
   7   38339.8    260.8   0.009497502   0.00249   0.03718   0.01902  -0.02728
   8   38984.9    256.5   0.011101477   0.00296  -0.02271  -0.02145  -0.04452
   9   39148.3    255.4   0.004628570   0.00124   0.00710   0.02949  -0.01784
  10   39013.4    256.3   0.024619068   0.00656  -0.08057  -0.00709   0.00471

-------------------------------------------------------------------
                             CD SPECTRUM
-------------------------------------------------------------------
State  Energy     Wavelength     R         MX        MY        MZ   
       (cm-1)       (nm)     (1e40*cgs)   (au)      (au)      (au)  
-------------------------------------------------------------------
   1   24187.6    413.4    -28.07655   0.01183  -0.54748   0.31679
   2   31730.5    315.2    -37.67308   0.03506  -0.51524   0.05540
   3   32681.0    306.0     33.52759   0.03262  -0.08934   0.20029
   4   32827.6    304.6      5.65574  -0.01248  -0.02101   0.01574
   5   35331.3    283.0     10.23980  -0.01712   0.08021   0.15150
   6   35358.9    282.8    -49.42436  -0.02403   0.24590   0.15866
   7   38339.8    260.8      7.55759   0.00603   0.07114   0.10160
   8   38984.9    256.5      7.34895   0.05850   0.29204  -0.15449
   9   39148.3    255.4    -30.26691   0.01681   0.03111   0.28629
  10   39013.4    256.3     -9.23148  -0.03516  -0.19494   0.00256

-------------------------------------------------------------------
         CD SPECTRUM VIA TRANSITION VELOCITY DIPOLE MOMENTS        
-------------------------------------------------------------------
State  Energy     Wavelength     R         MX        MY        MZ   
       (cm-1)       (nm)     (1e40*cgs)   (au)      (au)      (au)  
-------------------------------------------------------------------
   1   24187.6    413.4    -20.22530   0.01183  -0.54748   0.31679
   2   31730.5    315.2     19.38758   0.03506  -0.51524   0.05540
   3   32681.0    306.0      8.96633   0.03262  -0.08934   0.20029
   4   32827.6    304.6     -2.73232  -0.01248  -0.02101   0.01574
   5   35331.3    283.0     -1.88618  -0.01712   0.08021   0.15150
   6   35358.9    282.8     30.75458  -0.02403   0.24590   0.15866
   7   38339.8    260.8     -3.22341   0.00603   0.07114   0.10160
   8   38984.9    256.5     -1.89169   0.05850   0.29204  -0.15449
   9   39148.3    255.4    -10.75633   0.01681   0.03111   0.28629
  10   39013.4    256.3     11.21167  -0.03516  -0.19494   0.00256

Total run time:    35763.345 sec

           *** ORCA-CIS/TD-DFT FINISHED WITHOUT ERROR ***

Maximum memory used throughout the entire CIS-calculation: 3349.8 MB

-----------------------
CIS/TD-DFT TOTAL ENERGY
-----------------------

    E(SCF)  =  -1486.591446753 Eh
    DE(CIS) =      0.110206740 Eh (Root  1)
    ----------------------------- ---------
    E(tot)  =  -1486.481240013 Eh



-------------------------------------------------------------------------------
                          DFT DISPERSION CORRECTION                            
                                                                               
                              DFTD3 V3.1  Rev 1                                
                          USING Becke-Johnson damping                          
-------------------------------------------------------------------------------
The B2PLYP functional is recognized
Active option DFTDOPT                   ...         4   

molecular C6(AA) [au] = 29029.436363 


            DFT-D V3
 parameters
 s6 scaling factor         :     0.6400 
 a1 scaling factor         :     0.3065 
 s8 scaling factor         :     0.9147 
 a2 scaling factor         :     5.0570 
 ad hoc parameters k1-k3   :    16.0000     1.3333    -4.0000 

 Edisp/kcal,au: -33.074366205015  -0.052707351911 
 E6   /kcal   : -18.409719145 
 E8   /kcal   : -14.664647060 
 % E8         :  44.338406876 

-------------------------   ----------------
Dispersion correction           -0.052707352
-------------------------   ----------------


-------------------------   --------------------
FINAL SINGLE POINT ENERGY     -1486.533947365169
-------------------------   --------------------


                            ***************************************
                            *     ORCA property calculations      *
                            ***************************************


  WARNING: The energy has been calculated at the MP2 level but the densities
           used in the property calculations are still SCF densities
           MP2 response densities have not been calculated 
           use %mp2 Density relaxed end
           or  %mp2 Density unrelaxed end

                                    ---------------------
                                    Active property flags
                                    ---------------------
   (+) Dipole Moment


------------------------------------------------------------------------------
                       ORCA ELECTRIC PROPERTIES CALCULATION
------------------------------------------------------------------------------

Dipole Moment Calculation                       ... on
Quadrupole Moment Calculation                   ... off
Polarizability Calculation                      ... off
GBWName                                         ... optpbed3-b2plyp-test-110_job2.gbw
Electron density                                ... optpbed3-b2plyp-test-110_job2.scfp
The origin for moment calculation is the CENTER OF MASS  = ( 2.089716, -0.039421  0.208242)

-------------
DIPOLE MOMENT
-------------
                                X             Y             Z
Electronic contribution:     48.98220      -1.67011       5.24462
Nuclear contribution   :    -52.17482       1.32035      -6.34865
                        -----------------------------------------
Total Dipole Moment    :     -3.19262      -0.34976      -1.10403
                        -----------------------------------------
Magnitude (a.u.)       :      3.39618
Magnitude (Debye)      :      8.63240



--------------------
Rotational spectrum 
--------------------
 
Rotational constants in cm-1:     0.023336     0.001775     0.001670 
Rotational constants in MHz :   699.597961    53.201924    50.077571 

 Dipole components along the rotational axes: 
x,y,z [a.u.] :    -3.240486    -1.010551    -0.109861 
x,y,z [Debye]:    -8.236661    -2.568616    -0.279246 

 

Timings for individual modules:

Sum of individual times         ...    42783.066 sec (= 713.051 min)
GTO integral calculation        ...        9.108 sec (=   0.152 min)   0.0 %
SCF iterations                  ...     2392.550 sec (=  39.876 min)   5.6 %
MP2 module                      ...     4615.829 sec (=  76.930 min)  10.8 %
CIS module                      ...    35765.580 sec (= 596.093 min)  83.6 %



                             ****ORCA TERMINATED NORMALLY****
TOTAL RUN TIME: 1 days 3 hours 4 minutes 34 seconds 270 msec
