
                                 *****************
                                 * O   R   C   A *
                                 *****************

                                            #,                                       
                                            ###                                      
                                            ####                                     
                                            #####                                    
                                            ######                                   
                                           ########,                                 
                                     ,,################,,,,,                         
                               ,,#################################,,                 
                          ,,##########################################,,             
                       ,#########################################, ''#####,          
                    ,#############################################,,   '####,        
                  ,##################################################,,,,####,       
                ,###########''''           ''''###############################       
              ,#####''   ,,,,##########,,,,          '''####'''          '####       
            ,##' ,,,,###########################,,,                        '##       
           ' ,,###''''                  '''############,,,                           
         ,,##''                                '''############,,,,        ,,,,,,###''
      ,#''                                            '''#######################'''  
     '                                                          ''''####''''         
             ,#######,   #######,   ,#######,      ##                                
            ,#'     '#,  ##    ##  ,#'     '#,    #''#        ######   ,####,        
            ##       ##  ##   ,#'  ##            #'  '#       #        #'  '#        
            ##       ##  #######   ##           ,######,      #####,   #    #        
            '#,     ,#'  ##    ##  '#,     ,#' ,#      #,         ##   #,  ,#        
             '#######'   ##     ##  '#######'  #'      '#     #####' # '####'        



                  #######################################################
                  #                        -***-                        #
                  #          Department of theory and spectroscopy      #
                  #    Directorship and core code : Frank Neese         #
                  #        Max Planck Institute fuer Kohlenforschung    #
                  #                Kaiser Wilhelm Platz 1               #
                  #                 D-45470 Muelheim/Ruhr               #
                  #                      Germany                        #
                  #                                                     #
                  #                  All rights reserved                #
                  #                        -***-                        #
                  #######################################################


                         Program Version 5.0.2 -  RELEASE  -


 With contributions from (in alphabetic order):
   Daniel Aravena         : Magnetic Suceptibility
   Michael Atanasov       : Ab Initio Ligand Field Theory (pilot matlab implementation)
   Alexander A. Auer      : GIAO ZORA, VPT2 properties, NMR spectrum
   Ute Becker             : Parallelization
   Giovanni Bistoni       : ED, misc. LED, open-shell LED, HFLD
   Martin Brehm           : Molecular dynamics
   Dmytro Bykov           : SCF Hessian
   Vijay G. Chilkuri      : MRCI spin determinant printing, contributions to CSF-ICE
   Dipayan Datta          : RHF DLPNO-CCSD density
   Achintya Kumar Dutta   : EOM-CC, STEOM-CC
   Dmitry Ganyushin       : Spin-Orbit,Spin-Spin,Magnetic field MRCI
   Miquel Garcia          : C-PCM and meta-GGA Hessian, CC/C-PCM, Gaussian charge scheme
   Yang Guo               : DLPNO-NEVPT2, F12-NEVPT2, CIM, IAO-localization
   Andreas Hansen         : Spin unrestricted coupled pair/coupled cluster methods
   Benjamin Helmich-Paris : MC-RPA, TRAH-SCF, COSX integrals
   Lee Huntington         : MR-EOM, pCC
   Robert Izsak           : Overlap fitted RIJCOSX, COSX-SCS-MP3, EOM
   Marcus Kettner         : VPT2
   Christian Kollmar      : KDIIS, OOCD, Brueckner-CCSD(T), CCSD density, CASPT2, CASPT2-K
   Simone Kossmann        : Meta GGA functionals, TD-DFT gradient, OOMP2, MP2 Hessian
   Martin Krupicka        : Initial AUTO-CI
   Lucas Lang             : DCDCAS
   Marvin Lechner         : AUTO-CI (C++ implementation), FIC-MRCC
   Dagmar Lenk            : GEPOL surface, SMD
   Dimitrios Liakos       : Extrapolation schemes; Compound Job, initial MDCI parallelization
   Dimitrios Manganas     : Further ROCIS development; embedding schemes
   Dimitrios Pantazis     : SARC Basis sets
   Anastasios Papadopoulos: AUTO-CI, single reference methods and gradients
   Taras Petrenko         : DFT Hessian,TD-DFT gradient, ASA, ECA, R-Raman, ABS, FL, XAS/XES, NRVS
   Peter Pinski           : DLPNO-MP2, DLPNO-MP2 Gradient
   Christoph Reimann      : Effective Core Potentials
   Marius Retegan         : Local ZFS, SOC
   Christoph Riplinger    : Optimizer, TS searches, QM/MM, DLPNO-CCSD(T), (RO)-DLPNO pert. Triples
   Tobias Risthaus        : Range-separated hybrids, TD-DFT gradient, RPA, STAB
   Michael Roemelt        : Original ROCIS implementation
   Masaaki Saitow         : Open-shell DLPNO-CCSD energy and density
   Barbara Sandhoefer     : DKH picture change effects
   Avijit Sen             : IP-ROCIS
   Kantharuban Sivalingam : CASSCF convergence, NEVPT2, FIC-MRCI
   Bernardo de Souza      : ESD, SOC TD-DFT
   Georgi Stoychev        : AutoAux, RI-MP2 NMR, DLPNO-MP2 response
   Willem Van den Heuvel  : Paramagnetic NMR
   Boris Wezisla          : Elementary symmetry handling
   Frank Wennmohs         : Technical directorship


 We gratefully acknowledge several colleagues who have allowed us to
 interface, adapt or use parts of their codes:
   Stefan Grimme, W. Hujo, H. Kruse, P. Pracht,  : VdW corrections, initial TS optimization,
                  C. Bannwarth, S. Ehlert          DFT functionals, gCP, sTDA/sTD-DF
   Ed Valeev, F. Pavosevic, A. Kumar             : LibInt (2-el integral package), F12 methods
   Garnet Chan, S. Sharma, J. Yang, R. Olivares  : DMRG
   Ulf Ekstrom                                   : XCFun DFT Library
   Mihaly Kallay                                 : mrcc  (arbitrary order and MRCC methods)
   Jiri Pittner, Ondrej Demel                    : Mk-CCSD
   Frank Weinhold                                : gennbo (NPA and NBO analysis)
   Christopher J. Cramer and Donald G. Truhlar   : smd solvation model
   Lars Goerigk                                  : TD-DFT with DH, B97 family of functionals
   V. Asgeirsson, H. Jonsson                     : NEB implementation
   FAccTs GmbH                                   : IRC, NEB, NEB-TS, DLPNO-Multilevel, CI-OPT
                                                   MM, QMMM, 2- and 3-layer-ONIOM, Crystal-QMMM,
                                                   LR-CPCM, SF, NACMEs, symmetry and pop. for TD-DFT,
                                                   nearIR, NL-DFT gradient (VV10), updates on ESD,
                                                   ML-optimized integration grids
   S Lehtola, MJT Oliveira, MAL Marques          : LibXC Library
   Liviu Ungur et al                             : ANISO software


 Your calculation uses the libint2 library for the computation of 2-el integrals
 For citations please refer to: http://libint.valeyev.net

 Your ORCA version has been built with support for libXC version: 5.1.0
 For citations please refer to: https://tddft.org/programs/libxc/

 This ORCA versions uses:
   CBLAS   interface :  Fast vector & matrix operations
   LAPACKE interface :  Fast linear algebra routines
   SCALAPACK package :  Parallel linear algebra routines
   Shared memory     :  Shared parallel matrices
   BLAS/LAPACK       :  OpenBLAS 0.3.15  USE64BITINT DYNAMIC_ARCH NO_AFFINITY Sandybridge SINGLE_THREADED
        Core in use  :  Sandybridge
   Copyright (c) 2011-2014, The OpenBLAS Project


Your calculation utilizes the atom-pairwise dispersion correction
with the Becke-Johnson damping scheme (D3BJ)
Cite in your paper:
S.Grimme, S.Ehrlich, L.Goerigk, J Comput Chem, (2011), 32, 1456–1465 
S.Grimme, J.Antony, S.Ehrlich and H.Krieg, J.Chem.Phys., 132, (2010), 154104 
   

Your calculation utilizes the SMD solvation module
Please cite in your paper:
A.V. Marenich, C.J. Cramer, D.G. Truhlar J. Phys. Chem. B, 113, (2009), 6378 

================================================================================

----- Orbital basis set information -----
Your calculation utilizes the basis: aug-cc-pVTZ 
    H, B-Ne : Obtained from the ccRepo (grant-hill.group.shef.ac.uk/ccrepo) Feb. 2017
              R. A. Kendall, T. H. Dunning, Jr., R. J. Harrison, J. Chem. Phys. 96, 6796 (1992)
         He : Obtained from the ccRepo (grant-hill.group.shef.ac.uk/ccrepo) Feb. 2017
              D. E. Woon, T. H. Dunning, Jr., J. Chem. Phys. 100, 2975 (1994)
  Li-Be, Na : Obtained from the ccRepo (grant-hill.group.shef.ac.uk/ccrepo) Feb. 2017
              B. P. Prascher, D. E. Woon, K. A. Peterson, T. H. Dunning, Jr., A. K. Wilson, Theor. Chem. Acc. 128, 69 (2011)
         Mg : Obtained from the Peterson Research Group Website (tyr0.chem.wsu.edu/~kipeters) Feb. 2017
              B. P. Prascher, D. E. Woon, K. A. Peterson, T. H. Dunning, Jr., A. K. Wilson, Theor. Chem. Acc. 128, 69 (2011)
      Al-Ar : Obtained from the ccRepo (grant-hill.group.shef.ac.uk/ccrepo) Feb. 2017
              D. E. Woon, T. H. Dunning, Jr., J. Chem. Phys. 98, 1358 (1993)
      Sc-Zn : Obtained from the ccRepo (grant-hill.group.shef.ac.uk/ccrepo) Feb. 2017
              N. B. Balabanov, K. A. Peterson, J. Chem. Phys. 123, 064107 (2005)
              N. B. Balabanov, K. A. Peterson, J. Chem. Phys. 125, 074110 (2006)
      Ga-Kr : Obtained from the ccRepo (grant-hill.group.shef.ac.uk/ccrepo) Feb. 2017
              A. K. Wilson, D. E. Woon, K. A. Peterson, T. H. Dunning, Jr., J. Chem. Phys. 110, 7667 (1999)
     Ag, Au : Obtained from the Peterson Research Group Website (tyr0.chem.wsu.edu/~kipeters) Feb. 2017
              K. A. Peterson, C. Puzzarini, Theor. Chem. Acc. 114, 283 (2005)

The basis set includes element-specific modifications.

Your calculation utilizes the basis: cc-pVTZ 
       H, B-Ne : Obtained from the ccRepo (grant-hill.group.shef.ac.uk/ccrepo) Feb. 2017
                 T. H. Dunning, Jr., J. Chem. Phys. 90, 1007 (1989)
            He : Obtained from the ccRepo (grant-hill.group.shef.ac.uk/ccrepo) Feb. 2017
                 D. E. Woon, T. H. Dunning, Jr., J. Chem. Phys. 100, 2975 (1994)
  Li-Be, Na-Mg : Obtained from the ccRepo (grant-hill.group.shef.ac.uk/ccrepo) Feb. 2017
                 B. P. Prascher, D. E. Woon, K. A. Peterson, T. H. Dunning, Jr., A. K. Wilson, Theor. Chem. Acc. 128, 69 (2011)
         Al-Ar : Obtained from the ccRepo (grant-hill.group.shef.ac.uk/ccrepo) Feb. 2017
                 D. E. Woon, T. H. Dunning, Jr., J. Chem. Phys. 98, 1358 (1993)
            Ca : Obtained from the Peterson Research Group Website (tyr0.chem.wsu.edu/~kipeters) Feb. 2017
                 J. Koput, K. A. Peterson, J. Phys. Chem. 106, 9595 (2002)
         Sc-Zn : Obtained from the ccRepo (grant-hill.group.shef.ac.uk/ccrepo) Feb. 2017
                 N. B. Balabanov, K. A. Peterson, J. Chem. Phys. 123, 064107 (2005)
                 N. B. Balabanov, K. A. Peterson, J. Chem. Phys. 125, 074110 (2006)
         Ga-Kr : Obtained from the ccRepo (grant-hill.group.shef.ac.uk/ccrepo) Feb. 2017
                 A. K. Wilson, D. E. Woon, K. A. Peterson, T. H. Dunning, Jr., J. Chem. Phys. 110, 7667 (1999)
             Y : Obtained from the ccRepo (grant-hill.group.shef.ac.uk/ccrepo) Feb. 2017
                 K. A. Peterson, D. Figgen, M. Dolg, H. Stoll, J. Chem. Phys. 126, 124101 (2007)
        Ag, Au : Obtained from the Peterson Research Group Website (tyr0.chem.wsu.edu/~kipeters) Feb. 2017
                 K. A. Peterson, C. Puzzarini, Theor. Chem. Acc. 114, 283 (2005)

----- AuxJ basis set information -----
Your calculation utilizes the auxiliary basis: aug-cc-pVTZ/JK 
  H, B-F, Al-Cl, Ga-Br : Obtained from the TURBOMOLE 7.0 basis set library

The basis set includes element-specific modifications.

Your calculation utilizes the auxiliary basis: cc-pVTZ/JK 
  H, B-F, Al-Cl, Ga-Br : Obtained from the TURBOMOLE 7.0 basis set library

----- AuxC basis set information -----
Your calculation utilizes the auxiliary basis: aug-cc-pVTZ/C 
  H-He, B-F, Al-Ar, Ga-Kr : Obtained from the EMSL Basis Set Exchange (bse.pnl.gov) Feb. 2017
                            F. Weigend, A. Kohn, C. Hattig, J. Chem. Phys. 116, 3175 (2002)
                   Be, Mg : Obtained from the TURBOMOLE 7.0 basis set library
                            C. Haettig, Phys. Chem. Chem. Phys. 7, 59 (2005)
                       Ne : Obtained from the EMSL Basis Set Exchange (bse.pnl.gov) Feb. 2017
                            C. Haettig, Phys. Chem. Chem. Phys. 7, 59 (2005)
                            F. Weigend, A. Kohn, C. Hattig, J. Chem. Phys. 116, 3175 (2002)
                    Sc-Zn : Obtained from the EMSL Basis Set Exchange (bse.pnl.gov) Feb. 2017
                            J. G. Hill, J. A. Platts, J. Chem. Phys. 128, 044104 (2008)

The basis set includes element-specific modifications.

Your calculation utilizes the auxiliary basis: cc-pVTZ/C 
  Obtained from the EMSL Basis Set Exchange (bse.pnl.gov) Feb. 2017
  H-He, B-F, Al-Ar, Ga-Kr : F. Weigend, A. Kohn, C. Hattig, J. Chem. Phys. 116, 3175 (2002)
             Li-Be, Na-Mg : C. Haettig, Phys. Chem. Chem. Phys. 7, 59 (2005)
                       Ne : C. Haettig, Phys. Chem. Chem. Phys. 7, 59 (2005)
                            F. Weigend, A. Kohn, C. Hattig, J. Chem. Phys. 116, 3175 (2002)
                    Sc-Zn : J. G. Hill, J. A. Platts, J. Chem. Phys. 128, 044104 (2008)

================================================================================
                                        WARNINGS
                       Please study these warnings very carefully!
================================================================================


WARNING: Geometry Optimization
  ===> : Switching off AutoStart
         For restart on a previous wavefunction, please use MOREAD

INFO   : the flag for use of the SHARK integral package has been found!



***************************************
The coordinates will be read from file: 
***************************************


Your calculation utilizes the atom-pairwise dispersion correction
with the Becke-Johnson damping scheme (D3BJ)
Cite in your paper:
S.Grimme, S.Ehrlich, L.Goerigk, J Comput Chem, (2011), 32, 1456–1465 
S.Grimme, J.Antony, S.Ehrlich and H.Krieg, J.Chem.Phys., 132, (2010), 154104 
   

Your calculation utilizes the SMD solvation module
Please cite in your paper:
A.V. Marenich, C.J. Cramer, D.G. Truhlar J. Phys. Chem. B, 113, (2009), 6378 

================================================================================

----- Orbital basis set information -----
Your calculation utilizes the basis: aug-cc-pVTZ 
    H, B-Ne : Obtained from the ccRepo (grant-hill.group.shef.ac.uk/ccrepo) Feb. 2017
              R. A. Kendall, T. H. Dunning, Jr., R. J. Harrison, J. Chem. Phys. 96, 6796 (1992)
         He : Obtained from the ccRepo (grant-hill.group.shef.ac.uk/ccrepo) Feb. 2017
              D. E. Woon, T. H. Dunning, Jr., J. Chem. Phys. 100, 2975 (1994)
  Li-Be, Na : Obtained from the ccRepo (grant-hill.group.shef.ac.uk/ccrepo) Feb. 2017
              B. P. Prascher, D. E. Woon, K. A. Peterson, T. H. Dunning, Jr., A. K. Wilson, Theor. Chem. Acc. 128, 69 (2011)
         Mg : Obtained from the Peterson Research Group Website (tyr0.chem.wsu.edu/~kipeters) Feb. 2017
              B. P. Prascher, D. E. Woon, K. A. Peterson, T. H. Dunning, Jr., A. K. Wilson, Theor. Chem. Acc. 128, 69 (2011)
      Al-Ar : Obtained from the ccRepo (grant-hill.group.shef.ac.uk/ccrepo) Feb. 2017
              D. E. Woon, T. H. Dunning, Jr., J. Chem. Phys. 98, 1358 (1993)
      Sc-Zn : Obtained from the ccRepo (grant-hill.group.shef.ac.uk/ccrepo) Feb. 2017
              N. B. Balabanov, K. A. Peterson, J. Chem. Phys. 123, 064107 (2005)
              N. B. Balabanov, K. A. Peterson, J. Chem. Phys. 125, 074110 (2006)
      Ga-Kr : Obtained from the ccRepo (grant-hill.group.shef.ac.uk/ccrepo) Feb. 2017
              A. K. Wilson, D. E. Woon, K. A. Peterson, T. H. Dunning, Jr., J. Chem. Phys. 110, 7667 (1999)
     Ag, Au : Obtained from the Peterson Research Group Website (tyr0.chem.wsu.edu/~kipeters) Feb. 2017
              K. A. Peterson, C. Puzzarini, Theor. Chem. Acc. 114, 283 (2005)

The basis set includes element-specific modifications.

Your calculation utilizes the basis: cc-pVTZ 
       H, B-Ne : Obtained from the ccRepo (grant-hill.group.shef.ac.uk/ccrepo) Feb. 2017
                 T. H. Dunning, Jr., J. Chem. Phys. 90, 1007 (1989)
            He : Obtained from the ccRepo (grant-hill.group.shef.ac.uk/ccrepo) Feb. 2017
                 D. E. Woon, T. H. Dunning, Jr., J. Chem. Phys. 100, 2975 (1994)
  Li-Be, Na-Mg : Obtained from the ccRepo (grant-hill.group.shef.ac.uk/ccrepo) Feb. 2017
                 B. P. Prascher, D. E. Woon, K. A. Peterson, T. H. Dunning, Jr., A. K. Wilson, Theor. Chem. Acc. 128, 69 (2011)
         Al-Ar : Obtained from the ccRepo (grant-hill.group.shef.ac.uk/ccrepo) Feb. 2017
                 D. E. Woon, T. H. Dunning, Jr., J. Chem. Phys. 98, 1358 (1993)
            Ca : Obtained from the Peterson Research Group Website (tyr0.chem.wsu.edu/~kipeters) Feb. 2017
                 J. Koput, K. A. Peterson, J. Phys. Chem. 106, 9595 (2002)
         Sc-Zn : Obtained from the ccRepo (grant-hill.group.shef.ac.uk/ccrepo) Feb. 2017
                 N. B. Balabanov, K. A. Peterson, J. Chem. Phys. 123, 064107 (2005)
                 N. B. Balabanov, K. A. Peterson, J. Chem. Phys. 125, 074110 (2006)
         Ga-Kr : Obtained from the ccRepo (grant-hill.group.shef.ac.uk/ccrepo) Feb. 2017
                 A. K. Wilson, D. E. Woon, K. A. Peterson, T. H. Dunning, Jr., J. Chem. Phys. 110, 7667 (1999)
             Y : Obtained from the ccRepo (grant-hill.group.shef.ac.uk/ccrepo) Feb. 2017
                 K. A. Peterson, D. Figgen, M. Dolg, H. Stoll, J. Chem. Phys. 126, 124101 (2007)
        Ag, Au : Obtained from the Peterson Research Group Website (tyr0.chem.wsu.edu/~kipeters) Feb. 2017
                 K. A. Peterson, C. Puzzarini, Theor. Chem. Acc. 114, 283 (2005)

----- AuxJ basis set information -----
Your calculation utilizes the auxiliary basis: aug-cc-pVTZ/JK 
  H, B-F, Al-Cl, Ga-Br : Obtained from the TURBOMOLE 7.0 basis set library

The basis set includes element-specific modifications.

Your calculation utilizes the auxiliary basis: cc-pVTZ/JK 
  H, B-F, Al-Cl, Ga-Br : Obtained from the TURBOMOLE 7.0 basis set library

----- AuxC basis set information -----
Your calculation utilizes the auxiliary basis: aug-cc-pVTZ/C 
  H-He, B-F, Al-Ar, Ga-Kr : Obtained from the EMSL Basis Set Exchange (bse.pnl.gov) Feb. 2017
                            F. Weigend, A. Kohn, C. Hattig, J. Chem. Phys. 116, 3175 (2002)
                   Be, Mg : Obtained from the TURBOMOLE 7.0 basis set library
                            C. Haettig, Phys. Chem. Chem. Phys. 7, 59 (2005)
                       Ne : Obtained from the EMSL Basis Set Exchange (bse.pnl.gov) Feb. 2017
                            C. Haettig, Phys. Chem. Chem. Phys. 7, 59 (2005)
                            F. Weigend, A. Kohn, C. Hattig, J. Chem. Phys. 116, 3175 (2002)
                    Sc-Zn : Obtained from the EMSL Basis Set Exchange (bse.pnl.gov) Feb. 2017
                            J. G. Hill, J. A. Platts, J. Chem. Phys. 128, 044104 (2008)

The basis set includes element-specific modifications.

Your calculation utilizes the auxiliary basis: cc-pVTZ/C 
  Obtained from the EMSL Basis Set Exchange (bse.pnl.gov) Feb. 2017
  H-He, B-F, Al-Ar, Ga-Kr : F. Weigend, A. Kohn, C. Hattig, J. Chem. Phys. 116, 3175 (2002)
             Li-Be, Na-Mg : C. Haettig, Phys. Chem. Chem. Phys. 7, 59 (2005)
                       Ne : C. Haettig, Phys. Chem. Chem. Phys. 7, 59 (2005)
                            F. Weigend, A. Kohn, C. Hattig, J. Chem. Phys. 116, 3175 (2002)
                    Sc-Zn : J. G. Hill, J. A. Platts, J. Chem. Phys. 128, 044104 (2008)

================================================================================
                                        WARNINGS
                       Please study these warnings very carefully!
================================================================================

INFO   : Checking CIS options ...
  ===> : (D) CORRECTION FOUND - SETTING MODE=3
  ===> : JK MODE FOUND - ACTIVATING RI-MP2 CODE
  ===> : MP2 AND CIS FOUND - CHECKING
WARNING: CIS(D) and MP2 runs must have the same orbital window
  ===> : adjusting orbital windows

WARNING: No MP2 level density has been requested!
         To caclulate MP2 level properties use
         %mp2 Density relaxed end
         or
         %mp2 Density unrelaxed end
         Otherwise for double-hybrid DFT only the energy is correct!

WARNING: The frozen-core approximation is turned on by default for 
         the MP2 part of double-hybrid DFT.

INFO   : the flag for use of the SHARK integral package has been found!

================================================================================
                                       INPUT FILE
================================================================================
NAME = optpbed3-b2plyp-test-527.inp
|  1> ! pbe0 d3bj aug-cc-PVTZ RIJCOSX Opt
|  2> %maxcore 4000
|  3> %basis
|  4>  AuxJ "aug-cc-PVTZ/JK"
|  5>  AuxC "aug-cc-PVTZ/C"
|  6>  newGTO H "cc-PVTZ" end
|  7>  newAuxJGTO H "cc-PVTZ/JK" end
|  8>  newAuxCGTO H "cc-PVTZ/C" end
|  9> end
| 10> %cpcm
| 11>  SMD true
| 12>  SMDsolvent "acetonitrile"
| 13> end
| 14> %pal nprocs 4 end
| 15> * xyz 0 1
| 16> C         -5.77930       -0.20890       -0.06660
| 17> N         -4.64040        0.64690        0.15680
| 18> C         -4.86990        2.03810        0.46120
| 19> C         -3.37270        0.15220        0.08700
| 20> C         -2.24830        0.99200        0.19460
| 21> C         -0.97060        0.49750        0.12410
| 22> C         -0.72560       -0.87260       -0.05790
| 23> C          0.56790       -1.46840       -0.14060
| 24> C          1.82250       -0.94960       -0.07690
| 25> O          2.86070       -1.87270       -0.19980
| 26> C          4.03470       -1.20700       -0.11550
| 27> C          5.31470       -1.72280       -0.18570
| 28> C          6.36180       -0.81620       -0.06970
| 29> C          6.16740        0.54630        0.10840
| 30> C          4.87810        1.06800        0.17940
| 31> O          4.64320        2.37820        0.35070
| 32> C          3.82300        0.16200        0.06370
| 33> C          2.39470        0.39400        0.09670
| 34> O          1.84830        1.48860        0.23960
| 35> C         -1.84960       -1.71050       -0.16460
| 36> C         -3.12910       -1.22240       -0.09600
| 37> H         -5.67910       -0.75030       -1.01060
| 38> H         -5.90010       -0.93650        0.74310
| 39> H         -6.68230        0.39440       -0.12020
| 40> H         -5.93270        2.20530        0.61830
| 41> H         -4.53660        2.68700       -0.35530
| 42> H         -4.34340        2.32770        1.37400
| 43> H         -2.37590        2.05360        0.32590
| 44> H         -0.13890        1.17660        0.20750
| 45> H          0.56070       -2.54510       -0.28150
| 46> H          5.49070       -2.77640       -0.32370
| 47> H          7.37420       -1.18850       -0.12060
| 48> H          7.00820        1.21520        0.19380
| 49> H          3.67660        2.51230        0.36990
| 50> H         -1.70240       -2.77270       -0.30190
| 51> H         -3.95040       -1.91570       -0.17480
| 52> *
| 53> 
| 54> 
| 55> $new_job
| 56> ! b2plyp aug-cc-PVTZ RIJCOSX SP
| 57> %maxcore 4000
| 58> %basis
| 59>  AuxJ "aug-cc-PVTZ/JK"
| 60>  AuxC "aug-cc-PVTZ/C"
| 61>  newGTO H "cc-PVTZ" end
| 62>  newAuxJGTO H "cc-PVTZ/JK" end
| 63>  newAuxCGTO H "cc-PVTZ/C" end
| 64> end
| 65> %cpcm
| 66>  SMD true
| 67>  SMDsolvent "acetonitrile"
| 68> end
| 69> %pal nprocs 4 end
| 70> %tddft
| 71>  nroots 10
| 72>  maxdim 7
| 73> end
| 74> * xyzfile 0 1
| 75> 
| 76>                          ****END OF INPUT****
================================================================================


                 $$$$$$$$$$$$$$$$$$$$$$$$$$$$$$$$$$$$$$$$$$$$$$ 
                 $ THERE ARE  2 JOBS TO BE PROCESSED THIS RUN $
                 $$$$$$$$$$$$$$$$$$$$$$$$$$$$$$$$$$$$$$$$$$$$$$ 




                 $$$$$$$$$$$$$$$$  JOB NUMBER  1 $$$$$$$$$$$$$$


                       *****************************
                       * Geometry Optimization Run *
                       *****************************

Geometry optimization settings:
Update method            Update   .... BFGS
Choice of coordinates    CoordSys .... Z-matrix Internals
Initial Hessian          InHess   .... Almoef's Model

Convergence Tolerances:
Energy Change            TolE     ....  5.0000e-06 Eh
Max. Gradient            TolMAXG  ....  3.0000e-04 Eh/bohr
RMS Gradient             TolRMSG  ....  1.0000e-04 Eh/bohr
Max. Displacement        TolMAXD  ....  4.0000e-03 bohr
RMS Displacement         TolRMSD  ....  2.0000e-03 bohr
Strict Convergence                ....  False
------------------------------------------------------------------------------
                        ORCA OPTIMIZATION COORDINATE SETUP
------------------------------------------------------------------------------

The optimization will be done in new redundant internal coordinates
Making redundant internal coordinates   ...  (new redundants) done
Evaluating the initial hessian          ...  (Almloef) done
Evaluating the coordinates              ...  done
Calculating the B-matrix                .... done
Calculating the G-matrix                .... done
Diagonalizing the G-matrix              .... done
Small eigenvalue found = 2.031e-03
Small eigenvalue found = 1.279e-02
Small eigenvalue found = 1.466e-02
Small eigenvalue found = 1.971e-02
Small eigenvalue found = 2.602e-02
The first mode is                       ....   84
The number of degrees of freedom        ....  102

    -----------------------------------------------------------------
                    Redundant Internal Coordinates


    -----------------------------------------------------------------
         Definition                    Initial Value    Approx d2E/dq
    -----------------------------------------------------------------
      1. B(N   1,C   0)                  1.4420         0.462270   
      2. B(C   2,N   1)                  1.4425         0.461463   
      3. B(C   3,N   1)                  1.3626         0.618870   
      4. B(C   4,C   3)                  1.4075         0.585847   
      5. B(C   5,C   4)                  1.3719         0.667835   
      6. B(C   6,C   5)                  1.4037         0.594169   
      7. B(C   7,C   6)                  1.4265         0.546353   
      8. B(C   8,C   7)                  1.3591         0.699827   
      9. B(O   9,C   8)                  1.3947         0.550098   
     10. B(C  10,O   9)                  1.3522         0.642876   
     11. B(C  11,C  10)                  1.3818         0.643898   
     12. B(C  12,C  11)                  1.3899         0.625046   
     13. B(C  13,C  12)                  1.3878         0.629926   
     14. B(C  14,C  13)                  1.3927         0.618717   
     15. B(O  15,C  14)                  1.3421         0.667342   
     16. B(C  16,C  14)                  1.3955         0.612268   
     17. B(C  16,C  10)                  1.3968         0.609350   
     18. B(C  17,C  16)                  1.4474         0.506020   
     19. B(C  17,C   8)                  1.4706         0.464587   
     20. B(O  18,C  17)                  1.2317         1.000941   
     21. B(C  19,C   6)                  1.4060         0.589130   
     22. B(C  20,C  19)                  1.3712         0.669582   
     23. B(C  20,C   3)                  1.4080         0.584901   
     24. B(H  21,C   0)                  1.0928         0.356368   
     25. B(H  22,C   0)                  1.0953         0.353200   
     26. B(H  23,C   0)                  1.0873         0.363670   
     27. B(H  24,C   2)                  1.0873         0.363715   
     28. B(H  25,C   2)                  1.0949         0.353660   
     29. B(H  26,C   2)                  1.0928         0.356378   
     30. B(H  27,C   4)                  1.0773         0.377337   
     31. B(H  28,C   5)                  1.0770         0.377761   
     32. B(H  29,C   7)                  1.0859         0.365559   
     33. B(H  30,C  11)                  1.0771         0.377609   
     34. B(H  31,C  12)                  1.0799         0.373732   
     35. B(H  32,C  13)                  1.0778         0.376598   
     36. B(H  33,O  15)                  0.9760         0.490191   
     37. B(H  34,C  19)                  1.0811         0.372061   
     38. B(H  35,C  20)                  1.0777         0.376763   
     39. A(H  21,C   0,H  23)          107.9654         0.290814   
     40. A(N   1,C   0,H  23)          109.5277         0.334459   
     41. A(N   1,C   0,H  21)          110.8193         0.333334   
     42. A(H  22,C   0,H  23)          108.2668         0.290407   
     43. A(N   1,C   0,H  22)          111.5205         0.332841   
     44. A(H  21,C   0,H  22)          108.6384         0.289484   
     45. A(C   0,N   1,C   2)          118.6470         0.386057   
     46. A(C   0,N   1,C   3)          120.7567         0.406460   
     47. A(C   2,N   1,C   3)          120.5959         0.406334   
     48. A(N   1,C   2,H  24)          109.5312         0.334368   
     49. A(H  24,C   2,H  26)          108.0286         0.290821   
     50. A(H  24,C   2,H  25)          108.3105         0.290472   
     51. A(N   1,C   2,H  26)          110.8050         0.333239   
     52. A(N   1,C   2,H  25)          111.4557         0.332816   
     53. A(H  25,C   2,H  26)          108.6124         0.289545   
     54. A(N   1,C   3,C  20)          121.4719         0.426603   
     55. A(C   4,C   3,C  20)          117.0158         0.425205   
     56. A(N   1,C   3,C   4)          121.5123         0.426726   
     57. A(C   5,C   4,H  27)          118.1508         0.360241   
     58. A(C   3,C   4,H  27)          120.1766         0.352318   
     59. A(C   3,C   4,C   5)          121.6696         0.435448   
     60. A(C   4,C   5,H  28)          119.2079         0.360310   
     61. A(C   4,C   5,C   6)          121.4032         0.436556   
     62. A(C   6,C   5,H  28)          119.3886         0.353227   
     63. A(C   7,C   6,C  19)          118.1371         0.420476   
     64. A(C   5,C   6,C  19)          116.8717         0.426830   
     65. A(C   5,C   6,C   7)          124.9911         0.421115   
     66. A(C   8,C   7,H  29)          112.9969         0.361169   
     67. A(C   6,C   7,H  29)          114.5590         0.346338   
     68. A(C   6,C   7,C   8)          132.4441         0.433649   
     69. A(O   9,C   8,C  17)          108.9940         0.401025   
     70. A(C   7,C   8,C  17)          135.5144         0.421232   
     71. A(C   7,C   8,O   9)          115.4916         0.431342   
     72. A(C   8,O   9,C  10)          108.3582         0.422065   
     73. A(O   9,C  10,C  11)          128.1191         0.437011   
     74. A(C  11,C  10,C  16)          120.8477         0.435670   
     75. A(O   9,C  10,C  16)          111.0332         0.432694   
     76. A(C  10,C  11,H  30)          121.5351         0.358054   
     77. A(C  10,C  11,C  12)          116.7527         0.437672   
     78. A(C  12,C  11,H  30)          121.7122         0.356250   
     79. A(C  11,C  12,H  31)          118.5206         0.355627   
     80. A(C  11,C  12,C  13)          123.0643         0.435945   
     81. A(C  13,C  12,H  31)          118.4151         0.356096   
     82. A(C  12,C  13,C  14)          120.2657         0.435146   
     83. A(C  14,C  13,H  32)          119.0570         0.355473   
     84. A(C  12,C  13,H  32)          120.6773         0.356559   
     85. A(C  13,C  14,O  15)          122.2935         0.436811   
     86. A(O  15,C  14,C  16)          120.8009         0.435987   
     87. A(C  13,C  14,C  16)          116.9056         0.432926   
     88. A(C  14,O  15,H  33)          108.0577         0.371049   
     89. A(C  14,C  16,C  17)          129.8021         0.417625   
     90. A(C  10,C  16,C  17)          108.0340         0.417270   
     91. A(C  10,C  16,C  14)          122.1639         0.431741   
     92. A(C  16,C  17,O  18)          125.6510         0.453273   
     93. A(C   8,C  17,O  18)          130.7683         0.446298   
     94. A(C   8,C  17,C  16)          103.5807         0.397722   
     95. A(C  20,C  19,H  34)          118.8921         0.359538   
     96. A(C   6,C  19,H  34)          119.0986         0.351812   
     97. A(C   6,C  19,C  20)          122.0090         0.436092   
     98. A(C  19,C  20,H  35)          118.5866         0.360308   
     99. A(C   3,C  20,H  35)          120.3797         0.352131   
    100. A(C   3,C  20,C  19)          121.0306         0.435526   
    101. D(C   3,N   1,C   0,H  23)   -171.3141         0.018245   
    102. D(C   2,N   1,C   0,H  21)    127.9338         0.018245   
    103. D(C   3,N   1,C   0,H  22)     68.8613         0.018245   
    104. D(C   2,N   1,C   0,H  22)   -110.9025         0.018245   
    105. D(C   2,N   1,C   0,H  23)      8.9221         0.018245   
    106. D(C   3,N   1,C   0,H  21)    -52.3024         0.018245   
    107. D(H  26,C   2,N   1,C   3)    -52.4847         0.018180   
    108. D(H  26,C   2,N   1,C   0)    127.2795         0.018180   
    109. D(H  24,C   2,N   1,C   0)      8.1963         0.018180   
    110. D(H  25,C   2,N   1,C   3)     68.5919         0.018180   
    111. D(H  25,C   2,N   1,C   0)   -111.6439         0.018180   
    112. D(H  24,C   2,N   1,C   3)   -171.5679         0.018180   
    113. D(C  20,C   3,N   1,C   0)     -5.2223         0.031005   
    114. D(C   4,C   3,N   1,C   2)     -5.4608         0.031005   
    115. D(C   4,C   3,N   1,C   0)    174.7801         0.031005   
    116. D(C  20,C   3,N   1,C   2)    174.5369         0.031005   
    117. D(H  27,C   4,C   3,C  20)    179.4004         0.023603   
    118. D(C   5,C   4,C   3,C  20)      0.0360         0.023603   
    119. D(H  27,C   4,C   3,N   1)     -0.6018         0.023603   
    120. D(C   5,C   4,C   3,N   1)   -179.9663         0.023603   
    121. D(H  28,C   5,C   4,H  27)      0.3878         0.031177   
    122. D(H  28,C   5,C   4,C   3)    179.7646         0.031177   
    123. D(C   6,C   5,C   4,H  27)   -179.4338         0.031177   
    124. D(C   6,C   5,C   4,C   3)     -0.0569         0.031177   
    125. D(C  19,C   6,C   5,H  28)   -179.7963         0.024312   
    126. D(C  19,C   6,C   5,C   4)      0.0249         0.024312   
    127. D(C   7,C   6,C   5,H  28)      0.2394         0.024312   
    128. D(C   7,C   6,C   5,C   4)   -179.9394         0.024312   
    129. D(H  29,C   7,C   6,C   5)    179.9122         0.020411   
    130. D(C   8,C   7,C   6,C  19)    179.9693         0.020411   
    131. D(C   8,C   7,C   6,C   5)     -0.0668         0.020411   
    132. D(H  29,C   7,C   6,C  19)     -0.0517         0.020411   
    133. D(C  17,C   8,C   7,H  29)    179.9812         0.034492   
    134. D(C  17,C   8,C   7,C   6)     -0.0395         0.034492   
    135. D(O   9,C   8,C   7,H  29)     -0.0631         0.034492   
    136. D(O   9,C   8,C   7,C   6)    179.9161         0.034492   
    137. D(C  10,O   9,C   8,C  17)      0.0242         0.021887   
    138. D(C  10,O   9,C   8,C   7)   -179.9429         0.021887   
    139. D(C  16,C  10,O   9,C   8)     -0.0033         0.030490   
    140. D(C  11,C  10,O   9,C   8)    179.9974         0.030490   
    141. D(H  30,C  11,C  10,C  16)   -179.9965         0.028830   
    142. D(C  12,C  11,C  10,C  16)     -0.0009         0.028830   
    143. D(C  12,C  11,C  10,O   9)    179.9983         0.028830   
    144. D(H  30,C  11,C  10,O   9)      0.0027         0.028830   
    145. D(H  31,C  12,C  11,H  30)     -0.0024         0.027061   
    146. D(H  31,C  12,C  11,C  10)   -179.9981         0.027061   
    147. D(C  13,C  12,C  11,H  30)    179.9862         0.027061   
    148. D(C  13,C  12,C  11,C  10)     -0.0095         0.027061   
    149. D(H  32,C  13,C  12,H  31)     -0.0089         0.027512   
    150. D(H  32,C  13,C  12,C  11)   -179.9975         0.027512   
    151. D(C  14,C  13,C  12,H  31)    179.9989         0.027512   
    152. D(C  14,C  13,C  12,C  11)      0.0103         0.027512   
    153. D(C  16,C  14,C  13,H  32)   -179.9927         0.026483   
    154. D(C  16,C  14,C  13,C  12)     -0.0003         0.026483   
    155. D(O  15,C  14,C  13,H  32)      0.0114         0.026483   
    156. D(O  15,C  14,C  13,C  12)   -179.9963         0.026483   
    157. D(H  33,O  15,C  14,C  16)     -0.0284         0.033060   
    158. D(H  33,O  15,C  14,C  13)    179.9674         0.033060   
    159. D(C  10,C  16,C  14,C  13)     -0.0099         0.025901   
    160. D(C  17,C  16,C  10,C  11)    179.9802         0.025641   
    161. D(C  17,C  16,C  10,O   9)     -0.0192         0.025641   
    162. D(C  14,C  16,C  10,C  11)      0.0107         0.025641   
    163. D(C  14,C  16,C  10,O   9)   -179.9886         0.025641   
    164. D(C  17,C  16,C  14,O  15)      0.0239         0.025901   
    165. D(C  17,C  16,C  14,C  13)   -179.9721         0.025901   
    166. D(C  10,C  16,C  14,O  15)    179.9861         0.025901   
    167. D(O  18,C  17,C  16,C  14)      0.0285         0.017446   
    168. D(O  18,C  17,C  16,C  10)   -179.9379         0.017446   
    169. D(C   8,C  17,C  16,C  14)    179.9982         0.017446   
    170. D(C   8,C  17,C  16,C  10)      0.0318         0.017446   
    171. D(O  18,C  17,C   8,O   9)    179.9332         0.014700   
    172. D(O  18,C  17,C   8,C   7)     -0.1091         0.014700   
    173. D(C  16,C  17,C   8,O   9)     -0.0343         0.014700   
    174. D(C  16,C  17,C   8,C   7)    179.9234         0.014700   
    175. D(H  34,C  19,C   6,C   7)      0.1860         0.023881   
    176. D(H  34,C  19,C   6,C   5)   -179.7808         0.023881   
    177. D(C  20,C  19,C   6,C   7)    179.9936         0.023881   
    178. D(C  20,C  19,C   6,C   5)      0.0267         0.023881   
    179. D(H  35,C  20,C  19,H  34)      0.3991         0.031352   
    180. D(H  35,C  20,C  19,C   6)   -179.4088         0.031352   
    181. D(C   3,C  20,C  19,H  34)    179.7608         0.031352   
    182. D(C   3,C  20,C  19,C   6)     -0.0471         0.031352   
    183. D(H  35,C  20,C   3,C   4)    179.3657         0.023523   
    184. D(H  35,C  20,C   3,N   1)     -0.6321         0.023523   
    185. D(C  19,C  20,C   3,C   4)      0.0154         0.023523   
    186. D(C  19,C  20,C   3,N   1)   -179.9824         0.023523   
    -----------------------------------------------------------------

Number of atoms                         .... 36
Number of degrees of freedom            .... 186

         *************************************************************
         *                GEOMETRY OPTIMIZATION CYCLE   1            *
         *************************************************************
---------------------------------
CARTESIAN COORDINATES (ANGSTROEM)
---------------------------------
  C     -5.779300   -0.208900   -0.066600
  N     -4.640400    0.646900    0.156800
  C     -4.869900    2.038100    0.461200
  C     -3.372700    0.152200    0.087000
  C     -2.248300    0.992000    0.194600
  C     -0.970600    0.497500    0.124100
  C     -0.725600   -0.872600   -0.057900
  C      0.567900   -1.468400   -0.140600
  C      1.822500   -0.949600   -0.076900
  O      2.860700   -1.872700   -0.199800
  C      4.034700   -1.207000   -0.115500
  C      5.314700   -1.722800   -0.185700
  C      6.361800   -0.816200   -0.069700
  C      6.167400    0.546300    0.108400
  C      4.878100    1.068000    0.179400
  O      4.643200    2.378200    0.350700
  C      3.823000    0.162000    0.063700
  C      2.394700    0.394000    0.096700
  O      1.848300    1.488600    0.239600
  C     -1.849600   -1.710500   -0.164600
  C     -3.129100   -1.222400   -0.096000
  H     -5.679100   -0.750300   -1.010600
  H     -5.900100   -0.936500    0.743100
  H     -6.682300    0.394400   -0.120200
  H     -5.932700    2.205300    0.618300
  H     -4.536600    2.687000   -0.355300
  H     -4.343400    2.327700    1.374000
  H     -2.375900    2.053600    0.325900
  H     -0.138900    1.176600    0.207500
  H      0.560700   -2.545100   -0.281500
  H      5.490700   -2.776400   -0.323700
  H      7.374200   -1.188500   -0.120600
  H      7.008200    1.215200    0.193800
  H      3.676600    2.512300    0.369900
  H     -1.702400   -2.772700   -0.301900
  H     -3.950400   -1.915700   -0.174800

----------------------------
CARTESIAN COORDINATES (A.U.)
----------------------------
  NO LB      ZA    FRAG     MASS         X           Y           Z
   0 C     6.0000    0    12.011  -10.921294   -0.394764   -0.125856
   1 N     7.0000    0    14.007   -8.769085    1.222464    0.296309
   2 C     6.0000    0    12.011   -9.202777    3.851451    0.871542
   3 C     6.0000    0    12.011   -6.373479    0.287616    0.164406
   4 C     6.0000    0    12.011   -4.248671    1.874608    0.367741
   5 C     6.0000    0    12.011   -1.834168    0.940139    0.234515
   6 C     6.0000    0    12.011   -1.371185   -1.648975   -0.109415
   7 C     6.0000    0    12.011    1.073175   -2.774874   -0.265695
   8 C     6.0000    0    12.011    3.444026   -1.794484   -0.145320
   9 O     8.0000    0    15.999    5.405940   -3.538890   -0.377567
  10 C     6.0000    0    12.011    7.624478   -2.280899   -0.218263
  11 C     6.0000    0    12.011   10.043327   -3.255620   -0.350922
  12 C     6.0000    0    12.011   12.022060   -1.542394   -0.131714
  13 C     6.0000    0    12.011   11.654697    1.032357    0.204846
  14 C     6.0000    0    12.011    9.218273    2.018228    0.339017
  15 O     8.0000    0    15.999    8.774376    4.494147    0.662727
  16 C     6.0000    0    12.011    7.224423    0.306136    0.120376
  17 C     6.0000    0    12.011    4.525327    0.744552    0.182737
  18 O     8.0000    0    15.999    3.492781    2.813046    0.452778
  19 C     6.0000    0    12.011   -3.495237   -3.232377   -0.311049
  20 C     6.0000    0    12.011   -5.913142   -2.310001   -0.181414
  21 H     1.0000    0     1.008  -10.731944   -1.417862   -1.909757
  22 H     1.0000    0     1.008  -11.149573   -1.769729    1.404255
  23 H     1.0000    0     1.008  -12.627717    0.745308   -0.227145
  24 H     1.0000    0     1.008  -11.211178    4.167413    1.168418
  25 H     1.0000    0     1.008   -8.572932    5.077694   -0.671420
  26 H     1.0000    0     1.008   -8.207836    4.398716    2.596484
  27 H     1.0000    0     1.008   -4.489800    3.880742    0.615862
  28 H     1.0000    0     1.008   -0.262483    2.223452    0.392118
  29 H     1.0000    0     1.008    1.059569   -4.809542   -0.531958
  30 H     1.0000    0     1.008   10.375919   -5.246636   -0.611704
  31 H     1.0000    0     1.008   13.935218   -2.245940   -0.227901
  32 H     1.0000    0     1.008   13.243579    2.296395    0.366229
  33 H     1.0000    0     1.008    6.947767    4.747559    0.699010
  34 H     1.0000    0     1.008   -3.217070   -5.239644   -0.570508
  35 H     1.0000    0     1.008   -7.465174   -3.620148   -0.330324

--------------------------------
INTERNAL COORDINATES (ANGSTROEM)
--------------------------------
 C      0   0   0     0.000000000000     0.00000000     0.00000000
 N      1   0   0     1.442010544344     0.00000000     0.00000000
 C      2   1   0     1.442486412414   118.64696697     0.00000000
 C      2   1   3     1.362594371044   120.75674279   179.76376993
 C      4   2   1     1.407521637489   121.51234244   174.78007159
 C      5   4   2     1.371866535054   121.66962974   180.03372509
 C      6   5   4     1.403681947594   121.40321778   359.94306660
 C      7   6   5     1.426519954294   124.99113913   180.06061049
 C      8   7   6     1.359129239624   132.44410604   359.93319481
 O      9   8   7     1.394660266875   115.49158741   179.91611513
 C     10   9   8     1.352234809491   108.35817580   180.05707852
 C     11  10   9     1.381802330292   128.11907476   179.99743964
 C     12  11  10     1.389891351869   116.75272814   179.99833883
 C     13  12  11     1.387774196330   123.06434160     0.00000000
 C     14  13  12     1.392661617192   120.26569770     0.00000000
 O     15  14  13     1.342067710661   122.29350801   180.00372297
 C     15  14  13     1.395513704698   116.90556900     0.00000000
 C     17  15  14     1.447395554090   129.80210604   180.02791599
 O     18  17  15     1.231715279600   125.65097629     0.02845192
 C      7   6   5     1.406000462304   116.87172214     0.02491398
 C     20   7   6     1.371155651266   122.00900470     0.02671793
 H      1   2   3     1.092835760762   110.81928173   127.93384167
 H      1   2   3     1.095266401384   111.52048787   249.09751879
 H      1   2   3     1.087314512917   109.52770797     8.92211399
 H      3   2   1     1.087281053822   109.53115230     8.19630807
 H      3   2   1     1.094912028430   111.45572417   248.35608186
 H      3   2   1     1.092828554715   110.80501191   127.27948944
 H      5   4   2     1.077272486421   120.17660571   359.39816602
 H      6   5   4     1.076966694007   119.20790622   179.76463108
 H      8   7   6     1.085904019700   114.55898557   179.91216595
 H     12  11  10     1.077076116159   121.53506976     0.00000000
 H     13  12  11     1.079885114260   118.52058756   180.00191132
 H     14  13  12     1.077805645745   120.67725853   180.00249741
 H     16  15  14     0.976046622862   108.05765324   179.96737825
 H     20   7   6     1.081104976401   119.09862514   180.21917165
 H     21  20   7     1.077686420068   118.58659980   180.59118929

---------------------------
INTERNAL COORDINATES (A.U.)
---------------------------
 C      0   0   0     0.000000000000     0.00000000     0.00000000
 N      1   0   0     2.725005011037     0.00000000     0.00000000
 C      2   1   0     2.725904271366   118.64696697     0.00000000
 C      2   1   3     2.574930192895   120.75674279   179.76376993
 C      4   2   1     2.659830422423   121.51234244   174.78007159
 C      5   4   2     2.592452043543   121.66962974   180.03372509
 C      6   5   4     2.652574460081   121.40321778   359.94306660
 C      7   6   5     2.695732038190   124.99113913   180.06061049
 C      8   7   6     2.568382043493   132.44410604   359.93319481
 O      9   8   7     2.635525954255   115.49158741   179.91611513
 C     10   9   8     2.555353458694   108.35817580   180.05707852
 C     11  10   9     2.611227975466   128.11907476   179.99743964
 C     12  11  10     2.626514010938   116.75272814   179.99833883
 C     13  12  11     2.622513166787   123.06434160     0.00000000
 C     14  13  12     2.631749053717   120.26569770     0.00000000
 O     15  14  13     2.536140426329   122.29350801   180.00372297
 C     15  14  13     2.637138718013   116.90556900     0.00000000
 C     17  15  14     2.735181204686   129.80210604   180.02791599
 O     18  17  15     2.327604553410   125.65097629     0.02845192
 C      7   6   5     2.656955817922   116.87172214     0.02491398
 C     20   7   6     2.591108667872   122.00900470     0.02671793
 H      1   2   3     2.065160297195   110.81928173   127.93384167
 H      1   2   3     2.069753542301   111.52048787   249.09751879
 H      1   2   3     2.054726650851   109.52770797     8.92211399
 H      3   2   1     2.054663422325   109.53115230     8.19630807
 H      3   2   1     2.069083874468   111.45572417   248.35608186
 H      3   2   1     2.065146679740   110.80501191   127.27948944
 H      5   4   2     2.035749970944   120.17660571   359.39816602
 H      6   5   4     2.035172107027   119.20790622   179.76463108
 H      8   7   6     2.052061204957   114.55898557   179.91216595
 H     12  11  10     2.035378884928   121.53506976     0.00000000
 H     13  12  11     2.040687122049   118.52058756   180.00191132
 H     14  13  12     2.036757496052   120.67725853   180.00249741
 H     16  15  14     1.844460811148   108.05765324   179.96737825
 H     20   7   6     2.042992327418   119.09862514   180.21917165
 H     21  20   7     2.036532192175   118.58659980   180.59118929

---------------------
BASIS SET INFORMATION
---------------------
There are 4 groups of distinct atoms

 Group   1 Type C   : 19s6p3d2f contracted to 5s4p3d2f pattern {88111/3111/111/11}
 Group   2 Type N   : 19s6p3d2f contracted to 5s4p3d2f pattern {88111/3111/111/11}
 Group   3 Type O   : 19s6p3d2f contracted to 5s4p3d2f pattern {88111/3111/111/11}
 Group   4 Type H   : 5s2p1d contracted to 3s2p1d pattern {311/11/1}

Atom   0C    basis set group =>   1
Atom   1N    basis set group =>   2
Atom   2C    basis set group =>   1
Atom   3C    basis set group =>   1
Atom   4C    basis set group =>   1
Atom   5C    basis set group =>   1
Atom   6C    basis set group =>   1
Atom   7C    basis set group =>   1
Atom   8C    basis set group =>   1
Atom   9O    basis set group =>   3
Atom  10C    basis set group =>   1
Atom  11C    basis set group =>   1
Atom  12C    basis set group =>   1
Atom  13C    basis set group =>   1
Atom  14C    basis set group =>   1
Atom  15O    basis set group =>   3
Atom  16C    basis set group =>   1
Atom  17C    basis set group =>   1
Atom  18O    basis set group =>   3
Atom  19C    basis set group =>   1
Atom  20C    basis set group =>   1
Atom  21H    basis set group =>   4
Atom  22H    basis set group =>   4
Atom  23H    basis set group =>   4
Atom  24H    basis set group =>   4
Atom  25H    basis set group =>   4
Atom  26H    basis set group =>   4
Atom  27H    basis set group =>   4
Atom  28H    basis set group =>   4
Atom  29H    basis set group =>   4
Atom  30H    basis set group =>   4
Atom  31H    basis set group =>   4
Atom  32H    basis set group =>   4
Atom  33H    basis set group =>   4
Atom  34H    basis set group =>   4
Atom  35H    basis set group =>   4
---------------------------------
AUXILIARY/J BASIS SET INFORMATION
---------------------------------
There are 4 groups of distinct atoms

 Group   1 Type C   : 10s7p5d2f1g contracted to 10s7p5d2f1g pattern {1111111111/1111111/11111/11/1}
 Group   2 Type N   : 10s7p5d2f1g contracted to 10s7p5d2f1g pattern {1111111111/1111111/11111/11/1}
 Group   3 Type O   : 10s7p5d2f1g contracted to 10s7p5d2f1g pattern {1111111111/1111111/11111/11/1}
 Group   4 Type H   : 4s3p2d1f contracted to 4s3p2d1f pattern {1111/111/11/1}

Atom   0C    basis set group =>   1
Atom   1N    basis set group =>   2
Atom   2C    basis set group =>   1
Atom   3C    basis set group =>   1
Atom   4C    basis set group =>   1
Atom   5C    basis set group =>   1
Atom   6C    basis set group =>   1
Atom   7C    basis set group =>   1
Atom   8C    basis set group =>   1
Atom   9O    basis set group =>   3
Atom  10C    basis set group =>   1
Atom  11C    basis set group =>   1
Atom  12C    basis set group =>   1
Atom  13C    basis set group =>   1
Atom  14C    basis set group =>   1
Atom  15O    basis set group =>   3
Atom  16C    basis set group =>   1
Atom  17C    basis set group =>   1
Atom  18O    basis set group =>   3
Atom  19C    basis set group =>   1
Atom  20C    basis set group =>   1
Atom  21H    basis set group =>   4
Atom  22H    basis set group =>   4
Atom  23H    basis set group =>   4
Atom  24H    basis set group =>   4
Atom  25H    basis set group =>   4
Atom  26H    basis set group =>   4
Atom  27H    basis set group =>   4
Atom  28H    basis set group =>   4
Atom  29H    basis set group =>   4
Atom  30H    basis set group =>   4
Atom  31H    basis set group =>   4
Atom  32H    basis set group =>   4
Atom  33H    basis set group =>   4
Atom  34H    basis set group =>   4
Atom  35H    basis set group =>   4
---------------------------------
AUXILIARY/C BASIS SET INFORMATION
---------------------------------
There are 4 groups of distinct atoms

 Group   1 Type C   : 9s7p6d4f2g contracted to 9s7p6d4f2g pattern {111111111/1111111/111111/1111/11}
 Group   2 Type N   : 9s7p6d4f2g contracted to 9s7p6d4f2g pattern {111111111/1111111/111111/1111/11}
 Group   3 Type O   : 9s7p6d4f2g contracted to 9s7p6d4f2g pattern {111111111/1111111/111111/1111/11}
 Group   4 Type H   : 4s3p2d1f contracted to 4s3p2d1f pattern {1111/111/11/1}

Atom   0C    basis set group =>   1
Atom   1N    basis set group =>   2
Atom   2C    basis set group =>   1
Atom   3C    basis set group =>   1
Atom   4C    basis set group =>   1
Atom   5C    basis set group =>   1
Atom   6C    basis set group =>   1
Atom   7C    basis set group =>   1
Atom   8C    basis set group =>   1
Atom   9O    basis set group =>   3
Atom  10C    basis set group =>   1
Atom  11C    basis set group =>   1
Atom  12C    basis set group =>   1
Atom  13C    basis set group =>   1
Atom  14C    basis set group =>   1
Atom  15O    basis set group =>   3
Atom  16C    basis set group =>   1
Atom  17C    basis set group =>   1
Atom  18O    basis set group =>   3
Atom  19C    basis set group =>   1
Atom  20C    basis set group =>   1
Atom  21H    basis set group =>   4
Atom  22H    basis set group =>   4
Atom  23H    basis set group =>   4
Atom  24H    basis set group =>   4
Atom  25H    basis set group =>   4
Atom  26H    basis set group =>   4
Atom  27H    basis set group =>   4
Atom  28H    basis set group =>   4
Atom  29H    basis set group =>   4
Atom  30H    basis set group =>   4
Atom  31H    basis set group =>   4
Atom  32H    basis set group =>   4
Atom  33H    basis set group =>   4
Atom  34H    basis set group =>   4
Atom  35H    basis set group =>   4


           ************************************************************
           *        Program running with 4 parallel MPI-processes     *
           *              working on a common directory               *
           ************************************************************
------------------------------------------------------------------------------
                           ORCA GTO INTEGRAL CALCULATION
                           -- RI-GTO INTEGRALS CHOSEN --
------------------------------------------------------------------------------
------------------------------------------------------------------------------
                   ___                                                        
                  /   \      - P O W E R E D   B Y -                         
                 /     \                                                     
                 |  |  |   _    _      __       _____    __    __             
                 |  |  |  | |  | |    /  \     |  _  \  |  |  /  |          
                  \  \/   | |  | |   /    \    | | | |  |  | /  /          
                 / \  \   | |__| |  /  /\  \   | |_| |  |  |/  /          
                |  |  |   |  __  | /  /__\  \  |    /   |      \           
                |  |  |   | |  | | |   __   |  |    \   |  |\   \          
                \     /   | |  | | |  |  |  |  | |\  \  |  | \   \       
                 \___/    |_|  |_| |__|  |__|  |_| \__\ |__|  \__/        
                                                                              
                      - O R C A' S   B I G   F R I E N D -                    
                                      &                                       
                       - I N T E G R A L  F E E D E R -                       
                                                                              
 v1 FN, 2020, v2 2021                                                         
------------------------------------------------------------------------------


Reading SHARK input file optpbed3-b2plyp-test-527.SHARKINP.tmp ... ok
----------------------
SHARK INTEGRAL PACKAGE
----------------------

Number of atoms                             ...     36
Number of basis functions                   ...   1302
Number of shells                            ...    510
Maximum angular momentum                    ...      3
Integral batch strategy                     ... SHARK/LIBINT Hybrid
RI-J (if used) integral strategy            ... SPLIT-RIJ (Revised 2003 algorithm where possible)
Printlevel                                  ...      1
Contraction scheme used                     ... PARTIAL GENERAL contraction
Coulomb Range Separation                    ... NOT USED
Exchange Range Separation                   ... NOT USED
Finite Nucleus Model                        ... NOT USED
Auxiliary Coulomb fitting basis             ... AVAILABLE
   # of basis functions in Aux-J            ...   2109
   # of shells in Aux-J                     ...    675
   Maximum angular momentum in Aux-J        ...      4
Auxiliary J/K fitting basis                 ... NOT available
Auxiliary Correlation fitting basis         ... AVAILABLE
   # of basis functions in Aux-C            ...   2676
   # of shells in Aux-C                     ...    738
   Maximum angular momentum in Aux-C        ...      4
Auxiliary 'external' fitting basis          ... NOT available
Integral threshold                          ...     2.500000e-11
Primitive cut-off                           ...     2.500000e-12
Primitive pair pre-selection threshold      ...     2.500000e-12

Calculating pre-screening integrals         ... done (  0.3 sec) Dimension = 510
Calculating pre-screening integrals (ORCA)  ... done (  0.7 sec) Dimension = 384
Organizing shell pair data                  ... done (  1.0 sec)
Shell pair information
Total number of shell pairs                 ...    130305
Shell pairs after pre-screening             ...     78319
Total number of primitive shell pairs       ...    169761
Primitive shell pairs kept                  ...     91842
          la=0 lb=0:  17800 shell pairs
          la=1 lb=0:  20219 shell pairs
          la=1 lb=1:   4979 shell pairs
          la=2 lb=0:  13123 shell pairs
          la=2 lb=1:   6515 shell pairs
          la=2 lb=2:   2201 shell pairs
          la=3 lb=0:   7004 shell pairs
          la=3 lb=1:   3504 shell pairs
          la=3 lb=2:   2324 shell pairs
          la=3 lb=3:    650 shell pairs

Calculating one electron integrals          ... done (  0.3 sec)
Calculating RI/J V-Matrix + Cholesky decomp.... done (  0.4 sec)
Calculating RI/C V-Matrix + Cholesky decomp.... done (  0.6 sec)
Calculating Nuclear repulsion               ... done (  0.0 sec) ENN=   1525.350545673419 Eh

SHARK setup successfully completed in   4.7 seconds

Maximum memory used throughout the entire GTOINT-calculation: 126.6 MB


           ************************************************************
           *        Program running with 4 parallel MPI-processes     *
           *              working on a common directory               *
           ************************************************************
-------------------------------------------------------------------------------
                                 ORCA SCF
-------------------------------------------------------------------------------

------------
SCF SETTINGS
------------
Hamiltonian:
 Density Functional     Method          .... DFT(GTOs)
 Exchange Functional    Exchange        .... PBE
   PBE kappa parameter   XKappa         ....  0.804000
   PBE mue parameter    XMuePBE         ....  0.219520
 Correlation Functional Correlation     .... PBE
   PBE beta parameter  CBetaPBE         ....  0.066725
 LDA part of GGA corr.  LDAOpt          .... PW91-LDA
 Gradients option       PostSCFGGA      .... off
 Hybrid DFT is turned on
   Fraction HF Exchange ScalHFX         ....  0.250000
   Scaling of DF-GGA-X  ScalDFX         ....  0.750000
   Scaling of DF-GGA-C  ScalDFC         ....  1.000000
   Scaling of DF-LDA-C  ScalLDAC        ....  1.000000
   Perturbative correction              ....  0.000000
   Density functional embedding theory  .... OFF
   NL short-range parameter             ....  6.900000
 RI-approximation to the Coulomb term is turned on
   Number of AuxJ basis functions       .... 2109
   RIJ-COSX (HFX calculated with COS-X)).... on


General Settings:
 Integral files         IntName         .... optpbed3-b2plyp-test-527
 Hartree-Fock type      HFTyp           .... RHF
 Total Charge           Charge          ....    0
 Multiplicity           Mult            ....    1
 Number of Electrons    NEL             ....  148
 Basis Dimension        Dim             .... 1176
 Nuclear Repulsion      ENuc            ....   1525.3505456734 Eh

Convergence Acceleration:
 DIIS                   CNVDIIS         .... on
   Start iteration      DIISMaxIt       ....    12
   Startup error        DIISStart       ....  0.200000
   # of expansion vecs  DIISMaxEq       ....     5
   Bias factor          DIISBfac        ....   1.050
   Max. coefficient     DIISMaxC        ....  10.000
 Trust-Rad. Augm. Hess. CNVTRAH         .... auto
   Auto Start mean grad. ratio tolernc. ....  1.125000
   Auto Start start iteration           ....    20
   Auto Start num. interpolation iter.  ....    10
   Max. Number of Micro iterations      ....    16
   Max. Number of Macro iterations      .... Maxiter - #DIIS iter
   Number of Davidson start vectors     ....     2
   Converg. threshold I  (grad. norm)   ....   1.000e-05
   Converg. threshold II (energy diff.) ....   1.000e-08
   Grad. Scal. Fac. for Micro threshold ....   0.100
   Minimum threshold for Micro iter.    ....   0.010
   NR start threshold (gradient norm)   ....   0.001
   Initial trust radius                 ....   0.400
   Minimum AH scaling param. (alpha)    ....   1.000
   Maximum AH scaling param. (alpha)    .... 1000.000
   Orbital update algorithm             .... Taylor
   White noise on init. David. guess    .... on
   Maximum white noise                  ....   0.010
   Quad. conv. algorithm                .... NR
 SOSCF                  CNVSOSCF        .... on
   Start iteration      SOSCFMaxIt      ....   150
   Startup grad/error   SOSCFStart      ....  0.003300
 Level Shifting         CNVShift        .... on
   Level shift para.    LevelShift      ....    0.2500
   Turn off err/grad.   ShiftErr        ....    0.0010
 Zerner damping         CNVZerner       .... off
 Static damping         CNVDamp         .... on
   Fraction old density DampFac         ....    0.7000
   Max. Damping (<1)    DampMax         ....    0.9800
   Min. Damping (>=0)   DampMin         ....    0.0000
   Turn off err/grad.   DampErr         ....    0.1000
 Fernandez-Rico         CNVRico         .... off

SCF Procedure:
 Maximum # iterations   MaxIter         ....   125
 SCF integral mode      SCFMode         .... Direct
   Integral package                     .... SHARK and LIBINT hybrid scheme
 Reset frequency        DirectResetFreq ....    20
 Integral Threshold     Thresh          ....  2.500e-11 Eh
 Primitive CutOff       TCut            ....  2.500e-12 Eh

Convergence Tolerance:
 Convergence Check Mode ConvCheckMode   .... Total+1el-Energy
 Convergence forced     ConvForced      .... 0
 Energy Change          TolE            ....  1.000e-08 Eh
 1-El. energy change                    ....  1.000e-05 Eh
 Orbital Gradient       TolG            ....  1.000e-05
 Orbital Rotation angle TolX            ....  1.000e-05
 DIIS Error             TolErr          ....  5.000e-07


Diagonalization of the overlap matrix:
Smallest eigenvalue                        ... 1.941e-07
Time for diagonalization                   ...    0.365 sec
Threshold for overlap eigenvalues          ... 1.000e-08
Number of eigenvalues below threshold      ... 0
Time for construction of square roots      ...    0.278 sec
Total time needed                          ...    0.651 sec

Time for model grid setup =    1.630 sec

------------------------------
INITIAL GUESS: MODEL POTENTIAL
------------------------------
Loading Hartree-Fock densities                     ... done
Calculating cut-offs                               ... done
Initializing the effective Hamiltonian             ... done
Setting up the integral package (SHARK)            ... done
Starting the Coulomb interaction                   ... done (   3.2 sec)
Reading the grid                                   ... done
Mapping shells                                     ... done
Starting the XC term evaluation                    ... done (   2.2 sec)
  promolecular density results
     # of electrons  =    147.998210260
     EX              =   -122.517600504
     EC              =     -4.995192913
     EX+EC           =   -127.512793417
Transforming the Hamiltonian                       ... done (   0.2 sec)
Diagonalizing the Hamiltonian                      ... done (   0.4 sec)
Back transforming the eigenvectors                 ... done (   0.1 sec)
Now organizing SCF variables                       ... done
                      ------------------
                      INITIAL GUESS DONE (   7.7 sec)
                      ------------------
-------------------
DFT GRID GENERATION
-------------------

General Integration Accuracy     IntAcc      ... 4.388
Radial Grid Type                 RadialGrid  ... OptM3 with GC (2021)
Angular Grid (max. ang.)         AngularGrid ... 4 (Lebedev-302)
Angular grid pruning method      GridPruning ... 4 (adaptive)
Weight generation scheme         WeightScheme... Becke
Basis function cutoff            BFCut       ... 1.0000e-11
Integration weight cutoff        WCut        ... 1.0000e-14
Angular grids for H and He will be reduced by one unit
Partially contracted basis set               ... off
Rotationally invariant grid construction     ... off

Total number of grid points                  ...   178589
Total number of batches                      ...     2806
Average number of points per batch           ...       63
Average number of grid points per atom       ...     4961
Time for grid setup =    3.286 sec

--------------------
COSX GRID GENERATION
--------------------

GRIDX 1
-------
General Integration Accuracy     IntAcc      ... 3.816
Radial Grid Type                 RadialGrid  ... OptM3 with GC (2021)
Angular Grid (max. ang.)         AngularGrid ... 1 (Lebedev-50)
Angular grid pruning method      GridPruning ... 4 (adaptive)
Weight generation scheme         WeightScheme... Becke
Basis function cutoff            BFCut       ... 1.0000e-11
Integration weight cutoff        WCut        ... 1.0000e-14
Angular grids for H and He will be reduced by one unit
Partially contracted basis set               ... on
Rotationally invariant grid construction     ... off

Total number of grid points                  ...    22776
Total number of batches                      ...      375
Average number of points per batch           ...       60
Average number of grid points per atom       ...      633
UseSFitting                                  ... on

GRIDX 2
-------
General Integration Accuracy     IntAcc      ... 4.020
Radial Grid Type                 RadialGrid  ... OptM3 with GC (2021)
Angular Grid (max. ang.)         AngularGrid ... 2 (Lebedev-110)
Angular grid pruning method      GridPruning ... 4 (adaptive)
Weight generation scheme         WeightScheme... Becke
Basis function cutoff            BFCut       ... 1.0000e-11
Integration weight cutoff        WCut        ... 1.0000e-14
Angular grids for H and He will be reduced by one unit
Partially contracted basis set               ... on
Rotationally invariant grid construction     ... off

Total number of grid points                  ...    53888
Total number of batches                      ...      859
Average number of points per batch           ...       62
Average number of grid points per atom       ...     1497
UseSFitting                                  ... on

GRIDX 3
-------
General Integration Accuracy     IntAcc      ... 4.338
Radial Grid Type                 RadialGrid  ... OptM3 with GC (2021)
Angular Grid (max. ang.)         AngularGrid ... 3 (Lebedev-194)
Angular grid pruning method      GridPruning ... 4 (adaptive)
Weight generation scheme         WeightScheme... Becke
Basis function cutoff            BFCut       ... 1.0000e-11
Integration weight cutoff        WCut        ... 1.0000e-14
Angular grids for H and He will be reduced by one unit
Partially contracted basis set               ... on
Rotationally invariant grid construction     ... off

Total number of grid points                  ...   116279
Total number of batches                      ...     1835
Average number of points per batch           ...       63
Average number of grid points per atom       ...     3230
UseSFitting                                  ... on

Time for X-Grid setup             =    7.131 sec


--------------------
CPCM SOLVATION MODEL
--------------------
CPCM parameters:
  Epsilon                                         ...      35.6880
  Refrac                                          ...       1.3442
  Rsolv                                           ...       1.3000
  Surface type                                    ... GAUSSIAN VDW
  Epsilon function type                           ...         CPCM
Solvent:                                     ... ACETONITRILE
SMD-CDS solvent descriptors:
  Soln                                       ...    1.3442
  Soln25                                     ...    1.3416
  Sola                                       ...    0.0700
  Solb                                       ...    0.3200
  Solg                                       ...   41.2500
  Solc                                       ...    0.0000
  Solh                                       ...    0.0000
Radii:
 Radius for C  used is    3.4960 Bohr (=   1.8500 Ang.)
 Radius for N  used is    3.5716 Bohr (=   1.8900 Ang.)
 Radius for O  used is    4.0969 Bohr (=   2.1680 Ang.)
 Radius for H  used is    2.2677 Bohr (=   1.2000 Ang.)
Calculating surface                               ...        done! (  0.0s)
GEPOL surface points                              ...         1942
GEPOL Volume                                      ...    2107.1746
GEPOL Surface-area                                ...    1124.9310
Calculating surface distance matrix               ...        done! (  0.1s)
Performing Cholesky decomposition & store         ...        done! (  0.3s)
Overall time for CPCM initialization              ...                 0.3s
 re-compute Schwartz prescreening matrix in partically contracted basis (1) ...done (   0.275 sec)
--------------
SCF ITERATIONS
--------------
ITER       Energy         Delta-E        Max-DP      RMS-DP      [F,P]     Damp
               ***  Starting incremental Fock matrix formation  ***
  0   -936.0933014347   0.000000000000 0.14457095  0.00141508  0.2740865 0.7000
  1   -936.2844526645  -0.191151229808 0.13171892  0.00109980  0.1152666 0.7000
                               ***Turning on DIIS***
  2   -936.3686742128  -0.084221548235 0.37801931  0.00244440  0.0446147 0.0000
  3   -936.4995849315  -0.130910718737 0.04119997  0.00052530  0.0497296 0.0000
  4   -936.5255250595  -0.025940128029 0.02916199  0.00019285  0.0141998 0.0000
  5   -936.5268813676  -0.001356308059 0.00783510  0.00008792  0.0106876 0.0000
                      *** Initiating the SOSCF procedure ***
                           *** Shutting down DIIS ***
                      *** Re-Reading the Fockian *** 
                      *** Removing any level shift *** 
ITER      Energy       Delta-E        Grad      Rot      Max-DP    RMS-DP
  6   -936.52705031  -0.0001689379  0.000411  0.000411  0.024860  0.000107
               *** Restarting incremental Fock matrix formation ***
  7   -936.52707054  -0.0000202356  0.000272  0.001744  0.054441  0.000640
  8   -936.52707427  -0.0000037253  0.000224  0.000921  0.020765  0.000249
  9   -936.52707533  -0.0000010666  0.000145  0.000421  0.029066  0.000275
 10   -936.52707631  -0.0000009749  0.000027  0.000111  0.007787  0.000068
 11   -936.52707632  -0.0000000106  0.000034  0.000105  0.012084  0.000078
 12   -936.52707640  -0.0000000830  0.000010  0.000028  0.042041  0.000218
 13   -936.52707641  -0.0000000036  0.000008  0.000018  0.008387  0.000053
 14   -936.52707641  -0.0000000062  0.000003  0.000011  0.036246  0.000184
                  ***Gradient check signals convergence***
              ***Rediagonalizing the Fockian in SOSCF/NRSCF***

               *****************************************************
               *                     SUCCESS                       *
               *           SCF CONVERGED AFTER  15 CYCLES          *
               *****************************************************

Old exchange energy                            =    -31.219899723 Eh
New exchange energy                            =    -31.219845670 Eh
Exchange energy change after final integration =      0.000054052 Eh
Total energy after final integration           =   -936.527022329 Eh
Final COS-X integration done in                =   161.107 sec

SMD CDS free energy correction energy :                -4.12623     Kcal/mol
Total Energy after SMD CDS correction =              -936.533597902 Eh

----------------
TOTAL SCF ENERGY
----------------

Total Energy       :         -936.53359790 Eh          -25484.37480 eV

Components:
Nuclear Repulsion  :         1525.35054567 Eh           41506.89852 eV
Electronic Energy  :        -2461.88414358 Eh          -66991.27332 eV
One Electron Energy:        -4302.95247725 Eh         -117089.28961 eV
Two Electron Energy:         1841.06833367 Eh           50098.01629 eV
Max COSX asymmetry :            0.00004967 Eh               0.00135 eV
CPCM Dielectric    :           -0.02125845 Eh              -0.57847 eV
SMD CDS (Gcds)     :           -0.00657557 Eh              -0.17893 eV

Virial components:
Potential Energy   :        -1867.81276052 Eh          -50825.76915 eV
Kinetic Energy     :          931.27916262 Eh           25341.39435 eV
Virial Ratio       :            2.00564217


DFT components:
N(Alpha)           :       74.000010143747 electrons
N(Beta)            :       74.000010143747 electrons
N(Total)           :      148.000020287495 electrons
E(X)               :      -93.463320746898 Eh       
E(C)               :       -4.994707766149 Eh       
E(XC)              :      -98.458028513047 Eh       
DFET-embed. en.    :        0.000000000000 Eh       
CPCM Solvation Model Properties:
Surface-charge          :           -0.05205008
Charge-correction       :            0.00023460 Eh               0.00638 eV
Free-energy (cav+disp)  :           -0.00657557 Eh              -0.17893 eV

---------------
SCF CONVERGENCE
---------------

  Last Energy change         ...    3.0053e-08  Tolerance :   1.0000e-08
  Last MAX-Density change    ...    5.3291e-15  Tolerance :   1.0000e-07
  Last RMS-Density change    ...    1.6584e-17  Tolerance :   5.0000e-09
  Last Orbital Gradient      ...    2.4818e-06  Tolerance :   1.0000e-05
  Last Orbital Rotation      ...    6.7335e-06  Tolerance :   1.0000e-05

             **** THE GBW FILE WAS UPDATED (optpbed3-b2plyp-test-527.gbw) ****
             **** DENSITY optpbed3-b2plyp-test-527.scfp WAS UPDATED ****
             **** ENERGY FILE WAS UPDATED (optpbed3-b2plyp-test-527.en.tmp) ****
             **** THE GBW FILE WAS UPDATED (optpbed3-b2plyp-test-527.gbw) ****
             **** DENSITY optpbed3-b2plyp-test-527.scfp WAS UPDATED ****
----------------
ORBITAL ENERGIES
----------------

  NO   OCC          E(Eh)            E(eV) 
   0   2.0000     -19.272334      -524.4269 
   1   2.0000     -19.250448      -523.8313 
   2   2.0000     -19.197085      -522.3792 
   3   2.0000     -14.417511      -392.3204 
   4   2.0000     -10.315802      -280.7073 
   5   2.0000     -10.307356      -280.4774 
   6   2.0000     -10.300464      -280.2899 
   7   2.0000     -10.290708      -280.0244 
   8   2.0000     -10.276308      -279.6326 
   9   2.0000     -10.252655      -278.9889 
  10   2.0000     -10.243278      -278.7338 
  11   2.0000     -10.242684      -278.7176 
  12   2.0000     -10.242507      -278.7128 
  13   2.0000     -10.235517      -278.5226 
  14   2.0000     -10.232746      -278.4472 
  15   2.0000     -10.231005      -278.3998 
  16   2.0000     -10.229016      -278.3457 
  17   2.0000     -10.225524      -278.2506 
  18   2.0000     -10.224932      -278.2346 
  19   2.0000     -10.222153      -278.1589 
  20   2.0000     -10.221465      -278.1402 
  21   2.0000      -1.143499       -31.1162 
  22   2.0000      -1.108291       -30.1581 
  23   2.0000      -1.066905       -29.0320 
  24   2.0000      -0.988984       -26.9116 
  25   2.0000      -0.893797       -24.3215 
  26   2.0000      -0.887434       -24.1483 
  27   2.0000      -0.831035       -22.6136 
  28   2.0000      -0.807151       -21.9637 
  29   2.0000      -0.783900       -21.3310 
  30   2.0000      -0.779513       -21.2116 
  31   2.0000      -0.760993       -20.7077 
  32   2.0000      -0.741682       -20.1822 
  33   2.0000      -0.715061       -19.4578 
  34   2.0000      -0.679441       -18.4885 
  35   2.0000      -0.646071       -17.5805 
  36   2.0000      -0.634636       -17.2693 
  37   2.0000      -0.626068       -17.0362 
  38   2.0000      -0.605815       -16.4851 
  39   2.0000      -0.580964       -15.8088 
  40   2.0000      -0.557908       -15.1814 
  41   2.0000      -0.545053       -14.8316 
  42   2.0000      -0.536390       -14.5959 
  43   2.0000      -0.512406       -13.9433 
  44   2.0000      -0.502046       -13.6614 
  45   2.0000      -0.494387       -13.4530 
  46   2.0000      -0.493223       -13.4213 
  47   2.0000      -0.482388       -13.1264 
  48   2.0000      -0.477585       -12.9958 
  49   2.0000      -0.463884       -12.6229 
  50   2.0000      -0.452557       -12.3147 
  51   2.0000      -0.449810       -12.2399 
  52   2.0000      -0.438437       -11.9305 
  53   2.0000      -0.437713       -11.9108 
  54   2.0000      -0.427192       -11.6245 
  55   2.0000      -0.417698       -11.3661 
  56   2.0000      -0.412936       -11.2366 
  57   2.0000      -0.412720       -11.2307 
  58   2.0000      -0.406695       -11.0667 
  59   2.0000      -0.403246       -10.9729 
  60   2.0000      -0.397869       -10.8266 
  61   2.0000      -0.388084       -10.5603 
  62   2.0000      -0.385964       -10.5026 
  63   2.0000      -0.381750       -10.3879 
  64   2.0000      -0.370994       -10.0953 
  65   2.0000      -0.359199        -9.7743 
  66   2.0000      -0.341385        -9.2895 
  67   2.0000      -0.330953        -9.0057 
  68   2.0000      -0.278189        -7.5699 
  69   2.0000      -0.275323        -7.4919 
  70   2.0000      -0.274105        -7.4588 
  71   2.0000      -0.265975        -7.2376 
  72   2.0000      -0.241605        -6.5744 
  73   2.0000      -0.199800        -5.4368 
  74   0.0000      -0.085678        -2.3314 
  75   0.0000      -0.013397        -0.3646 
  76   0.0000      -0.006214        -0.1691 
  77   0.0000       0.004544         0.1236 
[...]
              <<< Entering MO-section for Build Sigma(Double) >>>
   Forming the XC and CPCM contribution:
   Time for densities:            0.294
   Time for XC-Integration:      19.353
   Time for LR-CPCM terms:       12.533
   Time for Sigma-Completion:     0.239
   Time for building 10 sigma-vectors
   Data Preparation Phase         ...     0.01 sec
   Transformed RI Coulomb         ...     0.81 sec
   Transformed RI-exchange        ...   478.35 sec
   (ab|v) reading and digestion   ...   455.36 sec
   Final sigma-completion         ...     0.02 sec
   Done building sigma-vectors             Size of expansion space: 60
   Lowest Energy          :     0.117033170159
   Maximum Energy change  :     0.000731123970 (vector 8)
   Maximum residual norm  :     0.000082355424

                       ****Iteration    4****
              <<< Entering MO-section for Build Sigma(Double) >>>
   Forming the XC and CPCM contribution:
   Time for densities:            0.287
   Time for XC-Integration:      19.499
   Time for LR-CPCM terms:       12.545
   Time for Sigma-Completion:     0.227
   Time for building 10 sigma-vectors
   Data Preparation Phase         ...     0.01 sec
   Transformed RI Coulomb         ...     0.83 sec
   Transformed RI-exchange        ...   475.57 sec
   (ab|v) reading and digestion   ...   455.71 sec
   Final sigma-completion         ...     0.02 sec
   Done building sigma-vectors             Size of expansion space: 70
   Lowest Energy          :     0.117030274096
   Maximum Energy change  :     0.000135640354 (vector 8)
   Maximum residual norm  :     0.000010733889
   Rebuilding the expansion space

                       ****Iteration    5****
              <<< Entering MO-section for Build Sigma(Double) >>>
   Forming the XC and CPCM contribution:
   Time for densities:            0.570
   Time for XC-Integration:      38.012
   Time for LR-CPCM terms:       19.760
   Time for Sigma-Completion:     0.479
   Time for building 20 sigma-vectors
   Data Preparation Phase         ...     0.02 sec
   Transformed RI Coulomb         ...     1.34 sec
   Transformed RI-exchange        ...   967.52 sec
   (ab|v) reading and digestion   ...   927.92 sec
   Final sigma-completion         ...     0.03 sec
   Done building sigma-vectors             Size of expansion space: 20
   Lowest Energy          :     0.117030125704
   Maximum Energy change  :     0.000019521577 (vector 8)
   Maximum residual norm  :     0.000002971628

                       ****Iteration    6****
              <<< Entering MO-section for Build Sigma(Double) >>>
   Forming the XC and CPCM contribution:
   Time for densities:            0.287
   Time for XC-Integration:      19.540
   Time for LR-CPCM terms:       12.532
   Time for Sigma-Completion:     0.227
   Time for building 10 sigma-vectors
   Data Preparation Phase         ...     0.01 sec
   Transformed RI Coulomb         ...     0.82 sec
   Transformed RI-exchange        ...   482.31 sec
   (ab|v) reading and digestion   ...   458.83 sec
   Final sigma-completion         ...     0.02 sec
   Done building sigma-vectors             Size of expansion space: 30
   Lowest Energy          :     0.117030105400
   Maximum Energy change  :     0.000006546227 (vector 8)
   Maximum residual norm  :     0.000001124958

                       ****Iteration    7****
              <<< Entering MO-section for Build Sigma(Double) >>>
   Forming the XC and CPCM contribution:
   Time for densities:            0.288
   Time for XC-Integration:      19.879
   Time for LR-CPCM terms:       12.548
   Time for Sigma-Completion:     0.230
   Time for building 10 sigma-vectors
   Data Preparation Phase         ...     0.01 sec
   Transformed RI Coulomb         ...     0.80 sec
   Transformed RI-exchange        ...   475.53 sec
   (ab|v) reading and digestion   ...   446.00 sec
   Final sigma-completion         ...     0.02 sec
   Done building sigma-vectors             Size of expansion space: 40
   Lowest Energy          :     0.117030103979
   Maximum Energy change  :     0.000004981636 (vector 8)
   Maximum residual norm  :     0.000001448921

                       ****Iteration    8****
              <<< Entering MO-section for Build Sigma(Double) >>>
   Forming the XC and CPCM contribution:
   Time for densities:            0.287
   Time for XC-Integration:      20.309
   Time for LR-CPCM terms:       12.570
   Time for Sigma-Completion:     0.231
   Time for building 10 sigma-vectors
   Data Preparation Phase         ...     0.01 sec
   Transformed RI Coulomb         ...     0.84 sec
   Transformed RI-exchange        ...   477.03 sec
   (ab|v) reading and digestion   ...   451.81 sec
   Final sigma-completion         ...     0.02 sec
   Done building sigma-vectors             Size of expansion space: 50
   Lowest Energy          :     0.117030103897
   Maximum Energy change  :     0.000003901362 (vector 8)
   Maximum residual norm  :     0.000000758643

      *** CONVERGENCE OF RESIDUAL NORM REACHED ***

Storing the converged CI vectors               ... optpbed3-b2plyp-test-527_job2.cis1

                 *** DAVIDSON DONE ***

Total time for solving the CIS problem:  4817.245sec

------------------
DOUBLES CORRECTION (Double precision version)
------------------

The (D) correction will be scaled by  0.2700
Doing v(i,a)*T(i,a) terms (RI)                    ... ok
Doing u(i,j,a,b) terms for state   0              ... ok
Doing u(i,j,a,b) terms for state   1              ... ok
Doing u(i,j,a,b) terms for state   2              ... ok
Doing u(i,j,a,b) terms for state   3              ... ok
Doing u(i,j,a,b) terms for state   4              ... ok
Doing u(i,j,a,b) terms for state   5              ... ok
Doing u(i,j,a,b) terms for state   6              ... ok
Doing u(i,j,a,b) terms for state   7              ... ok
Doing u(i,j,a,b) terms for state   8              ... ok
Doing u(i,j,a,b) terms for state   9              ... ok

Contributions to the (D) correction(s) (in eV)

STATE  Final   Init.   Total   v(ext)   v(int)  v(3)    u
       omega   omega     (D)                             
-----------------------------------------------------------------------------
   0   2.626   3.185  -0.559   0.696   1.020  -0.062  -2.212
   1   3.522   4.262  -0.739   0.696   0.932  -0.040  -2.328
   2   3.583   4.349  -0.766   0.737   0.825  -0.028  -2.300
   3   4.137   4.659  -0.522   0.525   0.962  -0.033  -1.976
   4   4.574   4.868  -0.294   0.038   1.003  -0.002  -1.333
   5   4.240   4.882  -0.641   0.692   0.938  -0.056  -2.214
   6   4.860   5.194  -0.334   0.036   1.012  -0.001  -1.381
   7   4.496   5.214  -0.718   0.580   0.944  -0.040  -2.202
   8   4.669   5.328  -0.659   0.515   0.961  -0.047  -2.087
   9   5.040   5.358  -0.318   0.032   1.010  -0.001  -1.359

(D)-timings
 V(i,a)*T(i,a) terms           ...  1279.262 sec
 U(i,j,a,b) 3-internal         ...    16.458 sec
 U(i,j,a,b) 3-external         ...   403.672 sec
 U(i,j,a,b) pair terms         ...   651.660 sec
 Total measured time           ...  4973.248 sec

 Time for (ab|v) I/O           ...   119.712 sec


------------------------------------
TD-DFT/TDA EXCITED STATES (SINGLETS)
------------------------------------

the weight of the individual excitations are printed if larger than 1.0e-02

STATE  1:  E=   0.096492 au      2.626 eV    21177.5 cm**-1 <S**2> =   0.000000
    72a ->  74a  :     0.010268 (c=  0.10133254)
    73a ->  74a  :     0.942052 (c= -0.97059339)

STATE  2:  E=   0.129443 au      3.522 eV    28409.4 cm**-1 <S**2> =   0.000000
    69a ->  74a  :     0.022546 (c= -0.15015434)
    71a ->  74a  :     0.016132 (c= -0.12701230)
    71a ->  85a  :     0.015228 (c=  0.12340220)
    72a ->  74a  :     0.878633 (c= -0.93735450)
    72a ->  79a  :     0.011168 (c=  0.10567706)

STATE  3:  E=   0.131670 au      3.583 eV    28898.3 cm**-1 <S**2> =   0.000000
    68a ->  74a  :     0.909048 (c= -0.95344028)
    68a ->  94a  :     0.014957 (c= -0.12229772)
    68a -> 124a  :     0.011899 (c=  0.10908059)

STATE  4:  E=   0.152050 au      4.137 eV    33371.0 cm**-1 <S**2> =   0.000000
    70a ->  74a  :     0.218117 (c= -0.46702980)
    70a ->  79a  :     0.024615 (c= -0.15689134)
    71a ->  74a  :     0.067039 (c= -0.25891795)
    73a ->  79a  :     0.228761 (c=  0.47828970)
    73a ->  81a  :     0.346852 (c= -0.58894116)
    73a ->  82a  :     0.039894 (c= -0.19973361)
    73a ->  85a  :     0.010310 (c=  0.10153644)

STATE  5:  E=   0.168086 au      4.574 eV    36890.5 cm**-1 <S**2> =   0.000000
    72a ->  75a  :     0.013802 (c= -0.11748131)
    73a ->  75a  :     0.647319 (c= -0.80456166)
    73a ->  76a  :     0.148837 (c=  0.38579443)
    73a ->  78a  :     0.046091 (c=  0.21468873)
    73a ->  83a  :     0.026100 (c=  0.16155445)
    73a ->  84a  :     0.025231 (c= -0.15884193)
    73a ->  86a  :     0.038522 (c= -0.19626933)

STATE  6:  E=   0.155835 au      4.240 eV    34201.9 cm**-1 <S**2> =   0.000000
    70a ->  74a  :     0.127897 (c=  0.35762634)
    71a ->  74a  :     0.765335 (c= -0.87483437)
    72a ->  74a  :     0.020130 (c=  0.14187921)

STATE  7:  E=   0.178584 au      4.860 eV    39194.7 cm**-1 <S**2> =   0.000000
    72a ->  76a  :     0.028374 (c= -0.16844546)
    73a ->  75a  :     0.184714 (c=  0.42978318)
    73a ->  76a  :     0.469293 (c=  0.68504948)
    73a ->  77a  :     0.024121 (c=  0.15530936)
    73a ->  78a  :     0.169826 (c=  0.41209935)
    73a ->  83a  :     0.017751 (c= -0.13323229)
    73a ->  88a  :     0.019453 (c=  0.13947301)

STATE  8:  E=   0.165239 au      4.496 eV    36265.9 cm**-1 <S**2> =   0.000000
    69a ->  74a  :     0.041504 (c= -0.20372557)
    70a ->  74a  :     0.331346 (c= -0.57562659)
    70a ->  79a  :     0.010234 (c= -0.10116096)
    71a ->  74a  :     0.045464 (c= -0.21322220)
    73a ->  79a  :     0.492904 (c= -0.70207157)

STATE  9:  E=   0.171595 au      4.669 eV    37660.7 cm**-1 <S**2> =   0.000000
    70a ->  74a  :     0.266147 (c=  0.51589464)
    71a ->  74a  :     0.021291 (c=  0.14591574)
    73a ->  79a  :     0.117031 (c= -0.34209857)
    73a ->  81a  :     0.499410 (c= -0.70668953)

STATE 10:  E=   0.185234 au      5.040 eV    40654.1 cm**-1 <S**2> =   0.000000
    73a ->  76a  :     0.034357 (c=  0.18535621)
    73a ->  77a  :     0.832764 (c= -0.91255897)
    73a ->  80a  :     0.063153 (c=  0.25130336)
    73a ->  84a  :     0.020457 (c= -0.14302818)


-----------------------------
TD-DFT/TDA-EXCITATION SPECTRA
-----------------------------

Center of mass = (  1.4610, -0.0536,  0.0928)
Calculating the Dipole integrals                  ... done
Transforming integrals                            ... done
Calculating the Linear Momentum integrals         ... done
Transforming integrals                            ... done
Calculating angular momentum integrals            ... done
Transforming integrals                            ... done

-----------------------------------------------------------------------------
         ABSORPTION SPECTRUM VIA TRANSITION ELECTRIC DIPOLE MOMENTS
-----------------------------------------------------------------------------
State   Energy    Wavelength  fosc         T2        TX        TY        TZ  
        (cm-1)      (nm)                 (au**2)    (au)      (au)      (au) 
-----------------------------------------------------------------------------
   1   21177.5    472.2   1.104490315  17.16968  -4.14032  -0.16526  -0.00930
   2   28409.4    352.0   0.147289947   1.70682  -0.85137   0.98126   0.13825
   3   28898.3    346.0   0.000077252   0.00088   0.02961   0.00011  -0.00175
   4   33371.0    299.7   0.037164026   0.36663  -0.33623  -0.49757  -0.07752
   5   36890.5    271.1   0.021161256   0.18884   0.04957   0.07107  -0.42584
   6   34201.9    292.4   0.151772015   1.46089  -1.18975   0.21303  -0.00040
   7   39194.7    255.1   0.003652300   0.03068   0.02566  -0.02480   0.17147
   8   36265.9    275.7   0.113678803   1.03195  -0.41542   0.91565   0.14476
   9   37660.7    265.5   0.182509990   1.59541  -1.25065  -0.17506  -0.02543
  10   40654.1    246.0   0.000080770   0.00065   0.01927   0.00792  -0.01484

-----------------------------------------------------------------------------
         ABSORPTION SPECTRUM VIA TRANSITION VELOCITY DIPOLE MOMENTS
-----------------------------------------------------------------------------
State   Energy    Wavelength   fosc        P2         PX        PY        PZ  
        (cm-1)      (nm)                 (au**2)     (au)      (au)      (au) 
-----------------------------------------------------------------------------
   1   21177.5    472.2   0.939342661   0.13596   0.36497  -0.05210  -0.00658
   2   28409.4    352.0   0.052944178   0.01028   0.09998   0.01667   0.00259
   3   28898.3    346.0   0.000499457   0.00010  -0.00370   0.00169  -0.00906
   4   33371.0    299.7   0.001264851   0.00029   0.01604   0.00554   0.00069
   5   36890.5    271.1   0.014247482   0.00359  -0.00318  -0.01172   0.05869
   6   34201.9    292.4   0.050776170   0.01187   0.10338   0.03347   0.00787
   7   39194.7    255.1   0.005217109   0.00140  -0.00311   0.00690  -0.03661
   8   36265.9    275.7   0.040383985   0.01001   0.09949  -0.01036  -0.00176
   9   37660.7    265.5   0.112311096   0.02891   0.16875  -0.02048  -0.00360
  10   40654.1    246.0   0.000078495   0.00002  -0.00261  -0.00085   0.00378

-------------------------------------------------------------------
                             CD SPECTRUM
-------------------------------------------------------------------
State  Energy     Wavelength     R         MX        MY        MZ   
       (cm-1)       (nm)     (1e40*cgs)   (au)      (au)      (au)  
-------------------------------------------------------------------
   1   21177.5    472.2      2.46364  -0.00327   0.08526  -0.62201
   2   28409.4    352.0      0.87838  -0.00397  -0.03530   0.23958
   3   28898.3    346.0      1.23822   0.08759  -0.26459  -0.03494
   4   33371.0    299.7     -0.21965  -0.00359   0.05213  -0.31300
   5   36890.5    271.1     -0.40986  -0.03525  -0.34332  -0.05936
   6   34201.9    292.4     -2.47696  -0.00005  -0.02484   0.03950
   7   39194.7    255.1      1.01980   0.07958   0.26313   0.03876
   8   36265.9    275.7      2.15463   0.00039   0.02942  -0.15343
   9   37660.7    265.5     -0.44674  -0.00039   0.01523  -0.04856
  10   40654.1    246.0     -0.42741  -0.04030  -0.02611  -0.00516

-------------------------------------------------------------------
         CD SPECTRUM VIA TRANSITION VELOCITY DIPOLE MOMENTS        
-------------------------------------------------------------------
State  Energy     Wavelength     R         MX        MY        MZ   
       (cm-1)       (nm)     (1e40*cgs)   (au)      (au)      (au)  
-------------------------------------------------------------------
   1   21177.5    472.2     -7.53483  -0.00327   0.08526  -0.62201
   2   28409.4    352.0     -1.32535  -0.00397  -0.03530   0.23958
   3   28898.3    346.0     -1.62298   0.08759  -0.26459  -0.03494
   4   33371.0    299.7      0.05025  -0.00359   0.05213  -0.31300
   5   36890.5    271.1      1.83012  -0.03525  -0.34332  -0.05936
   6   34201.9    292.4     -1.58973  -0.00005  -0.02484   0.03950
   7   39194.7    255.1      0.39654   0.07958   0.26313   0.03876
   8   36265.9    275.7      0.00818   0.00039   0.02942  -0.15343
   9   37660.7    265.5     -0.55608  -0.00039   0.01523  -0.04856
  10   40654.1    246.0      0.27457  -0.04030  -0.02611  -0.00516

Total run time:     9801.494 sec

           *** ORCA-CIS/TD-DFT FINISHED WITHOUT ERROR ***

Maximum memory used throughout the entire CIS-calculation: 1620.4 MB

-----------------------
CIS/TD-DFT TOTAL ENERGY
-----------------------

    E(SCF)  =   -935.671124876 Eh
    DE(CIS) =      0.096491943 Eh (Root  1)
    ----------------------------- ---------
    E(tot)  =   -935.574632933 Eh



-------------------------------------------------------------------------------
                          DFT DISPERSION CORRECTION                            
                                                                               
                              DFTD3 V3.1  Rev 1                                
                          USING Becke-Johnson damping                          
-------------------------------------------------------------------------------
The B2PLYP functional is recognized
Active option DFTDOPT                   ...         4   

molecular C6(AA) [au] = 15179.236536 


            DFT-D V3
 parameters
 s6 scaling factor         :     0.6400 
 a1 scaling factor         :     0.3065 
 s8 scaling factor         :     0.9147 
 a2 scaling factor         :     5.0570 
 ad hoc parameters k1-k3   :    16.0000     1.3333    -4.0000 

 Edisp/kcal,au: -22.389415485325  -0.035679800899 
 E6   /kcal   : -12.572299911 
 E8   /kcal   :  -9.817115575 
 % E8         :  43.847127591 

-------------------------   ----------------
Dispersion correction           -0.035679801
-------------------------   ----------------


-------------------------   --------------------
FINAL SINGLE POINT ENERGY      -935.610312733558
-------------------------   --------------------


                            ***************************************
                            *     ORCA property calculations      *
                            ***************************************


  WARNING: The energy has been calculated at the MP2 level but the densities
           used in the property calculations are still SCF densities
           MP2 response densities have not been calculated 
           use %mp2 Density relaxed end
           or  %mp2 Density unrelaxed end

                                    ---------------------
                                    Active property flags
                                    ---------------------
   (+) Dipole Moment


------------------------------------------------------------------------------
                       ORCA ELECTRIC PROPERTIES CALCULATION
------------------------------------------------------------------------------

Dipole Moment Calculation                       ... on
Quadrupole Moment Calculation                   ... off
Polarizability Calculation                      ... off
GBWName                                         ... optpbed3-b2plyp-test-527_job2.gbw
Electron density                                ... optpbed3-b2plyp-test-527_job2.scfp
The origin for moment calculation is the CENTER OF MASS  = ( 1.461002, -0.053596  0.092841)

-------------
DIPOLE MOMENT
-------------
                                X             Y             Z
Electronic contribution:     24.10042      -2.90257      -0.49867
Nuclear contribution   :    -26.94094       1.90489       0.37939
                        -----------------------------------------
Total Dipole Moment    :     -2.84051      -0.99768      -0.11929
                        -----------------------------------------
Magnitude (a.u.)       :      3.01299
Magnitude (Debye)      :      7.65841



--------------------
Rotational spectrum 
--------------------
 
Rotational constants in cm-1:     0.033845     0.004051     0.003623 
Rotational constants in MHz :  1014.643489   121.448539   108.616938 

 Dipole components along the rotational axes: 
x,y,z [a.u.] :    -2.803834    -1.102892     0.016002 
x,y,z [Debye]:    -7.126780    -2.803329     0.040673 

 

Timings for individual modules:

Sum of individual times         ...    12402.613 sec (= 206.710 min)
GTO integral calculation        ...        6.275 sec (=   0.105 min)   0.1 %
SCF iterations                  ...     1140.571 sec (=  19.010 min)   9.2 %
MP2 module                      ...     1448.410 sec (=  24.140 min)  11.7 %
CIS module                      ...     9807.357 sec (= 163.456 min)  79.1 %



                             ****ORCA TERMINATED NORMALLY****
TOTAL RUN TIME: 0 days 8 hours 19 minutes 55 seconds 986 msec
