
                                 *****************
                                 * O   R   C   A *
                                 *****************

                                            #,                                       
                                            ###                                      
                                            ####                                     
                                            #####                                    
                                            ######                                   
                                           ########,                                 
                                     ,,################,,,,,                         
                               ,,#################################,,                 
                          ,,##########################################,,             
                       ,#########################################, ''#####,          
                    ,#############################################,,   '####,        
                  ,##################################################,,,,####,       
                ,###########''''           ''''###############################       
              ,#####''   ,,,,##########,,,,          '''####'''          '####       
            ,##' ,,,,###########################,,,                        '##       
           ' ,,###''''                  '''############,,,                           
         ,,##''                                '''############,,,,        ,,,,,,###''
      ,#''                                            '''#######################'''  
     '                                                          ''''####''''         
             ,#######,   #######,   ,#######,      ##                                
            ,#'     '#,  ##    ##  ,#'     '#,    #''#        ######   ,####,        
            ##       ##  ##   ,#'  ##            #'  '#       #        #'  '#        
            ##       ##  #######   ##           ,######,      #####,   #    #        
            '#,     ,#'  ##    ##  '#,     ,#' ,#      #,         ##   #,  ,#        
             '#######'   ##     ##  '#######'  #'      '#     #####' # '####'        



                  #######################################################
                  #                        -***-                        #
                  #          Department of theory and spectroscopy      #
                  #    Directorship and core code : Frank Neese         #
                  #        Max Planck Institute fuer Kohlenforschung    #
                  #                Kaiser Wilhelm Platz 1               #
                  #                 D-45470 Muelheim/Ruhr               #
                  #                      Germany                        #
                  #                                                     #
                  #                  All rights reserved                #
                  #                        -***-                        #
                  #######################################################


                         Program Version 5.0.2 -  RELEASE  -


 With contributions from (in alphabetic order):
   Daniel Aravena         : Magnetic Suceptibility
   Michael Atanasov       : Ab Initio Ligand Field Theory (pilot matlab implementation)
   Alexander A. Auer      : GIAO ZORA, VPT2 properties, NMR spectrum
   Ute Becker             : Parallelization
   Giovanni Bistoni       : ED, misc. LED, open-shell LED, HFLD
   Martin Brehm           : Molecular dynamics
   Dmytro Bykov           : SCF Hessian
   Vijay G. Chilkuri      : MRCI spin determinant printing, contributions to CSF-ICE
   Dipayan Datta          : RHF DLPNO-CCSD density
   Achintya Kumar Dutta   : EOM-CC, STEOM-CC
   Dmitry Ganyushin       : Spin-Orbit,Spin-Spin,Magnetic field MRCI
   Miquel Garcia          : C-PCM and meta-GGA Hessian, CC/C-PCM, Gaussian charge scheme
   Yang Guo               : DLPNO-NEVPT2, F12-NEVPT2, CIM, IAO-localization
   Andreas Hansen         : Spin unrestricted coupled pair/coupled cluster methods
   Benjamin Helmich-Paris : MC-RPA, TRAH-SCF, COSX integrals
   Lee Huntington         : MR-EOM, pCC
   Robert Izsak           : Overlap fitted RIJCOSX, COSX-SCS-MP3, EOM
   Marcus Kettner         : VPT2
   Christian Kollmar      : KDIIS, OOCD, Brueckner-CCSD(T), CCSD density, CASPT2, CASPT2-K
   Simone Kossmann        : Meta GGA functionals, TD-DFT gradient, OOMP2, MP2 Hessian
   Martin Krupicka        : Initial AUTO-CI
   Lucas Lang             : DCDCAS
   Marvin Lechner         : AUTO-CI (C++ implementation), FIC-MRCC
   Dagmar Lenk            : GEPOL surface, SMD
   Dimitrios Liakos       : Extrapolation schemes; Compound Job, initial MDCI parallelization
   Dimitrios Manganas     : Further ROCIS development; embedding schemes
   Dimitrios Pantazis     : SARC Basis sets
   Anastasios Papadopoulos: AUTO-CI, single reference methods and gradients
   Taras Petrenko         : DFT Hessian,TD-DFT gradient, ASA, ECA, R-Raman, ABS, FL, XAS/XES, NRVS
   Peter Pinski           : DLPNO-MP2, DLPNO-MP2 Gradient
   Christoph Reimann      : Effective Core Potentials
   Marius Retegan         : Local ZFS, SOC
   Christoph Riplinger    : Optimizer, TS searches, QM/MM, DLPNO-CCSD(T), (RO)-DLPNO pert. Triples
   Tobias Risthaus        : Range-separated hybrids, TD-DFT gradient, RPA, STAB
   Michael Roemelt        : Original ROCIS implementation
   Masaaki Saitow         : Open-shell DLPNO-CCSD energy and density
   Barbara Sandhoefer     : DKH picture change effects
   Avijit Sen             : IP-ROCIS
   Kantharuban Sivalingam : CASSCF convergence, NEVPT2, FIC-MRCI
   Bernardo de Souza      : ESD, SOC TD-DFT
   Georgi Stoychev        : AutoAux, RI-MP2 NMR, DLPNO-MP2 response
   Willem Van den Heuvel  : Paramagnetic NMR
   Boris Wezisla          : Elementary symmetry handling
   Frank Wennmohs         : Technical directorship


 We gratefully acknowledge several colleagues who have allowed us to
 interface, adapt or use parts of their codes:
   Stefan Grimme, W. Hujo, H. Kruse, P. Pracht,  : VdW corrections, initial TS optimization,
                  C. Bannwarth, S. Ehlert          DFT functionals, gCP, sTDA/sTD-DF
   Ed Valeev, F. Pavosevic, A. Kumar             : LibInt (2-el integral package), F12 methods
   Garnet Chan, S. Sharma, J. Yang, R. Olivares  : DMRG
   Ulf Ekstrom                                   : XCFun DFT Library
   Mihaly Kallay                                 : mrcc  (arbitrary order and MRCC methods)
   Jiri Pittner, Ondrej Demel                    : Mk-CCSD
   Frank Weinhold                                : gennbo (NPA and NBO analysis)
   Christopher J. Cramer and Donald G. Truhlar   : smd solvation model
   Lars Goerigk                                  : TD-DFT with DH, B97 family of functionals
   V. Asgeirsson, H. Jonsson                     : NEB implementation
   FAccTs GmbH                                   : IRC, NEB, NEB-TS, DLPNO-Multilevel, CI-OPT
                                                   MM, QMMM, 2- and 3-layer-ONIOM, Crystal-QMMM,
                                                   LR-CPCM, SF, NACMEs, symmetry and pop. for TD-DFT,
                                                   nearIR, NL-DFT gradient (VV10), updates on ESD,
                                                   ML-optimized integration grids
   S Lehtola, MJT Oliveira, MAL Marques          : LibXC Library
   Liviu Ungur et al                             : ANISO software


 Your calculation uses the libint2 library for the computation of 2-el integrals
 For citations please refer to: http://libint.valeyev.net

 Your ORCA version has been built with support for libXC version: 5.1.0
 For citations please refer to: https://tddft.org/programs/libxc/

 This ORCA versions uses:
   CBLAS   interface :  Fast vector & matrix operations
   LAPACKE interface :  Fast linear algebra routines
   SCALAPACK package :  Parallel linear algebra routines
   Shared memory     :  Shared parallel matrices
   BLAS/LAPACK       :  OpenBLAS 0.3.15  USE64BITINT DYNAMIC_ARCH NO_AFFINITY Haswell SINGLE_THREADED
        Core in use  :  Haswell
   Copyright (c) 2011-2014, The OpenBLAS Project




***************************************
The coordinates will be read from file: optpbed3-b2plyp-test-577-optimize-part.xyz
***************************************


Your calculation utilizes the SMD solvation module
Please cite in your paper:
A.V. Marenich, C.J. Cramer, D.G. Truhlar J. Phys. Chem. B, 113, (2009), 6378 

================================================================================

----- Orbital basis set information -----
Your calculation utilizes the basis: aug-cc-pVTZ 
    H, B-Ne : Obtained from the ccRepo (grant-hill.group.shef.ac.uk/ccrepo) Feb. 2017
              R. A. Kendall, T. H. Dunning, Jr., R. J. Harrison, J. Chem. Phys. 96, 6796 (1992)
         He : Obtained from the ccRepo (grant-hill.group.shef.ac.uk/ccrepo) Feb. 2017
              D. E. Woon, T. H. Dunning, Jr., J. Chem. Phys. 100, 2975 (1994)
  Li-Be, Na : Obtained from the ccRepo (grant-hill.group.shef.ac.uk/ccrepo) Feb. 2017
              B. P. Prascher, D. E. Woon, K. A. Peterson, T. H. Dunning, Jr., A. K. Wilson, Theor. Chem. Acc. 128, 69 (2011)
         Mg : Obtained from the Peterson Research Group Website (tyr0.chem.wsu.edu/~kipeters) Feb. 2017
              B. P. Prascher, D. E. Woon, K. A. Peterson, T. H. Dunning, Jr., A. K. Wilson, Theor. Chem. Acc. 128, 69 (2011)
      Al-Ar : Obtained from the ccRepo (grant-hill.group.shef.ac.uk/ccrepo) Feb. 2017
              D. E. Woon, T. H. Dunning, Jr., J. Chem. Phys. 98, 1358 (1993)
      Sc-Zn : Obtained from the ccRepo (grant-hill.group.shef.ac.uk/ccrepo) Feb. 2017
              N. B. Balabanov, K. A. Peterson, J. Chem. Phys. 123, 064107 (2005)
              N. B. Balabanov, K. A. Peterson, J. Chem. Phys. 125, 074110 (2006)
      Ga-Kr : Obtained from the ccRepo (grant-hill.group.shef.ac.uk/ccrepo) Feb. 2017
              A. K. Wilson, D. E. Woon, K. A. Peterson, T. H. Dunning, Jr., J. Chem. Phys. 110, 7667 (1999)
     Ag, Au : Obtained from the Peterson Research Group Website (tyr0.chem.wsu.edu/~kipeters) Feb. 2017
              K. A. Peterson, C. Puzzarini, Theor. Chem. Acc. 114, 283 (2005)

The basis set includes element-specific modifications.

Your calculation utilizes the basis: cc-pVTZ 
       H, B-Ne : Obtained from the ccRepo (grant-hill.group.shef.ac.uk/ccrepo) Feb. 2017
                 T. H. Dunning, Jr., J. Chem. Phys. 90, 1007 (1989)
            He : Obtained from the ccRepo (grant-hill.group.shef.ac.uk/ccrepo) Feb. 2017
                 D. E. Woon, T. H. Dunning, Jr., J. Chem. Phys. 100, 2975 (1994)
  Li-Be, Na-Mg : Obtained from the ccRepo (grant-hill.group.shef.ac.uk/ccrepo) Feb. 2017
                 B. P. Prascher, D. E. Woon, K. A. Peterson, T. H. Dunning, Jr., A. K. Wilson, Theor. Chem. Acc. 128, 69 (2011)
         Al-Ar : Obtained from the ccRepo (grant-hill.group.shef.ac.uk/ccrepo) Feb. 2017
                 D. E. Woon, T. H. Dunning, Jr., J. Chem. Phys. 98, 1358 (1993)
            Ca : Obtained from the Peterson Research Group Website (tyr0.chem.wsu.edu/~kipeters) Feb. 2017
                 J. Koput, K. A. Peterson, J. Phys. Chem. 106, 9595 (2002)
         Sc-Zn : Obtained from the ccRepo (grant-hill.group.shef.ac.uk/ccrepo) Feb. 2017
                 N. B. Balabanov, K. A. Peterson, J. Chem. Phys. 123, 064107 (2005)
                 N. B. Balabanov, K. A. Peterson, J. Chem. Phys. 125, 074110 (2006)
         Ga-Kr : Obtained from the ccRepo (grant-hill.group.shef.ac.uk/ccrepo) Feb. 2017
                 A. K. Wilson, D. E. Woon, K. A. Peterson, T. H. Dunning, Jr., J. Chem. Phys. 110, 7667 (1999)
             Y : Obtained from the ccRepo (grant-hill.group.shef.ac.uk/ccrepo) Feb. 2017
                 K. A. Peterson, D. Figgen, M. Dolg, H. Stoll, J. Chem. Phys. 126, 124101 (2007)
        Ag, Au : Obtained from the Peterson Research Group Website (tyr0.chem.wsu.edu/~kipeters) Feb. 2017
                 K. A. Peterson, C. Puzzarini, Theor. Chem. Acc. 114, 283 (2005)

----- AuxJ basis set information -----
Your calculation utilizes the auxiliary basis: aug-cc-pVTZ/JK 
  H, B-F, Al-Cl, Ga-Br : Obtained from the TURBOMOLE 7.0 basis set library

The basis set includes element-specific modifications.

Your calculation utilizes the auxiliary basis: cc-pVTZ/JK 
  H, B-F, Al-Cl, Ga-Br : Obtained from the TURBOMOLE 7.0 basis set library

----- AuxC basis set information -----
Your calculation utilizes the auxiliary basis: aug-cc-pVTZ/C 
  H-He, B-F, Al-Ar, Ga-Kr : Obtained from the EMSL Basis Set Exchange (bse.pnl.gov) Feb. 2017
                            F. Weigend, A. Kohn, C. Hattig, J. Chem. Phys. 116, 3175 (2002)
                   Be, Mg : Obtained from the TURBOMOLE 7.0 basis set library
                            C. Haettig, Phys. Chem. Chem. Phys. 7, 59 (2005)
                       Ne : Obtained from the EMSL Basis Set Exchange (bse.pnl.gov) Feb. 2017
                            C. Haettig, Phys. Chem. Chem. Phys. 7, 59 (2005)
                            F. Weigend, A. Kohn, C. Hattig, J. Chem. Phys. 116, 3175 (2002)
                    Sc-Zn : Obtained from the EMSL Basis Set Exchange (bse.pnl.gov) Feb. 2017
                            J. G. Hill, J. A. Platts, J. Chem. Phys. 128, 044104 (2008)

The basis set includes element-specific modifications.

Your calculation utilizes the auxiliary basis: cc-pVTZ/C 
  Obtained from the EMSL Basis Set Exchange (bse.pnl.gov) Feb. 2017
  H-He, B-F, Al-Ar, Ga-Kr : F. Weigend, A. Kohn, C. Hattig, J. Chem. Phys. 116, 3175 (2002)
             Li-Be, Na-Mg : C. Haettig, Phys. Chem. Chem. Phys. 7, 59 (2005)
                       Ne : C. Haettig, Phys. Chem. Chem. Phys. 7, 59 (2005)
                            F. Weigend, A. Kohn, C. Hattig, J. Chem. Phys. 116, 3175 (2002)
                    Sc-Zn : J. G. Hill, J. A. Platts, J. Chem. Phys. 128, 044104 (2008)

================================================================================
                                        WARNINGS
                       Please study these warnings very carefully!
================================================================================

INFO   : Checking CIS options ...
  ===> : (D) CORRECTION FOUND - SETTING MODE=3
  ===> : JK MODE FOUND - ACTIVATING RI-MP2 CODE
  ===> : MP2 AND CIS FOUND - CHECKING
WARNING: CIS(D) and MP2 runs must have the same orbital window
  ===> : adjusting orbital windows

WARNING: No MP2 level density has been requested!
         To caclulate MP2 level properties use
         %mp2 Density relaxed end
         or
         %mp2 Density unrelaxed end
         Otherwise for double-hybrid DFT only the energy is correct!

WARNING: The frozen-core approximation is turned on by default for 
         the MP2 part of double-hybrid DFT.

WARNING: CIS/ROCIS methods need fully converged wavefunctions
  ===> : Setting SCFConvForced true
         You can overwrite this default with %scf ConvForced false 


INFO   : the flag for use of the SHARK integral package has been found!

================================================================================
                                       INPUT FILE
================================================================================
NAME = optpbed3-b2plyp-test-577.inp
|  1> # run actual calculation
|  2> ! b2plyp aug-cc-PVTZ RIJCOSX SP
|  3> %maxcore 4000
|  4> %basis
|  5>  AuxJ "aug-cc-PVTZ/JK"
|  6>  AuxC "aug-cc-PVTZ/C"
|  7>  newGTO H "cc-PVTZ" end
|  8>  newAuxJGTO H "cc-PVTZ/JK" end
|  9>  newAuxCGTO H "cc-PVTZ/C" end
| 10> end
| 11> %cpcm
| 12>  SMD true
| 13>  SMDsolvent "acetonitrile"
| 14> end
| 15> %pal nprocs 4 end
| 16> %tddft
| 17>  nroots 10
| 18>  maxdim 7
| 19> end
| 20> %scf
| 21>  guess moread
| 22>  moinp "optpbed3-b2plyp-test-577-optimize-part.gbw"
| 23> end
| 24> 
| 25> * xyzfile 0 1 optpbed3-b2plyp-test-577-optimize-part.xyz
| 26> 
| 27>                          ****END OF INPUT****
================================================================================

                       ****************************
                       * Single Point Calculation *
                       ****************************

---------------------------------
CARTESIAN COORDINATES (ANGSTROEM)
---------------------------------
  C      5.166872   -0.599441   -1.482203
  C      4.249628   -1.798798   -1.535664
  O      2.881942   -1.445499   -1.254595
  C      2.510740   -1.307950    0.001113
  O      3.205421   -1.457419    0.968745
  C      1.065931   -0.921386    0.087734
  C      0.106895   -1.863383    0.149148
  C     -1.252997   -1.503329    0.271981
  C     -2.012780   -2.671603    0.313873
  C     -3.372468   -2.573042    0.431941
  C     -3.922270   -1.278349    0.503574
  C     -3.157001   -0.119286    0.460708
  O     -3.689935    1.111464    0.531236
  C     -5.088731    1.254730    0.673751
  C     -1.740298   -0.212650    0.337035
  C     -0.732036    0.839891    0.268473
  C     -1.034098    2.191897    0.307610
  C     -0.048900    3.185924    0.240206
  C     -0.382187    4.565285    0.279558
  C      0.594610    5.515222    0.213570
  C      1.957372    5.141918    0.106109
  C      2.311042    3.825673    0.065150
  C      1.316759    2.814282    0.129908
  C      1.636019    1.455395    0.085777
  C      0.666008    0.466745    0.150494
  N     -1.147595   -3.762689    0.216613
  C     -1.580201   -5.134171    0.235647
  C      0.160875   -3.348847    0.110413
  O      1.138602   -4.058151    0.007551
  H      5.264416   -0.195350   -0.475211
  H      4.822128    0.194613   -2.145273
  H      6.160785   -0.901150   -1.814974
  H      4.580309   -2.587034   -0.857942
  H      4.218978   -2.213860   -2.541543
  H     -4.025103   -3.434994    0.471070
  H     -4.997005   -1.205855    0.596007
  H     -5.455211    0.791572    1.593412
  H     -5.632859    0.836581   -0.177267
  H     -5.283447    2.323750    0.719923
  H     -2.058687    2.516948    0.391461
  H     -1.423624    4.851387    0.363296
  H      0.332867    6.564841    0.244194
  H      2.717200    5.910955    0.056397
  H      3.350940    3.533658   -0.017817
  H      2.684085    1.192988    0.000264
  H     -2.066888   -5.376893    1.181111
  H     -0.717233   -5.783324    0.115463
  H     -2.278972   -5.331470   -0.577929

----------------------------
CARTESIAN COORDINATES (A.U.)
----------------------------
  NO LB      ZA    FRAG     MASS         X           Y           Z
   0 C     6.0000    0    12.011    9.763974   -1.132779   -2.800957
   1 C     6.0000    0    12.011    8.030633   -3.399235   -2.901984
   2 O     8.0000    0    15.999    5.446082   -2.731598   -2.370841
   3 C     6.0000    0    12.011    4.744610   -2.471666    0.002104
   4 O     8.0000    0    15.999    6.057368   -2.754123    1.830662
   5 C     6.0000    0    12.011    2.014318   -1.741167    0.165792
   6 C     6.0000    0    12.011    0.202003   -3.521283    0.281849
   7 C     6.0000    0    12.011   -2.367821   -2.840879    0.513969
   8 C     6.0000    0    12.011   -3.803604   -5.048598    0.593134
   9 C     6.0000    0    12.011   -6.373041   -4.862346    0.816250
  10 C     6.0000    0    12.011   -7.412015   -2.415730    0.951618
  11 C     6.0000    0    12.011   -5.965867   -0.225418    0.870613
  12 O     8.0000    0    15.999   -6.972966    2.100362    1.003890
  13 C     6.0000    0    12.011   -9.616308    2.371097    1.273204
  14 C     6.0000    0    12.011   -3.288687   -0.401851    0.636903
  15 C     6.0000    0    12.011   -1.383348    1.587164    0.507340
  16 C     6.0000    0    12.011   -1.954163    4.142086    0.581299
  17 C     6.0000    0    12.011   -0.092407    6.020525    0.453924
  18 C     6.0000    0    12.011   -0.722229    8.627139    0.528289
  19 C     6.0000    0    12.011    1.123650   10.422259    0.403589
  20 C     6.0000    0    12.011    3.698898    9.716816    0.200518
  21 C     6.0000    0    12.011    4.367236    7.229475    0.123115
  22 C     6.0000    0    12.011    2.488313    5.318222    0.245490
  23 C     6.0000    0    12.011    3.091629    2.750297    0.162096
  24 C     6.0000    0    12.011    1.258572    0.882021    0.284393
  25 N     7.0000    0    14.007   -2.168640   -7.110451    0.409339
  26 C     6.0000    0    12.011   -2.986146   -9.702178    0.445307
  27 C     6.0000    0    12.011    0.304010   -6.328403    0.208651
  28 O     8.0000    0    15.999    2.151647   -7.668794    0.014269
  29 H     1.0000    0     1.008    9.948305   -0.369158   -0.898018
  30 H     1.0000    0     1.008    9.112501    0.367766   -4.053979
  31 H     1.0000    0     1.008   11.642197   -1.702927   -3.429803
  32 H     1.0000    0     1.008    8.655530   -4.888787   -1.621275
  33 H     1.0000    0     1.008    7.972714   -4.183588   -4.802820
  34 H     1.0000    0     1.008   -7.606342   -6.491198    0.890194
  35 H     1.0000    0     1.008   -9.442971   -2.278735    1.126291
  36 H     1.0000    0     1.008  -10.308854    1.495855    3.011112
  37 H     1.0000    0     1.008  -10.644560    1.580908   -0.334986
  38 H     1.0000    0     1.008   -9.984268    4.391251    1.360458
  39 H     1.0000    0     1.008   -3.890355    4.756342    0.739754
  40 H     1.0000    0     1.008   -2.690259    9.167793    0.686531
  41 H     1.0000    0     1.008    0.629027   12.405752    0.461459
  42 H     1.0000    0     1.008    5.134764   11.170086    0.106575
  43 H     1.0000    0     1.008    6.332359    6.677645   -0.033670
  44 H     1.0000    0     1.008    5.072186    2.254421    0.000498
  45 H     1.0000    0     1.008   -3.905852  -10.160854    2.231976
  46 H     1.0000    0     1.008   -1.355375  -10.928899    0.218193
  47 H     1.0000    0     1.008   -4.306633  -10.075017   -1.092128

--------------------------------
INTERNAL COORDINATES (ANGSTROEM)
--------------------------------
 C      0   0   0     0.000000000000     0.00000000     0.00000000
 C      1   0   0     1.510845009999     0.00000000     0.00000000
 O      2   1   0     1.440272196544   112.01676917     0.00000000
 C      3   2   1     1.316630095071   118.65091147   278.85673671
 O      4   3   2     1.200513918058   126.33957637   359.46915102
 C      4   3   2     1.498133973823   110.73208032   179.17662689
 C      6   4   3     1.345689108208   120.61856835    89.36096505
 C      7   6   4     1.412102630534   120.78419112   178.05308286
 C      8   7   6     1.394234868207   108.28584192   180.09197970
 C      9   8   7     1.368358523087   118.92936788   179.98295650
 C     10   9   8     1.408418977315   117.29003440     0.03697196
 C     11  10   9     1.389568717404   123.38147183     0.00000000
 O     12  11  10     1.343033202422   122.97182002   180.07882485
 C     13  12  11     1.413317496532   119.40147134     0.88154540
 C      8   7   6     1.381139053729   125.60223308     0.17534552
 C     15   8   7     1.459156094226   115.34564677     0.06006009
 C     16  15   8     1.385891160387   123.48834689   179.45788832
 C     17  16  15     1.401160135208   122.51201353   180.00125792
 C     18  17  16     1.419600656152   121.52769281   179.87833098
 C     19  18  17     1.364135772551   120.47569381   179.94246780
 C     20  19  18     1.417048165433   120.58683535   359.93490944
 C     21  20  19     1.363546644485   120.39878835     0.09798462
 C     18  17  16     1.419614883466   119.63158023   359.87779430
 C     23  18  17     1.396584940430   118.49565413     0.28311392
 C     24  23  18     1.386556273158   122.16627637   359.78396258
 N      9   8   7     1.395877167147   108.36741821   359.90162272
 C     26   9   8     1.438219174985   123.91904024   179.53922260
 C     26   9   8     1.376458294357   111.07363907   359.94013307
 O     28  26   9     1.212288803472   126.67751981   180.19528070
 H      1   2   3     1.089420381231   112.42765666    67.39666459
 H      1   2   3     1.090427946957   111.38386022   305.14006407
 H      1   2   3     1.090700777308   108.83520034   186.55072379
 H      2   1   3     1.090859174838   111.56698827   236.03593706
 H      2   1   3     1.088581002475   110.63834420   115.92125829
 H     10   9   8     1.081861078342   123.03579741   180.02254898
 H     11  10   9     1.081136172428   117.00348284   179.95331074
 H     14  13  12     1.092977294323   111.94708968    60.77138304
 H     14  13  12     1.093231546122   112.04541947   297.92377501
 H     14  13  12     1.087588849317   106.32672994   179.35234667
 H     17  16  15     1.078179067381   120.22702358   359.91561605
 H     19  18  17     1.083261789997   118.97829472   359.97533986
 H     20  19  18     1.082195997348   120.05604300   180.00316423
 H     21  20  19     1.082232651605   119.43790635   180.08155211
 H     22  21  20     1.083302565856   120.76328960   179.94542163
 H     24  23  18     1.083795144830   117.33167098   179.92912474
 H     27  26   9     1.090725002791   110.97085788   297.91266363
 H     27  26   9     1.086533896225   109.23024337   178.33431434
 H     27  26   9     1.090464966466   110.81851771    58.77508434

---------------------------
INTERNAL COORDINATES (A.U.)
---------------------------
 C      0   0   0     0.000000000000     0.00000000     0.00000000
 C      1   0   0     2.855083299699     0.00000000     0.00000000
 O      2   1   0     2.721720009769   112.01676917     0.00000000
 C      3   2   1     2.488070299364   118.65091147   278.85673671
 O      4   3   2     2.268642525091   126.33957637   359.46915102
 C      4   3   2     2.831062922449   110.73208032   179.17662689
 C      6   4   3     2.542983875914   120.61856835    89.36096505
 C      7   6   4     2.668487244699   120.78419112   178.05308286
 C      8   7   6     2.634722067274   108.28584192   180.09197970
 C      9   8   7     2.585822861651   118.92936788   179.98295650
 C     10   9   8     2.661526148942   117.29003440     0.03697196
 C     11  10   9     2.625904320158   123.38147183     0.00000000
 O     12  11  10     2.537964941341   122.97182002   180.07882485
 C     13  12  11     2.670783008724   119.40147134     0.88154540
 C      8   7   6     2.609974564410   125.60223308     0.17534552
 C     15   8   7     2.757405404730   115.34564677     0.06006009
 C     16  15   8     2.618954744553   123.48834689   179.45788832
 C     17  16  15     2.647808925311   122.51201353   180.00125792
 C     18  17  16     2.682656459663   121.52769281   179.87833098
 C     19  18  17     2.577843019606   120.47569381   179.94246780
 C     20  19  18     2.677832951244   120.58683535   359.93490944
 C     21  20  19     2.576729728903   120.39878835     0.09798462
 C     18  17  16     2.682683345389   119.63158023   359.87779430
 C     23  18  17     2.639163060172   118.49565413     0.28311392
 C     24  23  18     2.620211625540   122.16627637   359.78396258
 N      9   8   7     2.637825562501   108.36741821   359.90162272
 C     26   9   8     2.717840361275   123.91904024   179.53922260
 C     26   9   8     2.601129211098   111.07363907   359.94013307
 O     28  26   9     2.290893833782   126.67751981   180.19528070
 H      1   2   3     2.058706165238   112.42765666    67.39666459
 H      1   2   3     2.060610188522   111.38386022   305.14006407
 H      1   2   3     2.061125763168   108.83520034   186.55072379
 H      2   1   3     2.061425091119   111.56698827   236.03593706
 H      2   1   3     2.057119969268   110.63834420   115.92125829
 H     10   9   8     2.044421153014   123.03579741   180.02254898
 H     11  10   9     2.043051279365   117.00348284   179.95331074
 H     14  13  12     2.065427756865   111.94708968    60.77138304
 H     14  13  12     2.065908223133   112.04541947   297.92377501
 H     14  13  12     2.055245071515   106.32672994   179.35234667
 H     17  16  15     2.037463160676   120.22702358   359.91561605
 H     19  18  17     2.047068114436   118.97829472   359.97533986
 H     20  19  18     2.045054058213   120.05604300   180.00316423
 H     21  20  19     2.045123324721   119.43790635   180.08155211
 H     22  21  20     2.047145169642   120.76328960   179.94542163
 H     24  23  18     2.048076009002   117.33167098   179.92912474
 H     27  26   9     2.061171542695   110.97085788   297.91266363
 H     27  26   9     2.053251499088   109.23024337   178.33431434
 H     27  26   9     2.060680145257   110.81851771    58.77508434

---------------------
BASIS SET INFORMATION
---------------------
There are 4 groups of distinct atoms

 Group   1 Type C   : 19s6p3d2f contracted to 5s4p3d2f pattern {88111/3111/111/11}
 Group   2 Type O   : 19s6p3d2f contracted to 5s4p3d2f pattern {88111/3111/111/11}
 Group   3 Type N   : 19s6p3d2f contracted to 5s4p3d2f pattern {88111/3111/111/11}
 Group   4 Type H   : 5s2p1d contracted to 3s2p1d pattern {311/11/1}

Atom   0C    basis set group =>   1
Atom   1C    basis set group =>   1
Atom   2O    basis set group =>   2
Atom   3C    basis set group =>   1
Atom   4O    basis set group =>   2
Atom   5C    basis set group =>   1
Atom   6C    basis set group =>   1
Atom   7C    basis set group =>   1
Atom   8C    basis set group =>   1
Atom   9C    basis set group =>   1
Atom  10C    basis set group =>   1
Atom  11C    basis set group =>   1
Atom  12O    basis set group =>   2
Atom  13C    basis set group =>   1
Atom  14C    basis set group =>   1
Atom  15C    basis set group =>   1
Atom  16C    basis set group =>   1
Atom  17C    basis set group =>   1
Atom  18C    basis set group =>   1
Atom  19C    basis set group =>   1
Atom  20C    basis set group =>   1
Atom  21C    basis set group =>   1
Atom  22C    basis set group =>   1
Atom  23C    basis set group =>   1
Atom  24C    basis set group =>   1
Atom  25N    basis set group =>   3
Atom  26C    basis set group =>   1
Atom  27C    basis set group =>   1
Atom  28O    basis set group =>   2
Atom  29H    basis set group =>   4
Atom  30H    basis set group =>   4
Atom  31H    basis set group =>   4
Atom  32H    basis set group =>   4
Atom  33H    basis set group =>   4
Atom  34H    basis set group =>   4
Atom  35H    basis set group =>   4
Atom  36H    basis set group =>   4
Atom  37H    basis set group =>   4
Atom  38H    basis set group =>   4
Atom  39H    basis set group =>   4
Atom  40H    basis set group =>   4
Atom  41H    basis set group =>   4
Atom  42H    basis set group =>   4
Atom  43H    basis set group =>   4
Atom  44H    basis set group =>   4
Atom  45H    basis set group =>   4
Atom  46H    basis set group =>   4
Atom  47H    basis set group =>   4
---------------------------------
AUXILIARY/J BASIS SET INFORMATION
---------------------------------
There are 4 groups of distinct atoms

 Group   1 Type C   : 10s7p5d2f1g contracted to 10s7p5d2f1g pattern {1111111111/1111111/11111/11/1}
 Group   2 Type O   : 10s7p5d2f1g contracted to 10s7p5d2f1g pattern {1111111111/1111111/11111/11/1}
 Group   3 Type N   : 10s7p5d2f1g contracted to 10s7p5d2f1g pattern {1111111111/1111111/11111/11/1}
 Group   4 Type H   : 4s3p2d1f contracted to 4s3p2d1f pattern {1111/111/11/1}

Atom   0C    basis set group =>   1
Atom   1C    basis set group =>   1
Atom   2O    basis set group =>   2
Atom   3C    basis set group =>   1
Atom   4O    basis set group =>   2
Atom   5C    basis set group =>   1
Atom   6C    basis set group =>   1
Atom   7C    basis set group =>   1
Atom   8C    basis set group =>   1
Atom   9C    basis set group =>   1
Atom  10C    basis set group =>   1
Atom  11C    basis set group =>   1
Atom  12O    basis set group =>   2
Atom  13C    basis set group =>   1
Atom  14C    basis set group =>   1
Atom  15C    basis set group =>   1
Atom  16C    basis set group =>   1
Atom  17C    basis set group =>   1
Atom  18C    basis set group =>   1
Atom  19C    basis set group =>   1
Atom  20C    basis set group =>   1
Atom  21C    basis set group =>   1
Atom  22C    basis set group =>   1
Atom  23C    basis set group =>   1
Atom  24C    basis set group =>   1
Atom  25N    basis set group =>   3
Atom  26C    basis set group =>   1
Atom  27C    basis set group =>   1
Atom  28O    basis set group =>   2
Atom  29H    basis set group =>   4
Atom  30H    basis set group =>   4
Atom  31H    basis set group =>   4
Atom  32H    basis set group =>   4
Atom  33H    basis set group =>   4
Atom  34H    basis set group =>   4
Atom  35H    basis set group =>   4
Atom  36H    basis set group =>   4
Atom  37H    basis set group =>   4
Atom  38H    basis set group =>   4
Atom  39H    basis set group =>   4
Atom  40H    basis set group =>   4
Atom  41H    basis set group =>   4
Atom  42H    basis set group =>   4
Atom  43H    basis set group =>   4
Atom  44H    basis set group =>   4
Atom  45H    basis set group =>   4
Atom  46H    basis set group =>   4
Atom  47H    basis set group =>   4
---------------------------------
AUXILIARY/C BASIS SET INFORMATION
---------------------------------
There are 4 groups of distinct atoms

 Group   1 Type C   : 9s7p6d4f2g contracted to 9s7p6d4f2g pattern {111111111/1111111/111111/1111/11}
 Group   2 Type O   : 9s7p6d4f2g contracted to 9s7p6d4f2g pattern {111111111/1111111/111111/1111/11}
 Group   3 Type N   : 9s7p6d4f2g contracted to 9s7p6d4f2g pattern {111111111/1111111/111111/1111/11}
 Group   4 Type H   : 4s3p2d1f contracted to 4s3p2d1f pattern {1111/111/11/1}

Atom   0C    basis set group =>   1
Atom   1C    basis set group =>   1
Atom   2O    basis set group =>   2
Atom   3C    basis set group =>   1
Atom   4O    basis set group =>   2
Atom   5C    basis set group =>   1
Atom   6C    basis set group =>   1
Atom   7C    basis set group =>   1
Atom   8C    basis set group =>   1
Atom   9C    basis set group =>   1
Atom  10C    basis set group =>   1
Atom  11C    basis set group =>   1
Atom  12O    basis set group =>   2
Atom  13C    basis set group =>   1
Atom  14C    basis set group =>   1
Atom  15C    basis set group =>   1
Atom  16C    basis set group =>   1
Atom  17C    basis set group =>   1
Atom  18C    basis set group =>   1
Atom  19C    basis set group =>   1
Atom  20C    basis set group =>   1
Atom  21C    basis set group =>   1
Atom  22C    basis set group =>   1
Atom  23C    basis set group =>   1
Atom  24C    basis set group =>   1
Atom  25N    basis set group =>   3
Atom  26C    basis set group =>   1
Atom  27C    basis set group =>   1
Atom  28O    basis set group =>   2
Atom  29H    basis set group =>   4
Atom  30H    basis set group =>   4
Atom  31H    basis set group =>   4
Atom  32H    basis set group =>   4
Atom  33H    basis set group =>   4
Atom  34H    basis set group =>   4
Atom  35H    basis set group =>   4
Atom  36H    basis set group =>   4
Atom  37H    basis set group =>   4
Atom  38H    basis set group =>   4
Atom  39H    basis set group =>   4
Atom  40H    basis set group =>   4
Atom  41H    basis set group =>   4
Atom  42H    basis set group =>   4
Atom  43H    basis set group =>   4
Atom  44H    basis set group =>   4
Atom  45H    basis set group =>   4
Atom  46H    basis set group =>   4
Atom  47H    basis set group =>   4


           ************************************************************
           *        Program running with 4 parallel MPI-processes     *
           *              working on a common directory               *
           ************************************************************
------------------------------------------------------------------------------
                           ORCA GTO INTEGRAL CALCULATION
                           -- RI-GTO INTEGRALS CHOSEN --
------------------------------------------------------------------------------
------------------------------------------------------------------------------
                   ___                                                        
                  /   \      - P O W E R E D   B Y -                         
                 /     \                                                     
                 |  |  |   _    _      __       _____    __    __             
                 |  |  |  | |  | |    /  \     |  _  \  |  |  /  |          
                  \  \/   | |  | |   /    \    | | | |  |  | /  /          
                 / \  \   | |__| |  /  /\  \   | |_| |  |  |/  /          
                |  |  |   |  __  | /  /__\  \  |    /   |      \           
                |  |  |   | |  | | |   __   |  |    \   |  |\   \          
                \     /   | |  | | |  |  |  |  | |\  \  |  | \   \       
                 \___/    |_|  |_| |__|  |__|  |_| \__\ |__|  \__/        
                                                                              
                      - O R C A' S   B I G   F R I E N D -                    
                                      &                                       
                       - I N T E G R A L  F E E D E R -                       
                                                                              
 v1 FN, 2020, v2 2021                                                         
------------------------------------------------------------------------------


Reading SHARK input file optpbed3-b2plyp-test-577.SHARKINP.tmp ... ok
----------------------
SHARK INTEGRAL PACKAGE
----------------------

Number of atoms                             ...     48
Number of basis functions                   ...   1774
Number of shells                            ...    694
Maximum angular momentum                    ...      3
Integral batch strategy                     ... SHARK/LIBINT Hybrid
RI-J (if used) integral strategy            ... SPLIT-RIJ (Revised 2003 algorithm where possible)
Printlevel                                  ...      1
Contraction scheme used                     ... PARTIAL GENERAL contraction
Coulomb Range Separation                    ... NOT USED
Exchange Range Separation                   ... NOT USED
Finite Nucleus Model                        ... NOT USED
Auxiliary Coulomb fitting basis             ... AVAILABLE
   # of basis functions in Aux-J            ...   2861
   # of shells in Aux-J                     ...    915
   Maximum angular momentum in Aux-J        ...      4
Auxiliary J/K fitting basis                 ... NOT available
Auxiliary Correlation fitting basis         ... AVAILABLE
   # of basis functions in Aux-C            ...   3644
   # of shells in Aux-C                     ...   1002
   Maximum angular momentum in Aux-C        ...      4
Auxiliary 'external' fitting basis          ... NOT available
Integral threshold                          ...     1.000000e-10
Primitive cut-off                           ...     1.000000e-11
Primitive pair pre-selection threshold      ...     1.000000e-11

Calculating pre-screening integrals         ... done (  0.5 sec) Dimension = 694
Calculating pre-screening integrals (ORCA)  ... done (  1.1 sec) Dimension = 520
Organizing shell pair data                  ... done (  3.2 sec)
Shell pair information
Total number of shell pairs                 ...    241165
Shell pairs after pre-screening             ...    139607
Total number of primitive shell pairs       ...    312589
Primitive shell pairs kept                  ...    161345
          la=0 lb=0:  30952 shell pairs
          la=1 lb=0:  35793 shell pairs
          la=1 lb=1:   8891 shell pairs
          la=2 lb=0:  23576 shell pairs
          la=2 lb=1:  11827 shell pairs
          la=2 lb=2:   4006 shell pairs
          la=3 lb=0:  12483 shell pairs
          la=3 lb=1:   6426 shell pairs
          la=3 lb=2:   4372 shell pairs
          la=3 lb=3:   1281 shell pairs

Calculating one electron integrals          ... done (  0.5 sec)
Calculating RI/J V-Matrix + Cholesky decomp.... done (  1.0 sec)
Calculating RI/C V-Matrix + Cholesky decomp.... done (  1.1 sec)
Calculating Nuclear repulsion               ... done (  0.0 sec) ENN=   2673.871310275656 Eh

SHARK setup successfully completed in  10.9 seconds

Maximum memory used throughout the entire GTOINT-calculation: 226.5 MB


           ************************************************************
           *        Program running with 4 parallel MPI-processes     *
           *              working on a common directory               *
           ************************************************************
-------------------------------------------------------------------------------
                                 ORCA SCF
-------------------------------------------------------------------------------

------------
SCF SETTINGS
------------
Hamiltonian:
 Density Functional     Method          .... DFT(GTOs)
 Exchange Functional    Exchange        .... B88
   X-Alpha parameter    XAlpha          ....  0.666667
   Becke's b parameter  XBeta           ....  0.004200
 Correlation Functional Correlation     .... LYP
 LDA part of GGA corr.  LDAOpt          .... VWN-3
 Gradients option       PostSCFGGA      .... off
 Hybrid DFT is turned on
   Fraction HF Exchange ScalHFX         ....  0.530000
   Scaling of DF-GGA-X  ScalDFX         ....  0.470000
   Scaling of DF-GGA-C  ScalDFC         ....  0.730000
   Scaling of DF-LDA-C  ScalLDAC        ....  0.730000
   Perturbative correction              ....  0.270000
   Density functional embedding theory  .... OFF
   NL short-range parameter             ....  7.800000
 RI-approximation to the Coulomb term is turned on
   Number of AuxJ basis functions       .... 2861
   RIJ-COSX (HFX calculated with COS-X)).... on


General Settings:
 Integral files         IntName         .... optpbed3-b2plyp-test-577
 Hartree-Fock type      HFTyp           .... RHF
 Total Charge           Charge          ....    0
 Multiplicity           Mult            ....    1
 Number of Electrons    NEL             ....  202
 Basis Dimension        Dim             .... 1600
 Nuclear Repulsion      ENuc            ....   2673.8713102757 Eh

Convergence Acceleration:
 DIIS                   CNVDIIS         .... on
   Start iteration      DIISMaxIt       ....    12
   Startup error        DIISStart       ....  0.200000
   # of expansion vecs  DIISMaxEq       ....     5
   Bias factor          DIISBfac        ....   1.050
   Max. coefficient     DIISMaxC        ....  10.000
 Trust-Rad. Augm. Hess. CNVTRAH         .... auto
   Auto Start mean grad. ratio tolernc. ....  1.125000
   Auto Start start iteration           ....     1
   Auto Start num. interpolation iter.  ....    10
   Max. Number of Micro iterations      ....    16
   Max. Number of Macro iterations      .... Maxiter - #DIIS iter
   Number of Davidson start vectors     ....     2
   Converg. threshold I  (grad. norm)   ....   5.000e-05
   Converg. threshold II (energy diff.) ....   1.000e-06
   Grad. Scal. Fac. for Micro threshold ....   0.100
   Minimum threshold for Micro iter.    ....   0.010
   NR start threshold (gradient norm)   ....   0.001
   Initial trust radius                 ....   0.400
   Minimum AH scaling param. (alpha)    ....   1.000
   Maximum AH scaling param. (alpha)    .... 1000.000
   Orbital update algorithm             .... Taylor
   White noise on init. David. guess    .... on
   Maximum white noise                  ....   0.010
   Quad. conv. algorithm                .... NR
 SOSCF                  CNVSOSCF        .... on
   Start iteration      SOSCFMaxIt      ....   150
   Startup grad/error   SOSCFStart      ....  0.003300
 Level Shifting         CNVShift        .... on
   Level shift para.    LevelShift      ....    0.2500
   Turn off err/grad.   ShiftErr        ....    0.0010
 Zerner damping         CNVZerner       .... off
 Static damping         CNVDamp         .... on
   Fraction old density DampFac         ....    0.7000
   Max. Damping (<1)    DampMax         ....    0.9800
   Min. Damping (>=0)   DampMin         ....    0.0000
   Turn off err/grad.   DampErr         ....    0.1000
 Fernandez-Rico         CNVRico         .... off

SCF Procedure:
 Maximum # iterations   MaxIter         ....   125
 SCF integral mode      SCFMode         .... Direct
   Integral package                     .... SHARK and LIBINT hybrid scheme
 Reset frequency        DirectResetFreq ....    20
 Integral Threshold     Thresh          ....  1.000e-10 Eh
 Primitive CutOff       TCut            ....  1.000e-11 Eh

Convergence Tolerance:
 Convergence Check Mode ConvCheckMode   .... Total+1el-Energy
 Convergence forced     ConvForced      .... 1
 Energy Change          TolE            ....  1.000e-06 Eh
 1-El. energy change                    ....  1.000e-03 Eh
 Orbital Gradient       TolG            ....  5.000e-05
 Orbital Rotation angle TolX            ....  5.000e-05
 DIIS Error             TolErr          ....  1.000e-06


Diagonalization of the overlap matrix:
Smallest eigenvalue                        ... 1.923e-09
Time for diagonalization                   ...    0.651 sec
Threshold for overlap eigenvalues          ... 1.000e-08
Number of eigenvalues below threshold      ... 1
Smallest eigenvalue above threshold        ... 3.226e-08
Time for construction of square roots      ...    0.426 sec
Total time needed                          ...    1.092 sec

---------------------
INITIAL GUESS: MOREAD
---------------------
Guess MOs are being read from file: optpbed3-b2plyp-test-577-optimize-part.gbw
Input Geometry matches current geometry (good)
Atom 0: N(Shells)= 14 and 7 - projection required
Input basis set needs projection
NBasis(read)= 473
NBasis(calc)= 1600
Basis set overlap was calculated
Using GuessMode=FMatrix for the initial guess
C*T matrix was formed
Effective Fockian was calculated
Effective Fockian was diagonalized
Initial density was built
                      ------------------
                      INITIAL GUESS DONE (   1.9 sec)
                      ------------------
-------------------
DFT GRID GENERATION
-------------------

General Integration Accuracy     IntAcc      ... 4.388
Radial Grid Type                 RadialGrid  ... OptM3 with GC (2021)
Angular Grid (max. ang.)         AngularGrid ... 4 (Lebedev-302)
Angular grid pruning method      GridPruning ... 4 (adaptive)
Weight generation scheme         WeightScheme... Becke
Basis function cutoff            BFCut       ... 1.0000e-10
Integration weight cutoff        WCut        ... 1.0000e-14
Angular grids for H and He will be reduced by one unit
Partially contracted basis set               ... off
Rotationally invariant grid construction     ... off

Total number of grid points                  ...   239915
Total number of batches                      ...     3772
Average number of points per batch           ...       63
Average number of grid points per atom       ...     4998
Time for grid setup =    4.548 sec

--------------------
COSX GRID GENERATION
--------------------

GRIDX 1
-------
General Integration Accuracy     IntAcc      ... 3.816
Radial Grid Type                 RadialGrid  ... OptM3 with GC (2021)
Angular Grid (max. ang.)         AngularGrid ... 1 (Lebedev-50)
Angular grid pruning method      GridPruning ... 4 (adaptive)
Weight generation scheme         WeightScheme... Becke
Basis function cutoff            BFCut       ... 1.0000e-10
Integration weight cutoff        WCut        ... 1.0000e-14
Angular grids for H and He will be reduced by one unit
Partially contracted basis set               ... on
Rotationally invariant grid construction     ... off

Total number of grid points                  ...    30489
Total number of batches                      ...      502
Average number of points per batch           ...       60
Average number of grid points per atom       ...      635
UseSFitting                                  ... on

GRIDX 2
-------
General Integration Accuracy     IntAcc      ... 4.020
Radial Grid Type                 RadialGrid  ... OptM3 with GC (2021)
Angular Grid (max. ang.)         AngularGrid ... 2 (Lebedev-110)
Angular grid pruning method      GridPruning ... 4 (adaptive)
Weight generation scheme         WeightScheme... Becke
Basis function cutoff            BFCut       ... 1.0000e-10
Integration weight cutoff        WCut        ... 1.0000e-14
Angular grids for H and He will be reduced by one unit
Partially contracted basis set               ... on
Rotationally invariant grid construction     ... off

Total number of grid points                  ...    71605
Total number of batches                      ...     1141
Average number of points per batch           ...       62
Average number of grid points per atom       ...     1492
UseSFitting                                  ... on

GRIDX 3
-------
General Integration Accuracy     IntAcc      ... 4.338
Radial Grid Type                 RadialGrid  ... OptM3 with GC (2021)
Angular Grid (max. ang.)         AngularGrid ... 3 (Lebedev-194)
Angular grid pruning method      GridPruning ... 4 (adaptive)
Weight generation scheme         WeightScheme... Becke
Basis function cutoff            BFCut       ... 1.0000e-10
Integration weight cutoff        WCut        ... 1.0000e-14
Angular grids for H and He will be reduced by one unit
Partially contracted basis set               ... on
Rotationally invariant grid construction     ... off

Total number of grid points                  ...   154429
Total number of batches                      ...     2436
Average number of points per batch           ...       63
Average number of grid points per atom       ...     3217
UseSFitting                                  ... on

Time for X-Grid setup             =   12.830 sec


--------------------
CPCM SOLVATION MODEL
--------------------
CPCM parameters:
  Epsilon                                         ...      35.6880
  Refrac                                          ...       1.3442
  Rsolv                                           ...       1.3000
  Surface type                                    ... GAUSSIAN VDW
  Epsilon function type                           ...         CPCM
Solvent:                                     ... ACETONITRILE
SMD-CDS solvent descriptors:
  Soln                                       ...    1.3442
  Soln25                                     ...    1.3416
  Sola                                       ...    0.0700
  Solb                                       ...    0.3200
  Solg                                       ...   41.2500
  Solc                                       ...    0.0000
  Solh                                       ...    0.0000
Radii:
 Radius for C  used is    3.4960 Bohr (=   1.8500 Ang.)
 Radius for O  used is    4.0969 Bohr (=   2.1680 Ang.)
 Radius for N  used is    3.5716 Bohr (=   1.8900 Ang.)
 Radius for H  used is    2.2677 Bohr (=   1.2000 Ang.)
Calculating surface                               ...        done! (  0.0s)
GEPOL surface points                              ...         2545
GEPOL Volume                                      ...    2783.2260
GEPOL Surface-area                                ...    1425.4998
Calculating surface distance matrix               ...        done! (  0.1s)
Performing Cholesky decomposition & store         ...        done! (  0.4s)
Overall time for CPCM initialization              ...                 0.5s
 re-compute Schwartz prescreening matrix in partically contracted basis (1) ...done (   0.394 sec)
--------------
SCF ITERATIONS
--------------
ITER       Energy         Delta-E        Max-DP      RMS-DP      [F,P]     Damp
               ***  Starting incremental Fock matrix formation  ***
  0  -1279.2981473933   0.000000000000 9.11324087  0.03469788  0.0705964 0.7000
                      *** Initiating the SOSCF procedure ***
                      *** Re-Reading the Fockian *** 
                      *** Removing any level shift *** 
ITER      Energy       Delta-E        Grad      Rot      Max-DP    RMS-DP
  1  -1279.35990173  -0.0617543410  0.001802  0.001802 32.071737  0.101799
               *** Restarting incremental Fock matrix formation ***
  2  -1279.51522011  -0.1553183710  0.001493  0.003648 17.919370  0.056495
  3  -1279.51746255  -0.0022424448  0.001025  0.002628 29.394256  0.092765
  4  -1279.51762037  -0.0001578219  0.000747  0.001210 29.771777  0.078085
  5  -1279.51773346  -0.0001130886  0.000325  0.001631 20.620504  0.057082
  6  -1279.51773536  -0.0000018946  0.000958  0.002478  3.325749  0.020493
  7  -1279.51773399   0.0000013652  0.001057  0.001487 12.888540  0.041022
  8  -1279.51773344   0.0000005538  0.000233  0.000329 22.766634  0.061007
  9  -1279.51772974   0.0000036947  0.000129  0.000419 58.538412  0.165934
 10  -1279.51770963   0.0000201100  0.000384  0.002733 763.875898  2.322705
 11  -1279.51738722   0.0003224131  0.000575  0.000995 538.331262  1.559618
 12  -1279.51718987   0.0001973493  0.001526  0.015749 29698.794951 84.338137
 13  -1279.49840588   0.0187839866  0.020678  0.007176 24824.588279 74.806704
 14  -1279.48777396   0.0106319243  0.021117  0.027024 31267.471232 93.908258
 15  -1279.49878181  -0.0110078495  0.017698  0.023603 77483.510496 235.917259
 16  -1279.47159290   0.0271889080  0.038602  2.003640 7581860.844281 21205.326259
 17  -1265.11422623  14.3573666686  0.120856  0.617779 1530237.392195 4629.332626
 18  -1265.68275742  -0.5685311925  0.245839  7.102241 863397.376884 3417.406860
 19  -1228.92169461  36.7610628163  0.286387  4.629537 801541.905427 2735.400898

 WARNING: the maximum gradient error descreased on average only by a factor   0.5
          during the last 20 iterations

                      *** Initiating the TRAH-SCF procedure ***

              ***Rediagonalizing the Fockian in SOSCF/NRSCF***

TRAH GRIDX
----------

General Integration Accuracy     IntAcc      ... 3.067
Radial Grid Type                 RadialGrid  ... OptM3 with GC (2021)
Angular Grid (max. ang.)         AngularGrid ... 1 (Lebedev-50)
Angular grid pruning method      GridPruning ... 4 (adaptive)
Weight generation scheme         WeightScheme... Becke
Basis function cutoff            BFCut       ... 1.0000e-10
Integration weight cutoff        WCut        ... 1.0000e-14
Angular grids for H and He will be reduced by one unit
Partially contracted basis set               ... on
Rotationally invariant grid construction     ... off

Total number of grid points                  ...    16269
Total number of batches                      ...      283
Average number of points per batch           ...       57
Average number of grid points per atom       ...      339


TRAH GRID
---------

General Integration Accuracy     IntAcc      ... 3.467
Radial Grid Type                 RadialGrid  ... OptM3 with GC (2021)
Angular Grid (max. ang.)         AngularGrid ... 1 (Lebedev-50)
Angular grid pruning method      GridPruning ... 4 (adaptive)
Weight generation scheme         WeightScheme... Becke
Basis function cutoff            BFCut       ... 1.0000e-10
Integration weight cutoff        WCut        ... 1.0000e-14
Angular grids for H and He will be reduced by one unit
Partially contracted basis set               ... off
Rotationally invariant grid construction     ... off

Total number of grid points                  ...    35639
Total number of batches                      ...      579
Average number of points per batch           ...       61
Average number of grid points per atom       ...      742

 --------------------------------------------------------------------------------------------
   Iter.        energy            ||Error||_2        Shift      TRadius  Mac/Mic        Rej.
 --------------------------------------------------------------------------------------------
WARNING: 4000 diagonal Hessian elements are negative!
    0      -1194.757769224721     2.686238e+01                     0.400 (TRAH MAcro)   No
WARNING : negative HOMO - LUMO gap : -2.334252
    0     dE    -9.116136e+00     1.043403e+01    -4.6796e+01      0.400 (TRAH MIcro)
    0     dE    -9.286635e+00     8.291098e+00    -5.0226e+01      0.400 (TRAH MIcro)
    0     dE    -9.480259e+00     4.475910e+00    -5.3357e+01      0.400 (TRAH MIcro)
    0     dE    -9.614790e+00     3.418362e-01    -5.5038e+01      0.400 (TRAH MIcro)
    0     dE    -9.615599e+00     1.763566e-01    -5.5040e+01      0.400 (TRAH MIcro)
    0     dE    -9.615609e+00     1.688378e-01    -5.5040e+01      0.400 (TRAH MIcro)
    0     dE    -9.615770e+00     5.545458e-02    -5.5038e+01      0.400 (TRAH MIcro)
    0     dE    -9.615762e+00     1.043572e-02    -5.5037e+01      0.400 (TRAH MIcro)
    0     dE    -9.615765e+00     8.285321e-03    -5.5037e+01      0.400 (TRAH MIcro)
WARNING: 3382 diagonal Hessian elements are negative!
    1      -1204.330826166849     2.185266e+01                     0.480 (TRAH MAcro)   No
WARNING : negative HOMO - LUMO gap : -2.005993
    1     dE    -9.227251e+00     7.739633e+00    -3.4571e+01      0.480 (TRAH MIcro)
    1     dE    -8.976075e+00     5.926710e+00    -3.8526e+01      0.458 (TRAH MIcro)
    1     dE    -9.149134e+00     4.416538e+00    -3.8821e+01      0.464 (TRAH MIcro)
    1     dE    -9.449404e+00     3.495855e-01    -3.9428e+01      0.472 (TRAH MIcro)
    1     dE    -9.451487e+00     1.035890e-01    -3.9434e+01      0.472 (TRAH MIcro)
    1     dE    -9.451430e+00     9.725372e-02    -3.9434e+01      0.472 (TRAH MIcro)
    1     dE    -9.451469e+00     6.162688e-02    -3.9434e+01      0.472 (TRAH MIcro)
    1     dE    -9.451579e+00     1.167949e-02    -3.9434e+01      0.472 (TRAH MIcro)
    1     dE    -9.451572e+00     9.232307e-03    -3.9434e+01      0.472 (TRAH MIcro)
WARNING: 2730 diagonal Hessian elements are negative!
    2      -1213.721982976152     1.841686e+01                     0.576 (TRAH MAcro)   No
WARNING : negative HOMO - LUMO gap : -1.697865
    2     dE    -9.497674e+00     5.368911e+00    -2.5280e+01      0.576 (TRAH MIcro)
    2     dE    -9.622390e+00     4.131066e+00    -2.6473e+01      0.576 (TRAH MIcro)
    2     dE    -9.657526e+00     3.411760e+00    -2.6770e+01      0.576 (TRAH MIcro)
    2     dE    -9.769018e+00     4.559283e-01    -2.7520e+01      0.576 (TRAH MIcro)
    2     dE    -9.772202e+00     1.386873e-01    -2.7538e+01      0.576 (TRAH MIcro)
    2     dE    -9.772221e+00     1.260990e-01    -2.7538e+01      0.576 (TRAH MIcro)
    2     dE    -9.772320e+00     7.962360e-02    -2.7537e+01      0.576 (TRAH MIcro)
    2     dE    -9.772399e+00     1.646445e-02    -2.7536e+01      0.576 (TRAH MIcro)
    2     dE    -9.772405e+00     1.254350e-02    -2.7536e+01      0.576 (TRAH MIcro)
    2     dE    -9.772395e+00     1.349240e-02    -2.7536e+01      0.576 (TRAH MIcro)
    2     dE    -9.772411e+00     1.131293e-02    -2.7536e+01      0.576 (TRAH MIcro)
    2     dE    -9.772395e+00     1.084170e-02    -2.7536e+01      0.576 (TRAH MIcro)
    2     dE    -9.772395e+00     1.084895e-02    -2.7536e+01      0.576 (TRAH MIcro)
    2     dE    -9.772395e+00     1.111586e-02    -2.7536e+01      0.576 (TRAH MIcro)
WARNING: 2106 diagonal Hessian elements are negative!
    3      -1223.415714190336     1.561358e+01                     0.691 (TRAH MAcro)   No
WARNING : negative HOMO - LUMO gap : -1.464538
    3     dE    -9.669987e+00     4.115183e+00    -1.7892e+01      0.691 (TRAH MIcro)
    3     dE    -9.816225e+00     2.950804e+00    -1.8863e+01      0.691 (TRAH MIcro)
    3     dE    -9.852881e+00     2.415057e+00    -1.9089e+01      0.691 (TRAH MIcro)
    3     dE    -9.942912e+00     4.468191e-01    -1.9518e+01      0.691 (TRAH MIcro)
    3     dE    -9.946773e+00     1.925320e-01    -1.9532e+01      0.691 (TRAH MIcro)
    3     dE    -9.946908e+00     1.702301e-01    -1.9532e+01      0.691 (TRAH MIcro)
    3     dE    -9.947180e+00     8.149401e-02    -1.9532e+01      0.691 (TRAH MIcro)
    3     dE    -9.947314e+00     1.699044e-02    -1.9533e+01      0.691 (TRAH MIcro)
    3     dE    -9.947319e+00     1.517018e-02    -1.9533e+01      0.691 (TRAH MIcro)
    3     dE    -9.947335e+00     1.451099e-02    -1.9533e+01      0.691 (TRAH MIcro)
    3     dE    -9.947342e+00     1.256919e-02    -1.9533e+01      0.691 (TRAH MIcro)
    3     dE    -9.947322e+00     1.288055e-02    -1.9533e+01      0.691 (TRAH MIcro)
    3     dE    -9.947328e+00     1.326900e-02    -1.9533e+01      0.691 (TRAH MIcro)
    3     dE    -9.947339e+00     1.579942e-02    -1.9533e+01      0.691 (TRAH MIcro)
WARNING: 1543 diagonal Hessian elements are negative!
    4      -1233.256845693377     1.318864e+01                     0.829 (TRAH MAcro)   No
WARNING : negative HOMO - LUMO gap : -1.233010
    4     dE    -9.749725e+00     3.628382e+00    -1.2443e+01      0.829 (TRAH MIcro)
    4     dE    -9.944043e+00     2.411358e+00    -1.3341e+01      0.829 (TRAH MIcro)
    4     dE    -1.000054e+01     1.793004e+00    -1.3580e+01      0.829 (TRAH MIcro)
    4     dE    -1.007762e+01     3.869916e-01    -1.3811e+01      0.829 (TRAH MIcro)
    4     dE    -1.008103e+01     2.199293e-01    -1.3817e+01      0.829 (TRAH MIcro)
    4     dE    -1.008133e+01     1.791468e-01    -1.3816e+01      0.829 (TRAH MIcro)
    4     dE    -1.008193e+01     5.615331e-02    -1.3819e+01      0.829 (TRAH MIcro)
    4     dE    -1.008201e+01     1.833065e-02    -1.3819e+01      0.829 (TRAH MIcro)
    4     dE    -1.008200e+01     1.610358e-02    -1.3819e+01      0.829 (TRAH MIcro)
    4     dE    -1.008201e+01     1.304134e-02    -1.3819e+01      0.829 (TRAH MIcro)
    4     dE    -1.008201e+01     1.167848e-02    -1.3819e+01      0.829 (TRAH MIcro)
    4     dE    -1.008202e+01     1.162010e-02    -1.3819e+01      0.829 (TRAH MIcro)
    4     dE    -1.008200e+01     1.265873e-02    -1.3819e+01      0.829 (TRAH MIcro)
    4     dE    -1.008201e+01     1.367022e-02    -1.3819e+01      0.829 (TRAH MIcro)
WARNING: 1051 diagonal Hessian elements are negative!
    5      -1243.207273994941     1.107254e+01                     0.995 (TRAH MAcro)   No
WARNING : negative HOMO - LUMO gap : -1.007483
    5     dE    -8.810149e+00     2.957682e+00    -9.8427e+00      0.889 (TRAH MIcro)
    5     dE    -9.390712e+00     1.953662e+00    -1.0058e+01      0.931 (TRAH MIcro)
    5     dE    -9.575663e+00     1.284190e+00    -1.0128e+01      0.944 (TRAH MIcro)
    5     dE    -9.672746e+00     3.291048e-01    -1.0186e+01      0.948 (TRAH MIcro)
    5     dE    -9.673708e+00     1.932131e-01    -1.0190e+01      0.948 (TRAH MIcro)
    5     dE    -9.674112e+00     1.409331e-01    -1.0190e+01      0.948 (TRAH MIcro)
    5     dE    -9.675969e+00     4.088507e-02    -1.0190e+01      0.948 (TRAH MIcro)
    5     dE    -9.676176e+00     2.008849e-02    -1.0191e+01      0.948 (TRAH MIcro)
    5     dE    -9.676157e+00     1.704785e-02    -1.0191e+01      0.948 (TRAH MIcro)
    5     dE    -9.676157e+00     1.605983e-02    -1.0191e+01      0.948 (TRAH MIcro)
    5     dE    -9.676147e+00     1.616226e-02    -1.0191e+01      0.948 (TRAH MIcro)
    5     dE    -9.676148e+00     2.035175e-02    -1.0191e+01      0.948 (TRAH MIcro)
    5     dE    -9.676143e+00     2.253987e-02    -1.0191e+01      0.948 (TRAH MIcro)
    5     dE    -9.676137e+00     2.291471e-02    -1.0191e+01      0.948 (TRAH MIcro)
WARNING: 645 diagonal Hessian elements are negative!
    6      -1252.723315695647     9.193814e+00                     1.194 (TRAH MAcro)   No
WARNING : negative HOMO - LUMO gap : -0.808913
    6     dE    -7.335339e+00     2.307916e+00    -8.1845e+00      0.890 (TRAH MIcro)
    6     dE    -7.837880e+00     1.434543e+00    -8.3687e+00      0.934 (TRAH MIcro)
    6     dE    -7.978072e+00     8.001444e-01    -8.4232e+00      0.946 (TRAH MIcro)
    6     dE    -8.019507e+00     2.188424e-01    -8.4525e+00      0.947 (TRAH MIcro)
    6     dE    -8.019280e+00     1.298655e-01    -8.4542e+00      0.947 (TRAH MIcro)
    6     dE    -8.019863e+00     7.783363e-02    -8.4545e+00      0.947 (TRAH MIcro)
    6     dE    -8.020713e+00     2.119546e-02    -8.4547e+00      0.947 (TRAH MIcro)
    6     dE    -8.020771e+00     1.210113e-02    -8.4547e+00      0.947 (TRAH MIcro)
    6     dE    -8.020769e+00     1.057389e-02    -8.4547e+00      0.947 (TRAH MIcro)
    6     dE    -8.020770e+00     9.559549e-03    -8.4547e+00      0.947 (TRAH MIcro)
WARNING: 359 diagonal Hessian elements are negative!
    7      -1260.611058188588     7.570343e+00                     1.433 (TRAH MAcro)   No
WARNING : negative HOMO - LUMO gap : -0.681177
    7     dE    -5.939354e+00     1.884173e+00    -6.6793e+00      0.882 (TRAH MIcro)
    7     dE    -6.393015e+00     1.086846e+00    -6.8475e+00      0.931 (TRAH MIcro)
    7     dE    -6.511263e+00     4.736266e-01    -6.8940e+00      0.943 (TRAH MIcro)
    7     dE    -6.523314e+00     1.439959e-01    -6.9085e+00      0.943 (TRAH MIcro)
    7     dE    -6.522564e+00     8.097031e-02    -6.9093e+00      0.942 (TRAH MIcro)
    7     dE    -6.522978e+00     4.041996e-02    -6.9095e+00      0.942 (TRAH MIcro)
    7     dE    -6.523292e+00     1.218966e-02    -6.9096e+00      0.942 (TRAH MIcro)
    7     dE    -6.523305e+00     9.233470e-03    -6.9096e+00      0.942 (TRAH MIcro)
WARNING: 184 diagonal Hessian elements are negative!
    8      -1267.015549929492     6.080580e+00                     1.720 (TRAH MAcro)   No
WARNING : negative HOMO - LUMO gap : -0.590891
    8     dE    -4.575005e+00     1.566921e+00    -5.2458e+00      0.863 (TRAH MIcro)
    8     dE    -4.977495e+00     8.706264e-01    -5.3972e+00      0.919 (TRAH MIcro)
    8     dE    -5.081184e+00     3.288369e-01    -5.4386e+00      0.932 (TRAH MIcro)
    8     dE    -5.081932e+00     8.888653e-02    -5.4481e+00      0.930 (TRAH MIcro)
    8     dE    -5.080647e+00     4.370271e-02    -5.4486e+00      0.930 (TRAH MIcro)
    8     dE    -5.080653e+00     2.099302e-02    -5.4487e+00      0.930 (TRAH MIcro)
    8     dE    -5.080802e+00     7.757729e-03    -5.4487e+00      0.930 (TRAH MIcro)
WARNING: 78 diagonal Hessian elements are negative!
    9      -1271.987665488321     4.647900e+00                     2.064 (TRAH MAcro)   No
WARNING : negative HOMO - LUMO gap : -0.495593
    9     dE    -3.231017e+00     1.288421e+00    -3.8403e+00      0.826 (TRAH MIcro)
    9     dE    -3.610317e+00     6.507579e-01    -3.9876e+00      0.900 (TRAH MIcro)
    9     dE    -3.698060e+00     2.096413e-01    -4.0214e+00      0.916 (TRAH MIcro)
    9     dE    -3.688975e+00     5.876775e-02    -4.0265e+00      0.912 (TRAH MIcro)
    9     dE    -3.686287e+00     2.357258e-02    -4.0269e+00      0.911 (TRAH MIcro)
    9     dE    -3.686021e+00     8.367748e-03    -4.0270e+00      0.911 (TRAH MIcro)
WARNING: 27 diagonal Hessian elements are negative!
   10      -1275.567273307069     3.263668e+00                     2.477 (TRAH MAcro)   No
WARNING : negative HOMO - LUMO gap : -0.391424
   10     dE    -1.976343e+00     1.089898e+00    -2.4948e+00      0.764 (TRAH MIcro)
   10     dE    -2.475514e+00     4.157361e-01    -2.6913e+00      0.916 (TRAH MIcro)
   10     dE    -2.558723e+00     1.484418e-01    -2.7137e+00      0.941 (TRAH MIcro)
   10     dE    -2.569075e+00     3.955842e-02    -2.7155e+00      0.945 (TRAH MIcro)
   10     dE    -2.571424e+00     1.345633e-02    -2.7157e+00      0.945 (TRAH MIcro)
   10     dE    -2.572769e+00     4.908428e-03    -2.7157e+00      0.946 (TRAH MIcro)
WARNING: 1 diagonal Hessian elements are negative!
   11      -1277.991029445456     2.077446e+00                     2.972 (TRAH MAcro)   No
WARNING : negative HOMO - LUMO gap : -0.053612
   11     dE    -1.055262e+00     1.064872e+00    -1.4312e+00      0.689 (TRAH MIcro)
   11     dE    -1.460336e+00     3.041688e-01    -1.6306e+00      0.889 (TRAH MIcro)
   11     dE    -1.475569e+00     7.006462e-02    -1.6374e+00      0.896 (TRAH MIcro)
   11     dE    -1.474501e+00     1.878971e-02    -1.6379e+00      0.895 (TRAH MIcro)
   11     dE    -1.474376e+00     4.458971e-03    -1.6379e+00      0.895 (TRAH MIcro)
   12      -1279.261664747204     9.161481e-01                     3.566 (TRAH MAcro)   No
   12     dE    -1.856176e-01     1.112194e+00    -3.2886e-01      0.359 (TRAH MIcro)
   12     dE    -2.403557e-01     3.129814e-01    -3.9821e-01      0.455 (TRAH MIcro)
   12     dE    -2.492344e-01     6.802166e-02    -4.0698e-01      0.474 (TRAH MIcro)
   12     dE    -2.499588e-01     3.290398e-02    -4.0739e-01      0.477 (TRAH MIcro)
   12     dE    -2.502722e-01     1.001815e-02    -4.0749e-01      0.478 (TRAH MIcro)
   12     dE    -2.502931e-01     5.559981e-03    -4.0750e-01      0.478 (TRAH MIcro)
   13      -1279.507503088379     1.728511e-01                     4.280 (TRAH MAcro)   No
   13     dE    -4.931611e-03     2.803734e-01    -9.8314e-03      0.057 (TRAH MIcro)
   13     dE    -9.325094e-03     1.161567e-01    -1.8392e-02      0.118 (TRAH MIcro)
   13     dE    -1.000611e-02     3.160042e-02    -1.9674e-02      0.131 (TRAH MIcro)
   13     dE    -1.009787e-02     1.912881e-02    -1.9838e-02      0.134 (TRAH MIcro)
   13     dE    -1.012435e-02     6.333285e-03    -1.9879e-02      0.136 (TRAH MIcro)
   14      -1279.517732162336     9.984362e-03                     5.136 (TRAH MAcro)   No
   14     dE    -3.738946e-06     1.331566e-02    -7.4779e-06      0.001 (TRAH MIcro)
   14     dE    -1.007468e-05     3.973829e-03    -2.0149e-05      0.003 (TRAH MIcro)
   14     dE    -1.137772e-05     2.010113e-03    -2.2755e-05      0.004 (TRAH MIcro)
   14     dE    -1.161513e-05     7.579840e-04    -2.3230e-05      0.005 (TRAH MIcro)
   15      -1279.517744517289     7.421418e-04                           (NR   MAcro)
   15     dE    -3.519059e-08     2.969884e-04                           (NR   MIcro)
   15     dE    -4.524774e-08     1.329445e-04                           (NR   MIcro)
   15     dE    -4.675678e-08     6.735269e-05                           (NR   MIcro)
   15     dE    -4.725320e-08     2.439296e-05                           (NR   MIcro)
   15     dE    -4.729808e-08     7.736889e-06                           (NR   MIcro)
   15     dE    -4.730435e-08     3.624041e-06                           (NR   MIcro)
   16      -1279.517744545650     1.359300e-05                           (NR   MAcro)

               *****************************************************
               *                     SUCCESS                       *
               *           SCF CONVERGED AFTER 174 CYCLES          *
               *****************************************************

Old exchange energy                            =    -90.728373032 Eh
New exchange energy                            =    -90.727702901 Eh
Exchange energy change after final integration =      0.000670130 Eh
Total energy after final integration           =  -1279.517074415 Eh
Final COS-X integration done in                =   387.358 sec

SMD CDS free energy correction energy :                -6.03465     Kcal/mol
Total Energy after SMD CDS correction =             -1279.526691248 Eh

----------------
TOTAL SCF ENERGY
----------------

Total Energy       :        -1279.52669125 Eh          -34817.69137 eV

Components:
Nuclear Repulsion  :         2673.87131028 Eh           72759.73739 eV
Electronic Energy  :        -3953.39800152 Eh         -107577.42875 eV
One Electron Energy:        -7058.71067251 Eh         -192077.28242 eV
Two Electron Energy:         3105.31267099 Eh           84499.85367 eV
Max COSX asymmetry :            0.00036153 Eh               0.00984 eV
CPCM Dielectric    :           -0.03074082 Eh              -0.83650 eV
SMD CDS (Gcds)     :           -0.00961683 Eh              -0.26169 eV

Virial components:
Potential Energy   :        -2554.17705322 Eh          -69502.69107 eV
Kinetic Energy     :         1274.65036197 Eh           34684.99970 eV
Virial Ratio       :            2.00382562


DFT components:
N(Alpha)           :      101.000127431013 electrons
N(Beta)            :      101.000127431013 electrons
N(Total)           :      202.000254862027 electrons
E(X)               :      -80.650429371308 Eh       
E(C)               :       -5.088781738342 Eh       
E(XC)              :      -85.739211109651 Eh       
DFET-embed. en.    :        0.000000000000 Eh       
CPCM Solvation Model Properties:
Surface-charge          :           -0.06063830
Charge-correction       :           -0.00001805 Eh              -0.00049 eV
Free-energy (cav+disp)  :           -0.00961683 Eh              -0.26169 eV

---------------
SCF CONVERGENCE
---------------

  Last Energy change         ...   -2.8360e-08  Tolerance :   1.0000e-06
  Last Orbital Gradient      ...    1.3593e-05  Tolerance :   5.0000e-05
  Last Orbital Rotation      ...    2.4410e-04

             **** THE GBW FILE WAS UPDATED (optpbed3-b2plyp-test-577.gbw) ****
             **** DENSITY optpbed3-b2plyp-test-577.scfp WAS UPDATED ****
             **** ENERGY FILE WAS UPDATED (optpbed3-b2plyp-test-577.en.tmp) ****
             **** THE GBW FILE WAS UPDATED (optpbed3-b2plyp-test-577.gbw) ****
             **** DENSITY optpbed3-b2plyp-test-577.scfp WAS UPDATED ****
----------------
ORBITAL ENERGIES
----------------

  NO   OCC          E(Eh)            E(eV) 
   0   2.0000     -19.779700      -538.2330 
   1   2.0000     -19.758723      -537.6622 
   2   2.0000     -19.724312      -536.7258 
   3   2.0000     -19.705452      -536.2126 
   4   2.0000     -14.881966      -404.9589 
   5   2.0000     -10.767780      -293.0062 
   6   2.0000     -10.735053      -292.1156 
   7   2.0000     -10.688119      -290.8385 
   8   2.0000     -10.668318      -290.2997 
   9   2.0000     -10.661670      -290.1188 
  10   2.0000     -10.657508      -290.0055 
  11   2.0000     -10.656849      -289.9876 
  12   2.0000     -10.649773      -289.7951 
  13   2.0000     -10.648897      -289.7712 
  14   2.0000     -10.640922      -289.5542 
  15   2.0000     -10.639835      -289.5246 
  16   2.0000     -10.636918      -289.4452 
  17   2.0000     -10.633319      -289.3473 
  18   2.0000     -10.632443      -289.3235 
  19   2.0000     -10.630233      -289.2634 
  20   2.0000     -10.625908      -289.1457 
  21   2.0000     -10.622803      -289.0612 
  22   2.0000     -10.622043      -289.0405 
  23   2.0000     -10.621694      -289.0310 
  24   2.0000     -10.620488      -288.9982 
  25   2.0000     -10.620442      -288.9969 
  26   2.0000     -10.620181      -288.9898 
  27   2.0000     -10.618996      -288.9576 
  28   2.0000     -10.599628      -288.4306 
  29   2.0000      -1.271056       -34.5872 
  30   2.0000      -1.221101       -33.2278 
  31   2.0000      -1.200079       -32.6558 
  32   2.0000      -1.177363       -32.0377 
  33   2.0000      -1.110002       -30.2047 
  34   2.0000      -1.026912       -27.9437 
  35   2.0000      -0.998577       -27.1727 
  36   2.0000      -0.966912       -26.3110 
  37   2.0000      -0.942086       -25.6355 
  38   2.0000      -0.911838       -24.8124 
  39   2.0000      -0.894664       -24.3451 
  40   2.0000      -0.888637       -24.1811 
  41   2.0000      -0.872861       -23.7518 
  42   2.0000      -0.852768       -23.2050 
  43   2.0000      -0.829306       -22.5666 
  44   2.0000      -0.824032       -22.4230 
  45   2.0000      -0.803488       -21.8640 
  46   2.0000      -0.776868       -21.1396 
  47   2.0000      -0.748607       -20.3706 
  48   2.0000      -0.736774       -20.0487 
  49   2.0000      -0.718950       -19.5636 
  50   2.0000      -0.700084       -19.0503 
  51   2.0000      -0.694778       -18.9059 
  52   2.0000      -0.665726       -18.1153 
  53   2.0000      -0.662208       -18.0196 
  54   2.0000      -0.641557       -17.4577 
  55   2.0000      -0.624716       -16.9994 
  56   2.0000      -0.616342       -16.7715 
  57   2.0000      -0.600923       -16.3519 
  58   2.0000      -0.581706       -15.8290 
  59   2.0000      -0.579899       -15.7798 
  60   2.0000      -0.576061       -15.6754 
  61   2.0000      -0.569640       -15.5007 
  62   2.0000      -0.553677       -15.0663 
  63   2.0000      -0.550891       -14.9905 
  64   2.0000      -0.545249       -14.8370 
  65   2.0000      -0.540956       -14.7202 
  66   2.0000      -0.537019       -14.6130 
  67   2.0000      -0.524581       -14.2746 
  68   2.0000      -0.520018       -14.1504 
  69   2.0000      -0.515414       -14.0251 
  70   2.0000      -0.506810       -13.7910 
  71   2.0000      -0.497712       -13.5434 
  72   2.0000      -0.491388       -13.3713 
  73   2.0000      -0.485740       -13.2177 
  74   2.0000      -0.483635       -13.1604 
  75   2.0000      -0.474594       -12.9144 
  76   2.0000      -0.470640       -12.8068 
  77   2.0000      -0.469676       -12.7805 
  78   2.0000      -0.465831       -12.6759 
  79   2.0000      -0.452472       -12.3124 
  80   2.0000      -0.449919       -12.2429 
  81   2.0000      -0.447281       -12.1711 
  82   2.0000      -0.443766       -12.0755 
  83   2.0000      -0.439362       -11.9557 
  84   2.0000      -0.433159       -11.7869 
  85   2.0000      -0.414168       -11.2701 
  86   2.0000      -0.413594       -11.2545 
  87   2.0000      -0.405462       -11.0332 
  88   2.0000      -0.403545       -10.9810 
  89   2.0000      -0.402725       -10.9587 
  90   2.0000      -0.385064       -10.4781 
  91   2.0000      -0.376389       -10.2421 
  92   2.0000      -0.367230        -9.9928 
  93   2.0000      -0.353349        -9.6151 
  94   2.0000      -0.348929        -9.4948 
  95   2.0000      -0.340973        -9.2784 
  96   2.0000      -0.336984        -9.1698 
  97   2.0000      -0.303430        -8.2568 
  98   2.0000      -0.283828        -7.7233 
  99   2.0000      -0.238869        -6.5000 
 100   2.0000      -0.235408        -6.4058 
 101   0.0000      -0.037821        -1.0292 
 102   0.0000      -0.005135        -0.1397 
 103   0.0000      -0.000000        -0.0000 
 104   0.0000       0.019752         0.5375 
 105   0.0000       0.023225         0.6320 
 106   0.0000       0.025563         0.6956 
 107   0.0000       0.031198         0.8489 
 108   0.0000       0.033673         0.9163 
 109   0.0000       0.035915         0.9773 
 110   0.0000       0.037883         1.0309 
 111   0.0000       0.039314         1.0698 
 112   0.0000       0.046944         1.2774 
 113   0.0000       0.049192         1.3386 
 114   0.0000       0.051166         1.3923 
 115   0.0000       0.052686         1.4337 
 116   0.0000       0.055740         1.5168 
 117   0.0000       0.060447         1.6449 
 118   0.0000       0.062092         1.6896 
 119   0.0000       0.064913         1.7664 
 120   0.0000       0.066006         1.7961 
 121   0.0000       0.068456         1.8628 
 122   0.0000       0.069102         1.8804 
 123   0.0000       0.071775         1.9531 
 124   0.0000       0.075949         2.0667 
 125   0.0000       0.077274         2.1027 
 126   0.0000       0.079833         2.1724 
 127   0.0000       0.083148         2.2626 
 128   0.0000       0.087177         2.3722 
 129   0.0000       0.089008         2.4220 
 130   0.0000       0.090964         2.4753 
 131   0.0000       0.092893         2.5278 
 132   0.0000       0.096151         2.6164 
 133   0.0000       0.098182         2.6717 
 134   0.0000       0.102878         2.7994 
 135   0.0000       0.105155         2.8614 
 136   0.0000       0.107445         2.9237 
 137   0.0000       0.110671         3.0115 
 138   0.0000       0.112922         3.0728 
 139   0.0000       0.115725         3.1490 
 140   0.0000       0.119210         3.2439 
 141   0.0000       0.125720         3.4210 
 142   0.0000       0.125852         3.4246 
 143   0.0000       0.128259         3.4901 
 144   0.0000       0.129431         3.5220 
 145   0.0000       0.132251         3.5987 
 146   0.0000       0.133958         3.6452 
 147   0.0000       0.136208         3.7064 
 148   0.0000       0.140281         3.8172 
 149   0.0000       0.142634         3.8813 
 150   0.0000       0.144234         3.9248 
 151   0.0000       0.146244         3.9795 
[...]
   Time for building 10 sigma-vectors
   Data Preparation Phase         ...     0.02 sec
   Transformed RI Coulomb         ...     2.37 sec
   Transformed RI-exchange        ...  1921.99 sec
   (ab|v) reading and digestion   ...  1843.00 sec
   Final sigma-completion         ...     0.01 sec
   Done building sigma-vectors             Size of expansion space: 40
   Lowest Energy          :     0.127277891891
   Maximum Energy change  :     0.002147030687 (vector 7)
   Maximum residual norm  :     0.002389049136

                       ****Iteration    8****
              <<< Entering MO-section for Build Sigma(Double) >>>
   Forming the XC and CPCM contribution:
   Time for densities:            0.547
   Time for XC-Integration:      44.857
   Time for LR-CPCM terms:       28.600
   Time for Sigma-Completion:     0.388
   Time for building 10 sigma-vectors
   Data Preparation Phase         ...     0.02 sec
   Transformed RI Coulomb         ...     2.32 sec
   Transformed RI-exchange        ...  1956.45 sec
   (ab|v) reading and digestion   ...  1875.93 sec
   Final sigma-completion         ...     0.01 sec
   Done building sigma-vectors             Size of expansion space: 50
   Lowest Energy          :     0.127277891411
   Maximum Energy change  :     0.002986269344 (vector 7)
   Maximum residual norm  :     0.000219764094

                       ****Iteration    9****
              <<< Entering MO-section for Build Sigma(Double) >>>
   Forming the XC and CPCM contribution:
   Time for densities:            0.552
   Time for XC-Integration:      46.023
   Time for LR-CPCM terms:       28.673
   Time for Sigma-Completion:     0.398
   Time for building 10 sigma-vectors
   Data Preparation Phase         ...     0.02 sec
   Transformed RI Coulomb         ...     2.33 sec
   Transformed RI-exchange        ...  1946.86 sec
   (ab|v) reading and digestion   ...  1867.06 sec
   Final sigma-completion         ...     0.01 sec
   Done building sigma-vectors             Size of expansion space: 60
   Lowest Energy          :     0.127277891341
   Maximum Energy change  :     0.000573061614 (vector 6)
   Maximum residual norm  :     0.000064859755

                       ****Iteration   10****
              <<< Entering MO-section for Build Sigma(Double) >>>
   Forming the XC and CPCM contribution:
   Time for densities:            0.552
   Time for XC-Integration:      45.745
   Time for LR-CPCM terms:       28.697
   Time for Sigma-Completion:     0.393
   Time for building 10 sigma-vectors
   Data Preparation Phase         ...     0.02 sec
   Transformed RI Coulomb         ...     2.35 sec
   Transformed RI-exchange        ...  1941.80 sec
   (ab|v) reading and digestion   ...  1862.13 sec
   Final sigma-completion         ...     0.01 sec
   Done building sigma-vectors             Size of expansion space: 70
   Lowest Energy          :     0.127277891334
   Maximum Energy change  :     0.000101183271 (vector 6)
   Maximum residual norm  :     0.000011890343
   Rebuilding the expansion space

                       ****Iteration   11****
              <<< Entering MO-section for Build Sigma(Double) >>>
   Forming the XC and CPCM contribution:
   Time for densities:            1.054
   Time for XC-Integration:      80.880
   Time for LR-CPCM terms:       46.172
   Time for Sigma-Completion:     0.801
   Time for building 20 sigma-vectors
   Data Preparation Phase         ...     0.03 sec
   Transformed RI Coulomb         ...     3.92 sec
   Transformed RI-exchange        ...  3879.82 sec
   (ab|v) reading and digestion   ...  3720.94 sec
   Final sigma-completion         ...     0.03 sec
   Done building sigma-vectors             Size of expansion space: 20
   Lowest Energy          :     0.127277891299
   Maximum Energy change  :     0.000017586256 (vector 6)
   Maximum residual norm  :     0.000002542013

                       ****Iteration   12****
              <<< Entering MO-section for Build Sigma(Double) >>>
   Forming the XC and CPCM contribution:
   Time for densities:            0.542
   Time for XC-Integration:      48.412
   Time for LR-CPCM terms:       29.165
   Time for Sigma-Completion:     0.387
   Time for building 10 sigma-vectors
   Data Preparation Phase         ...     0.02 sec
   Transformed RI Coulomb         ...     2.40 sec
   Transformed RI-exchange        ...  1939.01 sec
   (ab|v) reading and digestion   ...  1859.35 sec
   Final sigma-completion         ...     0.01 sec
   Done building sigma-vectors             Size of expansion space: 30
   Lowest Energy          :     0.127277891283
   Maximum Energy change  :     0.000005408848 (vector 6)
   Maximum residual norm  :     0.000000591955

      *** CONVERGENCE OF RESIDUAL NORM REACHED ***

Storing the converged CI vectors               ... optpbed3-b2plyp-test-577.cis1

                 *** DAVIDSON DONE ***

Total time for solving the CIS problem: 29340.141sec

------------------
DOUBLES CORRECTION (Double precision version)
------------------

The (D) correction will be scaled by  0.2700
Doing v(i,a)*T(i,a) terms (RI)                    ... ok
Doing u(i,j,a,b) terms for state   0              ... ok
Doing u(i,j,a,b) terms for state   1              ... ok
Doing u(i,j,a,b) terms for state   2              ... ok
Doing u(i,j,a,b) terms for state   3              ... ok
Doing u(i,j,a,b) terms for state   4              ... ok
Doing u(i,j,a,b) terms for state   5              ... ok
Doing u(i,j,a,b) terms for state   6              ... ok
Doing u(i,j,a,b) terms for state   7              ... ok
Doing u(i,j,a,b) terms for state   8              ... ok
Doing u(i,j,a,b) terms for state   9              ... ok

Contributions to the (D) correction(s) (in eV)

STATE  Final   Init.   Total   v(ext)   v(int)  v(3)    u
       omega   omega     (D)                             
-----------------------------------------------------------------------------
   0   2.832   3.463  -0.631   0.699   1.043  -0.038  -2.335
   1   3.157   3.611  -0.453   0.689   1.036  -0.054  -2.124
   2   3.709   4.129  -0.420   0.657   1.030  -0.043  -2.064
   3   3.866   4.482  -0.615   0.633   1.012  -0.053  -2.208
   4   4.377   4.869  -0.491   0.635   1.020  -0.076  -2.070
   5   4.788   5.106  -0.319   0.048   1.031  -0.002  -1.396
   6   4.266   5.123  -0.857   0.712   0.831  -0.025  -2.376
   7   4.534   5.164  -0.630   0.637   0.996  -0.052  -2.211
   8   5.178   5.305  -0.127   0.038   1.038  -0.002  -1.202
   9   4.802   5.353  -0.550   0.542   1.040  -0.046  -2.086

(D)-timings
 V(i,a)*T(i,a) terms           ...  3591.377 sec
 U(i,j,a,b) 3-internal         ...    66.706 sec
 U(i,j,a,b) 3-external         ...  1453.640 sec
 U(i,j,a,b) pair terms         ...  1755.069 sec
 Total measured time           ... 16496.262 sec

 Time for (ab|v) I/O           ...   283.693 sec


------------------------------------
TD-DFT/TDA EXCITED STATES (SINGLETS)
------------------------------------

the weight of the individual excitations are printed if larger than 1.0e-02

STATE  1:  E=   0.104090 au      2.832 eV    22845.1 cm**-1 <S**2> =   0.000000
    99a -> 101a  :     0.029394 (c=  0.17144657)
    99a -> 102a  :     0.029109 (c=  0.17061359)
   100a -> 101a  :     0.894955 (c=  0.94602081)
   100a -> 107a  :     0.014701 (c=  0.12124618)

STATE  2:  E=   0.116033 au      3.157 eV    25466.4 cm**-1 <S**2> =   0.000000
    98a -> 102a  :     0.025136 (c=  0.15854264)
    99a -> 101a  :     0.863313 (c= -0.92914659)
   100a -> 101a  :     0.026411 (c=  0.16251382)
   100a -> 102a  :     0.043767 (c=  0.20920597)

STATE  3:  E=   0.136297 au      3.709 eV    29913.8 cm**-1 <S**2> =   0.000000
    98a -> 101a  :     0.354423 (c= -0.59533465)
    99a -> 101a  :     0.033847 (c=  0.18397559)
    99a -> 102a  :     0.200706 (c= -0.44800181)
   100a -> 102a  :     0.351115 (c=  0.59254984)

STATE  4:  E=   0.142082 au      3.866 eV    31183.4 cm**-1 <S**2> =   0.000000
    98a -> 102a  :     0.012317 (c=  0.11098228)
    99a -> 102a  :     0.509965 (c= -0.71411801)
    99a -> 107a  :     0.022681 (c=  0.15060199)
   100a -> 101a  :     0.022427 (c=  0.14975735)
   100a -> 102a  :     0.320373 (c= -0.56601537)
   100a -> 118a  :     0.011354 (c=  0.10655328)

STATE  5:  E=   0.160864 au      4.377 eV    35305.5 cm**-1 <S**2> =   0.000000
    97a -> 101a  :     0.073767 (c=  0.27160089)
    98a -> 101a  :     0.380003 (c= -0.61644370)
    98a -> 102a  :     0.016198 (c=  0.12727165)
    99a -> 102a  :     0.197176 (c=  0.44404533)
    99a -> 107a  :     0.124373 (c=  0.35266531)
    99a -> 108a  :     0.016674 (c=  0.12912902)
   100a -> 102a  :     0.110014 (c= -0.33168308)

STATE  6:  E=   0.175953 au      4.788 eV    38617.1 cm**-1 <S**2> =   0.000000
    95a -> 101a  :     0.012189 (c= -0.11040401)
    99a -> 104a  :     0.091562 (c=  0.30259149)
    99a -> 105a  :     0.010753 (c= -0.10369497)
    99a -> 110a  :     0.010355 (c=  0.10175941)
   100a -> 104a  :     0.593838 (c=  0.77060855)
   100a -> 105a  :     0.054499 (c= -0.23345121)
   100a -> 109a  :     0.015546 (c=  0.12468408)
   100a -> 110a  :     0.081770 (c=  0.28595386)
   100a -> 111a  :     0.014970 (c=  0.12235045)
   100a -> 116a  :     0.028162 (c=  0.16781446)

STATE  7:  E=   0.156755 au      4.266 eV    34403.8 cm**-1 <S**2> =   0.000000
    93a -> 101a  :     0.029063 (c= -0.17047778)
    95a -> 101a  :     0.651891 (c= -0.80739745)
    95a -> 102a  :     0.094515 (c= -0.30743222)
    95a -> 107a  :     0.017417 (c= -0.13197378)
    95a -> 118a  :     0.021231 (c=  0.14570799)
    95a -> 130a  :     0.018057 (c=  0.13437808)
    97a -> 101a  :     0.012985 (c= -0.11395028)
   100a -> 104a  :     0.010603 (c= -0.10297249)

STATE  8:  E=   0.166619 au      4.534 eV    36568.7 cm**-1 <S**2> =   0.000000
    94a -> 101a  :     0.013986 (c=  0.11826252)
    95a -> 101a  :     0.021521 (c= -0.14669902)
    97a -> 101a  :     0.193981 (c=  0.44043271)
    97a -> 107a  :     0.010110 (c= -0.10054887)
    98a -> 101a  :     0.155185 (c=  0.39393481)
    98a -> 102a  :     0.156994 (c=  0.39622525)
    98a -> 107a  :     0.013268 (c=  0.11518623)
    99a -> 107a  :     0.173814 (c=  0.41690992)
    99a -> 108a  :     0.021245 (c=  0.14575817)
   100a -> 102a  :     0.103665 (c=  0.32196994)
   100a -> 107a  :     0.010737 (c=  0.10361965)
   100a -> 118a  :     0.017815 (c=  0.13347318)

STATE  9:  E=   0.190280 au      5.178 eV    41761.5 cm**-1 <S**2> =   0.000000
    99a -> 104a  :     0.443056 (c=  0.66562442)
    99a -> 105a  :     0.186663 (c=  0.43204545)
    99a -> 109a  :     0.044924 (c=  0.21195267)
    99a -> 110a  :     0.057987 (c=  0.24080482)
    99a -> 111a  :     0.010247 (c=  0.10122646)
    99a -> 116a  :     0.017359 (c= -0.13175355)
   100a -> 104a  :     0.061996 (c= -0.24898926)
   100a -> 105a  :     0.048446 (c= -0.22010347)
   100a -> 106a  :     0.014681 (c= -0.12116500)
   100a -> 109a  :     0.012306 (c= -0.11093211)
   100a -> 110a  :     0.012683 (c= -0.11261899)

STATE 10:  E=   0.176486 au      4.802 eV    38734.1 cm**-1 <S**2> =   0.000000
    97a -> 102a  :     0.063397 (c=  0.25178815)
    98a -> 101a  :     0.012882 (c= -0.11349770)
    98a -> 102a  :     0.013810 (c=  0.11751601)
    99a -> 107a  :     0.089526 (c= -0.29920965)
    99a -> 111a  :     0.011335 (c=  0.10646499)
    99a -> 120a  :     0.015532 (c=  0.12462744)
   100a -> 101a  :     0.016467 (c= -0.12832426)
   100a -> 106a  :     0.024052 (c= -0.15508610)
   100a -> 107a  :     0.535792 (c=  0.73197781)
   100a -> 108a  :     0.062136 (c=  0.24927026)


-----------------------------
TD-DFT/TDA-EXCITATION SPECTRA
-----------------------------

Center of mass = (  0.0475, -0.2422,  0.1622)
Calculating the Dipole integrals                  ... done
Transforming integrals                            ... done
Calculating the Linear Momentum integrals         ... done
Transforming integrals                            ... done
Calculating angular momentum integrals            ... done
Transforming integrals                            ... done

-----------------------------------------------------------------------------
         ABSORPTION SPECTRUM VIA TRANSITION ELECTRIC DIPOLE MOMENTS
-----------------------------------------------------------------------------
State   Energy    Wavelength  fosc         T2        TX        TY        TZ  
        (cm-1)      (nm)                 (au**2)    (au)      (au)      (au) 
-----------------------------------------------------------------------------
   1   22845.1    437.7   0.170103711   2.45130  -0.62645  -1.43459   0.02861
   2   25466.4    392.7   0.110840395   1.43287  -1.11845  -0.41653   0.09189
   3   29913.8    334.3   0.056661938   0.62359   0.62768  -0.47495  -0.06349
   4   31183.4    320.7   0.564488808   5.95947  -2.02902  -1.34820   0.15782
   5   35305.5    283.2   1.353812531  12.62385   0.67023   3.48921  -0.00534
   6   38617.1    259.0   0.000176824   0.00151  -0.01259   0.02231  -0.02917
   7   34403.8    290.7   0.009594078   0.09181  -0.13137   0.27281  -0.01106
   8   36568.7    273.5   0.298136176   2.68399   0.65641  -1.49812  -0.09359
   9   41761.5    239.5   0.002290084   0.01805   0.03867   0.12270  -0.03877
  10   38734.1    258.2   0.219642310   1.86680   0.35163   1.32028   0.00539

-----------------------------------------------------------------------------
         ABSORPTION SPECTRUM VIA TRANSITION VELOCITY DIPOLE MOMENTS
-----------------------------------------------------------------------------
State   Energy    Wavelength   fosc        P2         PX        PY        PZ  
        (cm-1)      (nm)                 (au**2)     (au)      (au)      (au) 
-----------------------------------------------------------------------------
   1   22845.1    437.7   0.021384315   0.00334   0.02751   0.05057  -0.00495
   2   25466.4    392.7   0.019656192   0.00342  -0.00154   0.05833  -0.00409
   3   29913.8    334.3   0.000428514   0.00009   0.00832  -0.00423   0.00074
   4   31183.4    320.7   0.217351811   0.04632   0.15669   0.14695  -0.01328
   5   35305.5    283.2   0.611513100   0.14756  -0.16917  -0.34477   0.00828
   6   38617.1    259.0   0.000273022   0.00007   0.00169  -0.00227   0.00800
   7   34403.8    290.7   0.006394271   0.00150   0.00754  -0.02667  -0.02712
   8   36568.7    273.5   0.094357573   0.02358  -0.04284   0.14708   0.01073
   9   41761.5    239.5   0.001046604   0.00030  -0.00473  -0.01556   0.00586
  10   38734.1    258.2   0.107888342   0.02856  -0.03280  -0.16568  -0.00608

-------------------------------------------------------------------
                             CD SPECTRUM
-------------------------------------------------------------------
State  Energy     Wavelength     R         MX        MY        MZ   
       (cm-1)       (nm)     (1e40*cgs)   (au)      (au)      (au)  
-------------------------------------------------------------------
   1   22845.1    437.7      4.08763   0.01928  -0.01231   0.10789
   2   25466.4    392.7     -2.97637  -0.01078  -0.00347  -0.21563
   3   29913.8    334.3     -0.87518   0.03413  -0.00624   0.41331
   4   31183.4    320.7     -5.69346  -0.00300  -0.01421  -0.23649
   5   35305.5    283.2     17.53305  -0.00000   0.01139   0.47910
   6   38617.1    259.0      0.49090   0.11868   0.09699  -0.01272
   7   34403.8    290.7     41.23002  -0.29003   0.18047  -0.01068
   8   36568.7    273.5    -35.72893  -0.00555   0.04006   0.12949
   9   41761.5    239.5      1.82851   0.02812   0.01394  -0.02788
  10   38734.1    258.2     -9.37378  -0.07313   0.00638  -0.47990

-------------------------------------------------------------------
         CD SPECTRUM VIA TRANSITION VELOCITY DIPOLE MOMENTS        
-------------------------------------------------------------------
State  Energy     Wavelength     R         MX        MY        MZ   
       (cm-1)       (nm)     (1e40*cgs)   (au)      (au)      (au)  
-------------------------------------------------------------------
   1   22845.1    437.7     -2.83811   0.01928  -0.01231   0.10789
   2   25466.4    392.7      2.82527  -0.01078  -0.00347  -0.21563
   3   29913.8    334.3      2.13125   0.03413  -0.00624   0.41331
   4   31183.4    320.7      1.93067  -0.00300  -0.01421  -0.23649
   5   35305.5    283.2      0.11251  -0.00000   0.01139   0.47910
   6   38617.1    259.0     -0.32606   0.11868   0.09699  -0.01272
   7   34403.8    290.7    -20.18394  -0.29003   0.18047  -0.01068
   8   36568.7    273.5     21.27689  -0.00555   0.04006   0.12949
   9   41761.5    239.5     -1.27164   0.02812   0.01394  -0.02788
  10   38734.1    258.2     11.38339  -0.07313   0.00638  -0.47990

Total run time:    45853.781 sec

           *** ORCA-CIS/TD-DFT FINISHED WITHOUT ERROR ***

Maximum memory used throughout the entire CIS-calculation: 3784.2 MB

-----------------------
CIS/TD-DFT TOTAL ENERGY
-----------------------

    E(SCF)  =  -1279.526691248 Eh
    DE(CIS) =      0.104090002 Eh (Root  1)
    ----------------------------- ---------
    E(tot)  =  -1279.422601247 Eh


-------------------------   --------------------
FINAL SINGLE POINT ENERGY     -1279.422601246667
-------------------------   --------------------


                            ***************************************
                            *     ORCA property calculations      *
                            ***************************************


  WARNING: The energy has been calculated at the MP2 level but the densities
           used in the property calculations are still SCF densities
           MP2 response densities have not been calculated 
           use %mp2 Density relaxed end
           or  %mp2 Density unrelaxed end

                                    ---------------------
                                    Active property flags
                                    ---------------------
   (+) Dipole Moment


------------------------------------------------------------------------------
                       ORCA ELECTRIC PROPERTIES CALCULATION
------------------------------------------------------------------------------

Dipole Moment Calculation                       ... on
Quadrupole Moment Calculation                   ... off
Polarizability Calculation                      ... off
GBWName                                         ... optpbed3-b2plyp-test-577.gbw
Electron density                                ... optpbed3-b2plyp-test-577.scfp
The origin for moment calculation is the CENTER OF MASS  = ( 0.047510, -0.242245  0.162192)

-------------
DIPOLE MOMENT
-------------
                                X             Y             Z
Electronic contribution:     -2.15596      -2.54178       3.41039
Nuclear contribution   :     -0.22303       3.76914      -4.22813
                        -----------------------------------------
Total Dipole Moment    :     -2.37899       1.22736      -0.81774
                        -----------------------------------------
Magnitude (a.u.)       :      2.79905
Magnitude (Debye)      :      7.11462



--------------------
Rotational spectrum 
--------------------
 
Rotational constants in cm-1:     0.006384     0.005353     0.002990 
Rotational constants in MHz :   191.375756   160.467532    89.643617 

 Dipole components along the rotational axes: 
x,y,z [a.u.] :     0.343146     2.493116    -1.225277 
x,y,z [Debye]:     0.872209     6.336998    -3.114407 

 

Timings for individual modules:

Sum of individual times         ...    72901.924 sec (=1215.032 min)
GTO integral calculation        ...       12.550 sec (=   0.209 min)   0.0 %
SCF iterations                  ...    20375.688 sec (= 339.595 min)  27.9 %
MP2 module                      ...     6657.123 sec (= 110.952 min)   9.1 %
CIS module                      ...    45856.562 sec (= 764.276 min)  62.9 %
                             ****ORCA TERMINATED NORMALLY****
TOTAL RUN TIME: 0 days 20 hours 15 minutes 19 seconds 258 msec
