
                                 *****************
                                 * O   R   C   A *
                                 *****************

                                            #,                                       
                                            ###                                      
                                            ####                                     
                                            #####                                    
                                            ######                                   
                                           ########,                                 
                                     ,,################,,,,,                         
                               ,,#################################,,                 
                          ,,##########################################,,             
                       ,#########################################, ''#####,          
                    ,#############################################,,   '####,        
                  ,##################################################,,,,####,       
                ,###########''''           ''''###############################       
              ,#####''   ,,,,##########,,,,          '''####'''          '####       
            ,##' ,,,,###########################,,,                        '##       
           ' ,,###''''                  '''############,,,                           
         ,,##''                                '''############,,,,        ,,,,,,###''
      ,#''                                            '''#######################'''  
     '                                                          ''''####''''         
             ,#######,   #######,   ,#######,      ##                                
            ,#'     '#,  ##    ##  ,#'     '#,    #''#        ######   ,####,        
            ##       ##  ##   ,#'  ##            #'  '#       #        #'  '#        
            ##       ##  #######   ##           ,######,      #####,   #    #        
            '#,     ,#'  ##    ##  '#,     ,#' ,#      #,         ##   #,  ,#        
             '#######'   ##     ##  '#######'  #'      '#     #####' # '####'        



                  #######################################################
                  #                        -***-                        #
                  #          Department of theory and spectroscopy      #
                  #    Directorship and core code : Frank Neese         #
                  #        Max Planck Institute fuer Kohlenforschung    #
                  #                Kaiser Wilhelm Platz 1               #
                  #                 D-45470 Muelheim/Ruhr               #
                  #                      Germany                        #
                  #                                                     #
                  #                  All rights reserved                #
                  #                        -***-                        #
                  #######################################################


                         Program Version 5.0.2 -  RELEASE  -


 With contributions from (in alphabetic order):
   Daniel Aravena         : Magnetic Suceptibility
   Michael Atanasov       : Ab Initio Ligand Field Theory (pilot matlab implementation)
   Alexander A. Auer      : GIAO ZORA, VPT2 properties, NMR spectrum
   Ute Becker             : Parallelization
   Giovanni Bistoni       : ED, misc. LED, open-shell LED, HFLD
   Martin Brehm           : Molecular dynamics
   Dmytro Bykov           : SCF Hessian
   Vijay G. Chilkuri      : MRCI spin determinant printing, contributions to CSF-ICE
   Dipayan Datta          : RHF DLPNO-CCSD density
   Achintya Kumar Dutta   : EOM-CC, STEOM-CC
   Dmitry Ganyushin       : Spin-Orbit,Spin-Spin,Magnetic field MRCI
   Miquel Garcia          : C-PCM and meta-GGA Hessian, CC/C-PCM, Gaussian charge scheme
   Yang Guo               : DLPNO-NEVPT2, F12-NEVPT2, CIM, IAO-localization
   Andreas Hansen         : Spin unrestricted coupled pair/coupled cluster methods
   Benjamin Helmich-Paris : MC-RPA, TRAH-SCF, COSX integrals
   Lee Huntington         : MR-EOM, pCC
   Robert Izsak           : Overlap fitted RIJCOSX, COSX-SCS-MP3, EOM
   Marcus Kettner         : VPT2
   Christian Kollmar      : KDIIS, OOCD, Brueckner-CCSD(T), CCSD density, CASPT2, CASPT2-K
   Simone Kossmann        : Meta GGA functionals, TD-DFT gradient, OOMP2, MP2 Hessian
   Martin Krupicka        : Initial AUTO-CI
   Lucas Lang             : DCDCAS
   Marvin Lechner         : AUTO-CI (C++ implementation), FIC-MRCC
   Dagmar Lenk            : GEPOL surface, SMD
   Dimitrios Liakos       : Extrapolation schemes; Compound Job, initial MDCI parallelization
   Dimitrios Manganas     : Further ROCIS development; embedding schemes
   Dimitrios Pantazis     : SARC Basis sets
   Anastasios Papadopoulos: AUTO-CI, single reference methods and gradients
   Taras Petrenko         : DFT Hessian,TD-DFT gradient, ASA, ECA, R-Raman, ABS, FL, XAS/XES, NRVS
   Peter Pinski           : DLPNO-MP2, DLPNO-MP2 Gradient
   Christoph Reimann      : Effective Core Potentials
   Marius Retegan         : Local ZFS, SOC
   Christoph Riplinger    : Optimizer, TS searches, QM/MM, DLPNO-CCSD(T), (RO)-DLPNO pert. Triples
   Tobias Risthaus        : Range-separated hybrids, TD-DFT gradient, RPA, STAB
   Michael Roemelt        : Original ROCIS implementation
   Masaaki Saitow         : Open-shell DLPNO-CCSD energy and density
   Barbara Sandhoefer     : DKH picture change effects
   Avijit Sen             : IP-ROCIS
   Kantharuban Sivalingam : CASSCF convergence, NEVPT2, FIC-MRCI
   Bernardo de Souza      : ESD, SOC TD-DFT
   Georgi Stoychev        : AutoAux, RI-MP2 NMR, DLPNO-MP2 response
   Willem Van den Heuvel  : Paramagnetic NMR
   Boris Wezisla          : Elementary symmetry handling
   Frank Wennmohs         : Technical directorship


 We gratefully acknowledge several colleagues who have allowed us to
 interface, adapt or use parts of their codes:
   Stefan Grimme, W. Hujo, H. Kruse, P. Pracht,  : VdW corrections, initial TS optimization,
                  C. Bannwarth, S. Ehlert          DFT functionals, gCP, sTDA/sTD-DF
   Ed Valeev, F. Pavosevic, A. Kumar             : LibInt (2-el integral package), F12 methods
   Garnet Chan, S. Sharma, J. Yang, R. Olivares  : DMRG
   Ulf Ekstrom                                   : XCFun DFT Library
   Mihaly Kallay                                 : mrcc  (arbitrary order and MRCC methods)
   Jiri Pittner, Ondrej Demel                    : Mk-CCSD
   Frank Weinhold                                : gennbo (NPA and NBO analysis)
   Christopher J. Cramer and Donald G. Truhlar   : smd solvation model
   Lars Goerigk                                  : TD-DFT with DH, B97 family of functionals
   V. Asgeirsson, H. Jonsson                     : NEB implementation
   FAccTs GmbH                                   : IRC, NEB, NEB-TS, DLPNO-Multilevel, CI-OPT
                                                   MM, QMMM, 2- and 3-layer-ONIOM, Crystal-QMMM,
                                                   LR-CPCM, SF, NACMEs, symmetry and pop. for TD-DFT,
                                                   nearIR, NL-DFT gradient (VV10), updates on ESD,
                                                   ML-optimized integration grids
   S Lehtola, MJT Oliveira, MAL Marques          : LibXC Library
   Liviu Ungur et al                             : ANISO software


 Your calculation uses the libint2 library for the computation of 2-el integrals
 For citations please refer to: http://libint.valeyev.net

 Your ORCA version has been built with support for libXC version: 5.1.0
 For citations please refer to: https://tddft.org/programs/libxc/

 This ORCA versions uses:
   CBLAS   interface :  Fast vector & matrix operations
   LAPACKE interface :  Fast linear algebra routines
   SCALAPACK package :  Parallel linear algebra routines
   Shared memory     :  Shared parallel matrices
   BLAS/LAPACK       :  OpenBLAS 0.3.15  USE64BITINT DYNAMIC_ARCH NO_AFFINITY Sandybridge SINGLE_THREADED
        Core in use  :  Sandybridge
   Copyright (c) 2011-2014, The OpenBLAS Project


Your calculation utilizes the atom-pairwise dispersion correction
with the Becke-Johnson damping scheme (D3BJ)
Cite in your paper:
S.Grimme, S.Ehrlich, L.Goerigk, J Comput Chem, (2011), 32, 1456–1465 
S.Grimme, J.Antony, S.Ehrlich and H.Krieg, J.Chem.Phys., 132, (2010), 154104 
   

Your calculation utilizes the SMD solvation module
Please cite in your paper:
A.V. Marenich, C.J. Cramer, D.G. Truhlar J. Phys. Chem. B, 113, (2009), 6378 

================================================================================

----- Orbital basis set information -----
Your calculation utilizes the basis: aug-cc-pVTZ 
    H, B-Ne : Obtained from the ccRepo (grant-hill.group.shef.ac.uk/ccrepo) Feb. 2017
              R. A. Kendall, T. H. Dunning, Jr., R. J. Harrison, J. Chem. Phys. 96, 6796 (1992)
         He : Obtained from the ccRepo (grant-hill.group.shef.ac.uk/ccrepo) Feb. 2017
              D. E. Woon, T. H. Dunning, Jr., J. Chem. Phys. 100, 2975 (1994)
  Li-Be, Na : Obtained from the ccRepo (grant-hill.group.shef.ac.uk/ccrepo) Feb. 2017
              B. P. Prascher, D. E. Woon, K. A. Peterson, T. H. Dunning, Jr., A. K. Wilson, Theor. Chem. Acc. 128, 69 (2011)
         Mg : Obtained from the Peterson Research Group Website (tyr0.chem.wsu.edu/~kipeters) Feb. 2017
              B. P. Prascher, D. E. Woon, K. A. Peterson, T. H. Dunning, Jr., A. K. Wilson, Theor. Chem. Acc. 128, 69 (2011)
      Al-Ar : Obtained from the ccRepo (grant-hill.group.shef.ac.uk/ccrepo) Feb. 2017
              D. E. Woon, T. H. Dunning, Jr., J. Chem. Phys. 98, 1358 (1993)
      Sc-Zn : Obtained from the ccRepo (grant-hill.group.shef.ac.uk/ccrepo) Feb. 2017
              N. B. Balabanov, K. A. Peterson, J. Chem. Phys. 123, 064107 (2005)
              N. B. Balabanov, K. A. Peterson, J. Chem. Phys. 125, 074110 (2006)
      Ga-Kr : Obtained from the ccRepo (grant-hill.group.shef.ac.uk/ccrepo) Feb. 2017
              A. K. Wilson, D. E. Woon, K. A. Peterson, T. H. Dunning, Jr., J. Chem. Phys. 110, 7667 (1999)
     Ag, Au : Obtained from the Peterson Research Group Website (tyr0.chem.wsu.edu/~kipeters) Feb. 2017
              K. A. Peterson, C. Puzzarini, Theor. Chem. Acc. 114, 283 (2005)

The basis set includes element-specific modifications.

Your calculation utilizes the basis: cc-pVTZ 
       H, B-Ne : Obtained from the ccRepo (grant-hill.group.shef.ac.uk/ccrepo) Feb. 2017
                 T. H. Dunning, Jr., J. Chem. Phys. 90, 1007 (1989)
            He : Obtained from the ccRepo (grant-hill.group.shef.ac.uk/ccrepo) Feb. 2017
                 D. E. Woon, T. H. Dunning, Jr., J. Chem. Phys. 100, 2975 (1994)
  Li-Be, Na-Mg : Obtained from the ccRepo (grant-hill.group.shef.ac.uk/ccrepo) Feb. 2017
                 B. P. Prascher, D. E. Woon, K. A. Peterson, T. H. Dunning, Jr., A. K. Wilson, Theor. Chem. Acc. 128, 69 (2011)
         Al-Ar : Obtained from the ccRepo (grant-hill.group.shef.ac.uk/ccrepo) Feb. 2017
                 D. E. Woon, T. H. Dunning, Jr., J. Chem. Phys. 98, 1358 (1993)
            Ca : Obtained from the Peterson Research Group Website (tyr0.chem.wsu.edu/~kipeters) Feb. 2017
                 J. Koput, K. A. Peterson, J. Phys. Chem. 106, 9595 (2002)
         Sc-Zn : Obtained from the ccRepo (grant-hill.group.shef.ac.uk/ccrepo) Feb. 2017
                 N. B. Balabanov, K. A. Peterson, J. Chem. Phys. 123, 064107 (2005)
                 N. B. Balabanov, K. A. Peterson, J. Chem. Phys. 125, 074110 (2006)
         Ga-Kr : Obtained from the ccRepo (grant-hill.group.shef.ac.uk/ccrepo) Feb. 2017
                 A. K. Wilson, D. E. Woon, K. A. Peterson, T. H. Dunning, Jr., J. Chem. Phys. 110, 7667 (1999)
             Y : Obtained from the ccRepo (grant-hill.group.shef.ac.uk/ccrepo) Feb. 2017
                 K. A. Peterson, D. Figgen, M. Dolg, H. Stoll, J. Chem. Phys. 126, 124101 (2007)
        Ag, Au : Obtained from the Peterson Research Group Website (tyr0.chem.wsu.edu/~kipeters) Feb. 2017
                 K. A. Peterson, C. Puzzarini, Theor. Chem. Acc. 114, 283 (2005)

----- AuxJ basis set information -----
Your calculation utilizes the auxiliary basis: aug-cc-pVTZ/JK 
  H, B-F, Al-Cl, Ga-Br : Obtained from the TURBOMOLE 7.0 basis set library

The basis set includes element-specific modifications.

Your calculation utilizes the auxiliary basis: cc-pVTZ/JK 
  H, B-F, Al-Cl, Ga-Br : Obtained from the TURBOMOLE 7.0 basis set library

----- AuxC basis set information -----
Your calculation utilizes the auxiliary basis: aug-cc-pVTZ/C 
  H-He, B-F, Al-Ar, Ga-Kr : Obtained from the EMSL Basis Set Exchange (bse.pnl.gov) Feb. 2017
                            F. Weigend, A. Kohn, C. Hattig, J. Chem. Phys. 116, 3175 (2002)
                   Be, Mg : Obtained from the TURBOMOLE 7.0 basis set library
                            C. Haettig, Phys. Chem. Chem. Phys. 7, 59 (2005)
                       Ne : Obtained from the EMSL Basis Set Exchange (bse.pnl.gov) Feb. 2017
                            C. Haettig, Phys. Chem. Chem. Phys. 7, 59 (2005)
                            F. Weigend, A. Kohn, C. Hattig, J. Chem. Phys. 116, 3175 (2002)
                    Sc-Zn : Obtained from the EMSL Basis Set Exchange (bse.pnl.gov) Feb. 2017
                            J. G. Hill, J. A. Platts, J. Chem. Phys. 128, 044104 (2008)

The basis set includes element-specific modifications.

Your calculation utilizes the auxiliary basis: cc-pVTZ/C 
  Obtained from the EMSL Basis Set Exchange (bse.pnl.gov) Feb. 2017
  H-He, B-F, Al-Ar, Ga-Kr : F. Weigend, A. Kohn, C. Hattig, J. Chem. Phys. 116, 3175 (2002)
             Li-Be, Na-Mg : C. Haettig, Phys. Chem. Chem. Phys. 7, 59 (2005)
                       Ne : C. Haettig, Phys. Chem. Chem. Phys. 7, 59 (2005)
                            F. Weigend, A. Kohn, C. Hattig, J. Chem. Phys. 116, 3175 (2002)
                    Sc-Zn : J. G. Hill, J. A. Platts, J. Chem. Phys. 128, 044104 (2008)

================================================================================
                                        WARNINGS
                       Please study these warnings very carefully!
================================================================================


WARNING: Geometry Optimization
  ===> : Switching off AutoStart
         For restart on a previous wavefunction, please use MOREAD

INFO   : the flag for use of the SHARK integral package has been found!



***************************************
The coordinates will be read from file: 
***************************************


Your calculation utilizes the atom-pairwise dispersion correction
with the Becke-Johnson damping scheme (D3BJ)
Cite in your paper:
S.Grimme, S.Ehrlich, L.Goerigk, J Comput Chem, (2011), 32, 1456–1465 
S.Grimme, J.Antony, S.Ehrlich and H.Krieg, J.Chem.Phys., 132, (2010), 154104 
   

Your calculation utilizes the SMD solvation module
Please cite in your paper:
A.V. Marenich, C.J. Cramer, D.G. Truhlar J. Phys. Chem. B, 113, (2009), 6378 

================================================================================

----- Orbital basis set information -----
Your calculation utilizes the basis: aug-cc-pVTZ 
    H, B-Ne : Obtained from the ccRepo (grant-hill.group.shef.ac.uk/ccrepo) Feb. 2017
              R. A. Kendall, T. H. Dunning, Jr., R. J. Harrison, J. Chem. Phys. 96, 6796 (1992)
         He : Obtained from the ccRepo (grant-hill.group.shef.ac.uk/ccrepo) Feb. 2017
              D. E. Woon, T. H. Dunning, Jr., J. Chem. Phys. 100, 2975 (1994)
  Li-Be, Na : Obtained from the ccRepo (grant-hill.group.shef.ac.uk/ccrepo) Feb. 2017
              B. P. Prascher, D. E. Woon, K. A. Peterson, T. H. Dunning, Jr., A. K. Wilson, Theor. Chem. Acc. 128, 69 (2011)
         Mg : Obtained from the Peterson Research Group Website (tyr0.chem.wsu.edu/~kipeters) Feb. 2017
              B. P. Prascher, D. E. Woon, K. A. Peterson, T. H. Dunning, Jr., A. K. Wilson, Theor. Chem. Acc. 128, 69 (2011)
      Al-Ar : Obtained from the ccRepo (grant-hill.group.shef.ac.uk/ccrepo) Feb. 2017
              D. E. Woon, T. H. Dunning, Jr., J. Chem. Phys. 98, 1358 (1993)
      Sc-Zn : Obtained from the ccRepo (grant-hill.group.shef.ac.uk/ccrepo) Feb. 2017
              N. B. Balabanov, K. A. Peterson, J. Chem. Phys. 123, 064107 (2005)
              N. B. Balabanov, K. A. Peterson, J. Chem. Phys. 125, 074110 (2006)
      Ga-Kr : Obtained from the ccRepo (grant-hill.group.shef.ac.uk/ccrepo) Feb. 2017
              A. K. Wilson, D. E. Woon, K. A. Peterson, T. H. Dunning, Jr., J. Chem. Phys. 110, 7667 (1999)
     Ag, Au : Obtained from the Peterson Research Group Website (tyr0.chem.wsu.edu/~kipeters) Feb. 2017
              K. A. Peterson, C. Puzzarini, Theor. Chem. Acc. 114, 283 (2005)

The basis set includes element-specific modifications.

Your calculation utilizes the basis: cc-pVTZ 
       H, B-Ne : Obtained from the ccRepo (grant-hill.group.shef.ac.uk/ccrepo) Feb. 2017
                 T. H. Dunning, Jr., J. Chem. Phys. 90, 1007 (1989)
            He : Obtained from the ccRepo (grant-hill.group.shef.ac.uk/ccrepo) Feb. 2017
                 D. E. Woon, T. H. Dunning, Jr., J. Chem. Phys. 100, 2975 (1994)
  Li-Be, Na-Mg : Obtained from the ccRepo (grant-hill.group.shef.ac.uk/ccrepo) Feb. 2017
                 B. P. Prascher, D. E. Woon, K. A. Peterson, T. H. Dunning, Jr., A. K. Wilson, Theor. Chem. Acc. 128, 69 (2011)
         Al-Ar : Obtained from the ccRepo (grant-hill.group.shef.ac.uk/ccrepo) Feb. 2017
                 D. E. Woon, T. H. Dunning, Jr., J. Chem. Phys. 98, 1358 (1993)
            Ca : Obtained from the Peterson Research Group Website (tyr0.chem.wsu.edu/~kipeters) Feb. 2017
                 J. Koput, K. A. Peterson, J. Phys. Chem. 106, 9595 (2002)
         Sc-Zn : Obtained from the ccRepo (grant-hill.group.shef.ac.uk/ccrepo) Feb. 2017
                 N. B. Balabanov, K. A. Peterson, J. Chem. Phys. 123, 064107 (2005)
                 N. B. Balabanov, K. A. Peterson, J. Chem. Phys. 125, 074110 (2006)
         Ga-Kr : Obtained from the ccRepo (grant-hill.group.shef.ac.uk/ccrepo) Feb. 2017
                 A. K. Wilson, D. E. Woon, K. A. Peterson, T. H. Dunning, Jr., J. Chem. Phys. 110, 7667 (1999)
             Y : Obtained from the ccRepo (grant-hill.group.shef.ac.uk/ccrepo) Feb. 2017
                 K. A. Peterson, D. Figgen, M. Dolg, H. Stoll, J. Chem. Phys. 126, 124101 (2007)
        Ag, Au : Obtained from the Peterson Research Group Website (tyr0.chem.wsu.edu/~kipeters) Feb. 2017
                 K. A. Peterson, C. Puzzarini, Theor. Chem. Acc. 114, 283 (2005)

----- AuxJ basis set information -----
Your calculation utilizes the auxiliary basis: aug-cc-pVTZ/JK 
  H, B-F, Al-Cl, Ga-Br : Obtained from the TURBOMOLE 7.0 basis set library

The basis set includes element-specific modifications.

Your calculation utilizes the auxiliary basis: cc-pVTZ/JK 
  H, B-F, Al-Cl, Ga-Br : Obtained from the TURBOMOLE 7.0 basis set library

----- AuxC basis set information -----
Your calculation utilizes the auxiliary basis: aug-cc-pVTZ/C 
  H-He, B-F, Al-Ar, Ga-Kr : Obtained from the EMSL Basis Set Exchange (bse.pnl.gov) Feb. 2017
                            F. Weigend, A. Kohn, C. Hattig, J. Chem. Phys. 116, 3175 (2002)
                   Be, Mg : Obtained from the TURBOMOLE 7.0 basis set library
                            C. Haettig, Phys. Chem. Chem. Phys. 7, 59 (2005)
                       Ne : Obtained from the EMSL Basis Set Exchange (bse.pnl.gov) Feb. 2017
                            C. Haettig, Phys. Chem. Chem. Phys. 7, 59 (2005)
                            F. Weigend, A. Kohn, C. Hattig, J. Chem. Phys. 116, 3175 (2002)
                    Sc-Zn : Obtained from the EMSL Basis Set Exchange (bse.pnl.gov) Feb. 2017
                            J. G. Hill, J. A. Platts, J. Chem. Phys. 128, 044104 (2008)

The basis set includes element-specific modifications.

Your calculation utilizes the auxiliary basis: cc-pVTZ/C 
  Obtained from the EMSL Basis Set Exchange (bse.pnl.gov) Feb. 2017
  H-He, B-F, Al-Ar, Ga-Kr : F. Weigend, A. Kohn, C. Hattig, J. Chem. Phys. 116, 3175 (2002)
             Li-Be, Na-Mg : C. Haettig, Phys. Chem. Chem. Phys. 7, 59 (2005)
                       Ne : C. Haettig, Phys. Chem. Chem. Phys. 7, 59 (2005)
                            F. Weigend, A. Kohn, C. Hattig, J. Chem. Phys. 116, 3175 (2002)
                    Sc-Zn : J. G. Hill, J. A. Platts, J. Chem. Phys. 128, 044104 (2008)

================================================================================
                                        WARNINGS
                       Please study these warnings very carefully!
================================================================================

INFO   : Checking CIS options ...
  ===> : (D) CORRECTION FOUND - SETTING MODE=3
  ===> : JK MODE FOUND - ACTIVATING RI-MP2 CODE
  ===> : MP2 AND CIS FOUND - CHECKING
WARNING: CIS(D) and MP2 runs must have the same orbital window
  ===> : adjusting orbital windows

WARNING: No MP2 level density has been requested!
         To caclulate MP2 level properties use
         %mp2 Density relaxed end
         or
         %mp2 Density unrelaxed end
         Otherwise for double-hybrid DFT only the energy is correct!

WARNING: The frozen-core approximation is turned on by default for 
         the MP2 part of double-hybrid DFT.

INFO   : the flag for use of the SHARK integral package has been found!

================================================================================
                                       INPUT FILE
================================================================================
NAME = optpbed3-b2plyp-test-201.inp
|  1> ! pbe0 d3bj aug-cc-PVTZ RIJCOSX Opt
|  2> %maxcore 4000
|  3> %basis
|  4>  AuxJ "aug-cc-PVTZ/JK"
|  5>  AuxC "aug-cc-PVTZ/C"
|  6>  newGTO H "cc-PVTZ" end
|  7>  newAuxJGTO H "cc-PVTZ/JK" end
|  8>  newAuxCGTO H "cc-PVTZ/C" end
|  9> end
| 10> %cpcm
| 11>  SMD true
| 12>  SMDsolvent "1,4-dioxane"
| 13> end
| 14> %pal nprocs 4 end
| 15> * xyz 0 1
| 16> C         -7.80070       -0.05470        0.00390
| 17> C         -7.09840       -0.70620       -0.99620
| 18> C         -5.71610       -0.69970       -0.99290
| 19> C         -5.01200       -0.04560        0.01550
| 20> C         -3.54240       -0.03960        0.02190
| 21> C         -2.82380        0.14440       -1.15750
| 22> C         -1.44380        0.15350       -1.15080
| 23> C         -0.73410       -0.02170        0.03550
| 24> C          0.73430       -0.00760        0.04340
| 25> C          1.43620        0.63270        1.06290
| 26> C          2.81600        0.64890        1.06970
| 27> C          3.54250        0.02610        0.05700
| 28> C          5.01200        0.04650        0.06320
| 29> C          5.72050       -0.14570        1.24710
| 30> C          7.10270       -0.12720        1.25160
| 31> C          7.80030        0.08940        0.07510
| 32> C          7.10640        0.28420       -1.10740
| 33> C          5.72430        0.26010       -1.11480
| 34> C          2.84100       -0.61490       -0.96200
| 35> C          1.46110       -0.63170       -0.96860
| 36> C         -1.45310       -0.20790        1.21460
| 37> C         -2.83300       -0.21640        1.20790
| 38> C         -5.72890        0.60390        1.01800
| 39> C         -7.11120        0.60130        1.00990
| 40> H         -8.88070       -0.05830       -0.00060
| 41> H         -7.63120       -1.22310       -1.78140
| 42> H         -5.17370       -1.22340       -1.76690
| 43> H         -3.35530        0.30590       -2.08440
| 44> H         -0.90600        0.32260       -2.07260
| 45> H          0.89190        1.14290        1.84440
| 46> H          3.34100        1.17120        1.85660
| 47> H          5.18190       -0.33130        2.16520
| 48> H          7.63890       -0.28400        2.17640
| 49> H          8.88030        0.10630        0.07970
| 50> H          7.64550        0.45770       -2.02770
| 51> H          5.18810        0.42920       -2.03750
| 52> H          3.38600       -1.12430       -1.74370
| 53> H          0.93670       -1.15470       -1.75530
| 54> H         -0.92210       -0.37040        2.14160
| 55> H         -3.37140       -0.38500        2.12950
| 56> H         -5.19640        1.13140        1.79630
| 57> H         -7.65380        1.11480        1.79050
| 58> *
| 59> 
| 60> 
| 61> $new_job
| 62> ! b2plyp aug-cc-PVTZ RIJCOSX SP
| 63> %maxcore 4000
| 64> %basis
| 65>  AuxJ "aug-cc-PVTZ/JK"
| 66>  AuxC "aug-cc-PVTZ/C"
| 67>  newGTO H "cc-PVTZ" end
| 68>  newAuxJGTO H "cc-PVTZ/JK" end
| 69>  newAuxCGTO H "cc-PVTZ/C" end
| 70> end
| 71> %cpcm
| 72>  SMD true
| 73>  SMDsolvent "1,4-dioxane"
| 74> end
| 75> %pal nprocs 4 end
| 76> %tddft
| 77>  nroots 10
| 78>  maxdim 7
| 79> end
| 80> * xyzfile 0 1
| 81> 
| 82>                          ****END OF INPUT****
================================================================================


                 $$$$$$$$$$$$$$$$$$$$$$$$$$$$$$$$$$$$$$$$$$$$$$ 
                 $ THERE ARE  2 JOBS TO BE PROCESSED THIS RUN $
                 $$$$$$$$$$$$$$$$$$$$$$$$$$$$$$$$$$$$$$$$$$$$$$ 




                 $$$$$$$$$$$$$$$$  JOB NUMBER  1 $$$$$$$$$$$$$$


                       *****************************
                       * Geometry Optimization Run *
                       *****************************

Geometry optimization settings:
Update method            Update   .... BFGS
Choice of coordinates    CoordSys .... Z-matrix Internals
Initial Hessian          InHess   .... Almoef's Model

Convergence Tolerances:
Energy Change            TolE     ....  5.0000e-06 Eh
Max. Gradient            TolMAXG  ....  3.0000e-04 Eh/bohr
RMS Gradient             TolRMSG  ....  1.0000e-04 Eh/bohr
Max. Displacement        TolMAXD  ....  4.0000e-03 bohr
RMS Displacement         TolRMSD  ....  2.0000e-03 bohr
Strict Convergence                ....  False
------------------------------------------------------------------------------
                        ORCA OPTIMIZATION COORDINATE SETUP
------------------------------------------------------------------------------

The optimization will be done in new redundant internal coordinates
Making redundant internal coordinates   ...  (new redundants) done
Evaluating the initial hessian          ...  (Almloef) done
Evaluating the coordinates              ...  done
Calculating the B-matrix                .... done
Calculating the G-matrix                .... done
Diagonalizing the G-matrix              .... done
Small eigenvalue found = 1.822e-03
Small eigenvalue found = 4.853e-03
Small eigenvalue found = 9.962e-03
Small eigenvalue found = 1.859e-02
Small eigenvalue found = 2.284e-02
Small eigenvalue found = 2.285e-02
The first mode is                       ....  105
The number of degrees of freedom        ....  120

    -----------------------------------------------------------------
                    Redundant Internal Coordinates


    -----------------------------------------------------------------
         Definition                    Initial Value    Approx d2E/dq
    -----------------------------------------------------------------
      1. B(C   1,C   0)                  1.3849         0.636672   
      2. B(C   2,C   1)                  1.3823         0.642677   
      3. B(C   3,C   2)                  1.3930         0.617928   
      4. B(C   4,C   3)                  1.4696         0.466337   
      5. B(C   5,C   4)                  1.3933         0.617315   
      6. B(C   6,C   5)                  1.3800         0.648066   
      7. B(C   7,C   6)                  1.3934         0.616949   
      8. B(C   8,C   7)                  1.4685         0.468290   
      9. B(C   9,C   8)                  1.3936         0.616663   
     10. B(C  10,C   9)                  1.3799         0.648386   
     11. B(C  11,C  10)                  1.3933         0.617302   
     12. B(C  12,C  11)                  1.4697         0.466288   
     13. B(C  13,C  12)                  1.3930         0.617881   
     14. B(C  14,C  13)                  1.3823         0.642649   
     15. B(C  15,C  14)                  1.3848         0.636811   
     16. B(C  16,C  15)                  1.3848         0.636779   
     17. B(C  17,C  16)                  1.3823         0.642652   
     18. B(C  17,C  12)                  1.3931         0.617760   
     19. B(C  18,C  11)                  1.3933         0.617219   
     20. B(C  19,C  18)                  1.3800         0.648133   
     21. B(C  19,C   8)                  1.3935         0.616781   
     22. B(C  20,C   7)                  1.3935         0.616761   
     23. B(C  21,C  20)                  1.3799         0.648313   
     24. B(C  21,C   4)                  1.3932         0.617416   
     25. B(C  22,C   3)                  1.3931         0.617661   
     26. B(C  23,C  22)                  1.3823         0.642661   
     27. B(C  23,C   0)                  1.3848         0.636753   
     28. B(H  24,C   0)                  1.0800         0.373554   
     29. B(H  25,C   1)                  1.0806         0.372813   
     30. B(H  26,C   2)                  1.0805         0.372854   
     31. B(H  27,C   5)                  1.0806         0.372738   
     32. B(H  28,C   6)                  1.0805         0.372852   
     33. B(H  29,C   9)                  1.0804         0.372998   
     34. B(H  30,C  10)                  1.0806         0.372792   
     35. B(H  31,C  13)                  1.0805         0.372912   
     36. B(H  32,C  14)                  1.0804         0.372971   
     37. B(H  33,C  15)                  1.0801         0.373380   
     38. B(H  34,C  16)                  1.0806         0.372761   
     39. B(H  35,C  17)                  1.0805         0.372889   
     40. B(H  36,C  18)                  1.0805         0.372833   
     41. B(H  37,C  19)                  1.0805         0.372927   
     42. B(H  38,C  20)                  1.0806         0.372752   
     43. B(H  39,C  21)                  1.0806         0.372783   
     44. B(H  40,C  22)                  1.0805         0.372836   
     45. B(H  41,C  23)                  1.0805         0.372919   
     46. A(C  23,C   0,H  24)          120.1649         0.356720   
     47. A(C   1,C   0,H  24)          120.1680         0.356712   
     48. A(C   1,C   0,C  23)          119.6671         0.438246   
     49. A(C   0,C   1,C   2)          120.2105         0.438979   
     50. A(C   0,C   1,H  25)          119.9839         0.356592   
     51. A(C   2,C   1,H  25)          119.8055         0.357161   
     52. A(C   3,C   2,H  26)          119.4984         0.354795   
     53. A(C   1,C   2,C   3)          120.6227         0.436620   
     54. A(C   1,C   2,H  26)          119.8666         0.357168   
     55. A(C   2,C   3,C  22)          118.6680         0.433510   
     56. A(C   4,C   3,C  22)          120.6340         0.412247   
     57. A(C   2,C   3,C   4)          120.6980         0.412279   
     58. A(C   3,C   4,C  21)          120.8208         0.412218   
     59. A(C   5,C   4,C  21)          118.3416         0.433402   
     60. A(C   3,C   4,C   5)          120.8375         0.412206   
     61. A(C   6,C   5,H  27)          119.6707         0.357656   
     62. A(C   4,C   5,H  27)          119.4815         0.354716   
     63. A(C   4,C   5,C   6)          120.8309         0.437199   
     64. A(C   5,C   6,H  28)          119.6430         0.357675   
     65. A(C   7,C   6,H  28)          119.5028         0.354699   
     66. A(C   5,C   6,C   7)          120.8373         0.437152   
     67. A(C   6,C   7,C  20)          118.3179         0.433273   
     68. A(C   6,C   7,C   8)          120.8410         0.412468   
     69. A(C   8,C   7,C  20)          120.8410         0.412446   
     70. A(C   9,C   8,C  19)          118.3183         0.433239   
     71. A(C   7,C   8,C  19)          120.8852         0.412449   
     72. A(C   7,C   8,C   9)          120.7964         0.412435   
     73. A(C  10,C   9,H  29)          119.6458         0.357728   
     74. A(C   8,C   9,H  29)          119.4984         0.354695   
     75. A(C   8,C   9,C  10)          120.8392         0.437155   
     76. A(C  11,C  10,H  30)          119.4740         0.354724   
     77. A(C   9,C  10,H  30)          119.6749         0.357695   
     78. A(C   9,C  10,C  11)          120.8344         0.437236   
     79. A(C  10,C  11,C  12)          120.8041         0.412197   
     80. A(C  12,C  11,C  18)          120.8566         0.412187   
     81. A(C  10,C  11,C  18)          118.3393         0.433375   
     82. A(C  11,C  12,C  13)          120.6785         0.412265   
     83. A(C  13,C  12,C  17)          118.6697         0.433516   
     84. A(C  11,C  12,C  17)          120.6518         0.412251   
     85. A(C  12,C  13,C  14)          120.6289         0.436610   
     86. A(C  14,C  13,H  31)          119.8655         0.357174   
     87. A(C  12,C  13,H  31)          119.4932         0.354799   
     88. A(C  13,C  14,C  15)          120.2006         0.438992   
     89. A(C  15,C  14,H  32)          119.9926         0.356631   
     90. A(C  13,C  14,H  32)          119.8067         0.357184   
     91. A(C  16,C  15,H  33)          120.1617         0.356694   
     92. A(C  14,C  15,H  33)          120.1664         0.356697   
     93. A(C  14,C  15,C  16)          119.6719         0.438266   
     94. A(C  17,C  16,H  34)          119.8050         0.357150   
     95. A(C  15,C  16,H  34)          119.9891         0.356594   
     96. A(C  15,C  16,C  17)          120.2058         0.438989   
     97. A(C  16,C  17,H  35)          119.8686         0.357171   
     98. A(C  12,C  17,H  35)          119.4963         0.354784   
     99. A(C  12,C  17,C  16)          120.6221         0.436595   
    100. A(C  19,C  18,H  36)          119.6787         0.357678   
    101. A(C  11,C  18,H  36)          119.4736         0.354722   
    102. A(C  11,C  18,C  19)          120.8324         0.437195   
    103. A(C   8,C  19,H  37)          119.4996         0.354695   
    104. A(C   8,C  19,C  18)          120.8364         0.437139   
    105. A(C  18,C  19,H  37)          119.6484         0.357693   
    106. A(C   7,C  20,C  21)          120.8410         0.437158   
    107. A(C  21,C  20,H  38)          119.6445         0.357682   
    108. A(C   7,C  20,H  38)          119.4992         0.354665   
    109. A(C   4,C  21,C  20)          120.8312         0.437242   
    110. A(C  20,C  21,H  39)          119.6735         0.357687   
    111. A(C   4,C  21,H  39)          119.4800         0.354733   
    112. A(C   3,C  22,C  23)          120.6302         0.436584   
    113. A(C  23,C  22,H  40)          119.8638         0.357163   
    114. A(C   3,C  22,H  40)          119.4934         0.354766   
    115. A(C  22,C  23,H  41)          119.8049         0.357177   
    116. A(C   0,C  23,C  22)          120.2006         0.438987   
    117. A(C   0,C  23,H  41)          119.9943         0.356617   
    118. D(C   2,C   1,C   0,C  23)     -0.1486         0.028144   
    119. D(C   2,C   1,C   0,H  24)    179.8595         0.028144   
    120. D(H  25,C   1,C   0,H  24)     -0.2423         0.028144   
    121. D(H  25,C   1,C   0,C  23)    179.7495         0.028144   
    122. D(C   3,C   2,C   1,H  25)   -179.6085         0.028713   
    123. D(H  26,C   2,C   1,H  25)     -0.8958         0.028713   
    124. D(H  26,C   2,C   1,C   0)    179.0026         0.028713   
    125. D(C   3,C   2,C   1,C   0)      0.2898         0.028713   
    126. D(C  22,C   3,C   2,H  26)   -178.8633         0.026411   
    127. D(C  22,C   3,C   2,C   1)     -0.1458         0.026411   
    128. D(C   4,C   3,C   2,C   1)    179.8942         0.026411   
    129. D(C   4,C   3,C   2,H  26)      1.1767         0.026411   
    130. D(C  21,C   4,C   3,C   2)   -138.4279         0.014810   
    131. D(C   5,C   4,C   3,C   2)     41.6397         0.014810   
    132. D(C   5,C   4,C   3,C  22)   -138.3196         0.014810   
    133. D(C  21,C   4,C   3,C  22)     41.6128         0.014810   
    134. D(H  27,C   5,C   4,C  21)   -178.6034         0.026356   
    135. D(H  27,C   5,C   4,C   3)      1.3307         0.026356   
    136. D(C   6,C   5,C   4,C  21)     -0.1047         0.026356   
    137. D(C   6,C   5,C   4,C   3)    179.8293         0.026356   
    138. D(H  28,C   6,C   5,H  27)      0.0320         0.029230   
    139. D(H  28,C   6,C   5,C   4)   -178.4639         0.029230   
    140. D(C   7,C   6,C   5,H  27)    178.5254         0.029230   
    141. D(C   7,C   6,C   5,C   4)      0.0295         0.029230   
    142. D(C  20,C   7,C   6,H  28)    178.5702         0.026323   
    143. D(C   8,C   7,C   6,H  28)     -1.3008         0.026323   
    144. D(C  20,C   7,C   6,C   5)      0.0748         0.026323   
    145. D(C   8,C   7,C   6,C   5)   -179.7963         0.026323   
    146. D(C  19,C   8,C   7,C   6)    -40.5987         0.014933   
    147. D(C   9,C   8,C   7,C  20)    -40.5720         0.014933   
    148. D(C   9,C   8,C   7,C   6)    139.2957         0.014933   
    149. D(C  19,C   8,C   7,C  20)    139.5335         0.014933   
    150. D(H  29,C   9,C   8,C  19)    178.5457         0.026297   
    151. D(H  29,C   9,C   8,C   7)     -1.3513         0.026297   
    152. D(C  10,C   9,C   8,C  19)      0.0341         0.026297   
    153. D(C  10,C   9,C   8,C   7)   -179.8630         0.026297   
    154. D(H  30,C  10,C   9,H  29)      0.0275         0.029261   
    155. D(H  30,C  10,C   9,C   8)    178.5370         0.029261   
    156. D(C  11,C  10,C   9,H  29)   -178.4737         0.029261   
    157. D(C  11,C  10,C   9,C   8)      0.0357         0.029261   
    158. D(C  18,C  11,C  10,H  30)   -178.5794         0.026354   
    159. D(C  18,C  11,C  10,C   9)     -0.0751         0.026354   
    160. D(C  12,C  11,C  10,H  30)      1.3495         0.026354   
    161. D(C  12,C  11,C  10,C   9)    179.8537         0.026354   
    162. D(C  17,C  12,C  11,C  18)     41.6369         0.014807   
    163. D(C  17,C  12,C  11,C  10)   -138.2901         0.014807   
    164. D(C  13,C  12,C  11,C  18)   -138.4413         0.014807   
    165. D(C  13,C  12,C  11,C  10)     41.6317         0.014807   
    166. D(H  31,C  13,C  12,C  17)   -178.8360         0.026407   
    167. D(H  31,C  13,C  12,C  11)      1.2407         0.026407   
    168. D(C  14,C  13,C  12,C  17)     -0.1202         0.026407   
    169. D(C  14,C  13,C  12,C  11)    179.9565         0.026407   
    170. D(H  32,C  14,C  13,H  31)     -0.9020         0.028711   
    171. D(H  32,C  14,C  13,C  12)   -179.6131         0.028711   
    172. D(C  15,C  14,C  13,H  31)    178.9971         0.028711   
    173. D(C  15,C  14,C  13,C  12)      0.2860         0.028711   
    174. D(H  33,C  15,C  14,H  32)     -0.2603         0.028157   
    175. D(H  33,C  15,C  14,C  13)    179.8408         0.028157   
    176. D(C  16,C  15,C  14,H  32)    179.7379         0.028157   
    177. D(C  16,C  15,C  14,C  13)     -0.1610         0.028157   
    178. D(H  34,C  16,C  15,C  14)    179.7482         0.028154   
    179. D(C  17,C  16,C  15,H  33)    179.8707         0.028154   
    180. D(C  17,C  16,C  15,C  14)     -0.1275         0.028154   
    181. D(H  34,C  16,C  15,H  33)     -0.2536         0.028154   
    182. D(H  35,C  17,C  16,H  34)     -0.8998         0.028711   
    183. D(H  35,C  17,C  16,C  15)    178.9761         0.028711   
    184. D(C  12,C  17,C  16,H  34)   -179.5816         0.028711   
    185. D(C  12,C  17,C  16,C  15)      0.2943         0.028711   
    186. D(H  35,C  17,C  12,C  13)   -178.8561         0.026396   
    187. D(H  35,C  17,C  12,C  11)      1.0672         0.026396   
    188. D(C  16,C  17,C  12,C  13)     -0.1694         0.026396   
    189. D(C  16,C  17,C  12,C  11)    179.7540         0.026396   
    190. D(H  36,C  18,C  11,C  12)      1.5455         0.026347   
    191. D(H  36,C  18,C  11,C  10)   -178.5258         0.026347   
    192. D(C  19,C  18,C  11,C  12)   -179.8834         0.026347   
    193. D(C  19,C  18,C  11,C  10)      0.0454         0.026347   
    194. D(H  37,C  19,C  18,H  36)      0.0334         0.029237   
    195. D(H  37,C  19,C  18,C  11)   -178.5348         0.029237   
    196. D(C   8,C  19,C  18,H  36)    178.5924         0.029237   
    197. D(C   8,C  19,C  18,C  11)      0.0242         0.029237   
    198. D(H  37,C  19,C   8,C   9)    178.4973         0.026307   
    199. D(H  37,C  19,C   8,C   7)     -1.6057         0.026307   
    200. D(C  18,C  19,C   8,C   9)     -0.0638         0.026307   
    201. D(C  18,C  19,C   8,C   7)    179.8332         0.026307   
    202. D(H  38,C  20,C   7,C   8)     -1.6584         0.026306   
    203. D(H  38,C  20,C   7,C   6)    178.4705         0.026306   
    204. D(C  21,C  20,C   7,C   8)    179.7676         0.026306   
    205. D(C  21,C  20,C   7,C   6)     -0.1034         0.026306   
    206. D(H  39,C  21,C  20,H  38)      0.0270         0.029254   
    207. D(H  39,C  21,C  20,C   7)    178.5989         0.029254   
    208. D(C   4,C  21,C  20,H  38)   -178.5437         0.029254   
    209. D(C   4,C  21,C  20,C   7)      0.0282         0.029254   
    210. D(H  39,C  21,C   4,C   5)   -178.4974         0.026365   
    211. D(H  39,C  21,C   4,C   3)      1.5686         0.026365   
    212. D(C  20,C  21,C   4,C   5)      0.0761         0.026365   
    213. D(C  20,C  21,C   4,C   3)   -179.8580         0.026365   
    214. D(H  40,C  22,C   3,C   4)      1.1185         0.026387   
    215. D(H  40,C  22,C   3,C   2)   -178.8416         0.026387   
    216. D(C  23,C  22,C   3,C   4)    179.8225         0.026387   
    217. D(C  23,C  22,C   3,C   2)     -0.1376         0.026387   
    218. D(H  41,C  23,C  22,H  40)     -0.9008         0.028712   
    219. D(H  41,C  23,C  22,C   3)   -179.6000         0.028712   
    220. D(C   0,C  23,C  22,H  40)    178.9773         0.028712   
    221. D(C   0,C  23,C  22,C   3)      0.2782         0.028712   
    222. D(H  41,C  23,C   0,H  24)     -0.2640         0.028151   
    223. D(H  41,C  23,C   0,C   1)    179.7442         0.028151   
    224. D(C  22,C  23,C   0,H  24)    179.8581         0.028151   
    225. D(C  22,C  23,C   0,C   1)     -0.1338         0.028151   
    -----------------------------------------------------------------

Number of atoms                         .... 42
Number of degrees of freedom            .... 225

         *************************************************************
         *                GEOMETRY OPTIMIZATION CYCLE   1            *
         *************************************************************
---------------------------------
CARTESIAN COORDINATES (ANGSTROEM)
---------------------------------
  C     -7.800700   -0.054700    0.003900
  C     -7.098400   -0.706200   -0.996200
  C     -5.716100   -0.699700   -0.992900
  C     -5.012000   -0.045600    0.015500
  C     -3.542400   -0.039600    0.021900
  C     -2.823800    0.144400   -1.157500
  C     -1.443800    0.153500   -1.150800
  C     -0.734100   -0.021700    0.035500
  C      0.734300   -0.007600    0.043400
  C      1.436200    0.632700    1.062900
  C      2.816000    0.648900    1.069700
  C      3.542500    0.026100    0.057000
  C      5.012000    0.046500    0.063200
  C      5.720500   -0.145700    1.247100
  C      7.102700   -0.127200    1.251600
  C      7.800300    0.089400    0.075100
  C      7.106400    0.284200   -1.107400
  C      5.724300    0.260100   -1.114800
  C      2.841000   -0.614900   -0.962000
  C      1.461100   -0.631700   -0.968600
  C     -1.453100   -0.207900    1.214600
  C     -2.833000   -0.216400    1.207900
  C     -5.728900    0.603900    1.018000
  C     -7.111200    0.601300    1.009900
  H     -8.880700   -0.058300   -0.000600
  H     -7.631200   -1.223100   -1.781400
  H     -5.173700   -1.223400   -1.766900
  H     -3.355300    0.305900   -2.084400
  H     -0.906000    0.322600   -2.072600
  H      0.891900    1.142900    1.844400
  H      3.341000    1.171200    1.856600
  H      5.181900   -0.331300    2.165200
  H      7.638900   -0.284000    2.176400
  H      8.880300    0.106300    0.079700
  H      7.645500    0.457700   -2.027700
  H      5.188100    0.429200   -2.037500
  H      3.386000   -1.124300   -1.743700
  H      0.936700   -1.154700   -1.755300
  H     -0.922100   -0.370400    2.141600
  H     -3.371400   -0.385000    2.129500
  H     -5.196400    1.131400    1.796300
  H     -7.653800    1.114800    1.790500

----------------------------
CARTESIAN COORDINATES (A.U.)
----------------------------
  NO LB      ZA    FRAG     MASS         X           Y           Z
   0 C     6.0000    0    12.011  -14.741187   -0.103368    0.007370
   1 C     6.0000    0    12.011  -13.414032   -1.334525   -1.882545
   2 C     6.0000    0    12.011  -10.801864   -1.322241   -1.876309
   3 C     6.0000    0    12.011   -9.471307   -0.086172    0.029291
   4 C     6.0000    0    12.011   -6.694166   -0.074833    0.041385
   5 C     6.0000    0    12.011   -5.336209    0.272876   -2.187358
   6 C     6.0000    0    12.011   -2.728387    0.290073   -2.174697
   7 C     6.0000    0    12.011   -1.387248   -0.041007    0.067085
   8 C     6.0000    0    12.011    1.387626   -0.014362    0.082014
   9 C     6.0000    0    12.011    2.714025    1.195630    2.008590
  10 C     6.0000    0    12.011    5.321469    1.226243    2.021440
  11 C     6.0000    0    12.011    6.694355    0.049322    0.107714
  12 C     6.0000    0    12.011    9.471307    0.087872    0.119431
  13 C     6.0000    0    12.011   10.810178   -0.275333    2.356677
  14 C     6.0000    0    12.011   13.422158   -0.240373    2.365181
  15 C     6.0000    0    12.011   14.740431    0.168942    0.141918
  16 C     6.0000    0    12.011   13.429150    0.537060   -2.092683
  17 C     6.0000    0    12.011   10.817359    0.491518   -2.106667
  18 C     6.0000    0    12.011    5.368712   -1.161993   -1.817917
  19 C     6.0000    0    12.011    2.761079   -1.193740   -1.830389
  20 C     6.0000    0    12.011   -2.745961   -0.392874    2.295261
  21 C     6.0000    0    12.011   -5.353594   -0.408937    2.282600
  22 C     6.0000    0    12.011  -10.826052    1.141206    1.923741
  23 C     6.0000    0    12.011  -13.438220    1.136292    1.908434
  24 H     1.0000    0     1.008  -16.782091   -0.110171   -0.001134
  25 H     1.0000    0     1.008  -14.420878   -2.311324   -3.366358
  26 H     1.0000    0     1.008   -9.776876   -2.311891   -3.338957
  27 H     1.0000    0     1.008   -6.340598    0.578067   -3.938945
  28 H     1.0000    0     1.008   -1.712092    0.609626   -3.916646
  29 H     1.0000    0     1.008    1.685447    2.159768    3.485411
  30 H     1.0000    0     1.008    6.313575    2.213247    3.508466
  31 H     1.0000    0     1.008    9.792372   -0.626066    4.091635
  32 H     1.0000    0     1.008   14.435429   -0.536682    4.112800
  33 H     1.0000    0     1.008   16.781335    0.200878    0.150611
  34 H     1.0000    0     1.008   14.447901    0.864928   -3.831798
  35 H     1.0000    0     1.008    9.804088    0.811070   -3.850317
  36 H     1.0000    0     1.008    6.398613   -2.124619   -3.295115
  37 H     1.0000    0     1.008    1.770106   -2.182067   -3.317036
  38 H     1.0000    0     1.008   -1.742516   -0.699955    4.047037
  39 H     1.0000    0     1.008   -6.371023   -0.727545    4.024172
  40 H     1.0000    0     1.008   -9.819773    2.138036    3.394515
  41 H     1.0000    0     1.008  -14.463586    2.106667    3.383555

--------------------------------
INTERNAL COORDINATES (ANGSTROEM)
--------------------------------
 C      0   0   0     0.000000000000     0.00000000     0.00000000
 C      1   0   0     1.384874561107     0.00000000     0.00000000
 C      2   1   0     1.382319221454   120.21051583     0.00000000
 C      3   2   1     1.393009038018   120.62265289     0.28981577
 C      4   3   2     1.469626183762   120.69801301   179.89415553
 C      5   4   3     1.393278981396   120.83752905    41.63966969
 C      6   5   4     1.380046267340   120.83087301   179.82930947
 C      7   6   5     1.393440641003   120.83729695     0.02953136
 C      8   7   6     1.468488944460   120.84095516   180.20370358
 C      9   8   7     1.393566629193   120.79637157   139.29574024
 C     10   9   8     1.379911852257   120.83917369   180.13702457
 C     11  10   9     1.393285103631   120.83435095     0.03571954
 C     12  11  10     1.469654670322   120.80405129   179.85371710
 C     13  12  11     1.393029899177   120.67850031    41.63168757
 C     14  13  12     1.382331125310   120.62889807   179.95651811
 C     15  14  13     1.384815355923   120.20061927     0.28602877
 C     16  15  14     1.384828689766   119.67191430   359.83896847
 C     17  16  15     1.382329909971   120.20584922   359.87252088
 C     12  11  10     1.393321301782   118.33928824   359.92490407
 C     19  12  11     1.380018046983   120.83239468     0.04538960
 C      8   7   6     1.393523681177   118.31787439     0.07475127
 C     21   8   7     1.379942444452   120.84098780   359.89659920
 C      4   3   2     1.393126738671   118.66801589   359.85423273
 C     23   4   3     1.382326177138   120.63016639   359.86236802
 H      1   2   3     1.080015374891   120.16801939   179.85954377
 H      2   1   3     1.080555639474   119.98392698   179.89818362
 H      3   2   1     1.080525543428   119.86657108   179.00260859
 H      6   5   4     1.080610063807   119.48152123     1.33065264
 H      7   6   5     1.080527135245   119.64295242   181.53613994
 H     10   9   8     1.080420649562   119.49844505   358.64866750
 H     11  10   9     1.080571099003   119.67488971   178.53700188
 H     14  13  12     1.080483655591   119.49315278     1.24069347
 H     15  14  13     1.080440521269   119.80674774   180.38692289
 H     16  15  14     1.080142013811   120.16635762   179.84076836
 H     17  16  15     1.080593887638   119.98905172   179.74818687
 H     18  17  16     1.080500134197   119.86856878   178.97610704
 H     19  12  11     1.080540721121   119.47362105   181.47424445
 H     20  19  12     1.080472697480   119.64842020   181.46519105
 H     21   8   7     1.080599949102   119.49922661   178.47053514
 H     22  21   8     1.080577197612   119.67351114   178.59891991
 H     23   4   3     1.080538472244   119.49340772   181.15844633
 H     24  23   4     1.080478306122   119.80490307   180.40001582

---------------------------
INTERNAL COORDINATES (A.U.)
---------------------------
 C      0   0   0     0.000000000000     0.00000000     0.00000000
 C      1   0   0     2.617033650326     0.00000000     0.00000000
 C      2   1   0     2.612204758202   120.21051583     0.00000000
 C      3   2   1     2.632405583931   120.62265289     0.28981577
 C      4   3   2     2.777191006551   120.69801301   179.89415553
 C      5   4   3     2.632915702987   120.83752905    41.63966969
 C      6   5   4     2.607909497414   120.83087301   179.82930947
 C      7   6   5     2.633221195372   120.83729695     0.02953136
 C      8   7   6     2.775041935720   120.84095516   180.20370358
 C      9   8   7     2.633459278546   120.79637157   139.29574024
 C     10   9   8     2.607655489718   120.83917369   180.13702457
 C     11  10   9     2.632927272335   120.83435095     0.03571954
 C     12  11  10     2.777244838347   120.80405129   179.85371710
 C     13  12  11     2.632445005808   120.67850031    41.63168757
 C     14  13  12     2.612227253231   120.62889807   179.95651811
 C     15  14  13     2.616921768743   120.20061927     0.28602877
 C     16  15  14     2.616946966055   119.67191430   359.83896847
 C     17  16  15     2.612224956573   120.20584922   359.87252088
 C     12  11  10     2.632995676927   118.33928824   359.92490407
 C     19  12  11     2.607856168668   120.83239468     0.04538960
 C      8   7   6     2.633378118558   118.31787439     0.07475127
 C     21   8   7     2.607713300588   120.84098780   359.89659920
 C      4   3   2     2.632628005931   118.66801589   359.85423273
 C     23   4   3     2.612217902540   120.63016639   359.86236802
 H      1   2   3     2.040933278967   120.16801939   179.85954377
 H      2   1   3     2.041954231071   119.98392698   179.89818362
 H      3   2   1     2.041897357785   119.86657108   179.00260859
 H      6   5   4     2.042057078154   119.48152123     1.33065264
 H      7   6   5     2.041900365883   119.64295242   181.53613994
 H     10   9   8     2.041699137106   119.49844505   358.64866750
 H     11  10   9     2.041983445345   119.67488971   178.53700188
 H     14  13  12     2.041818201246   119.49315278     1.24069347
 H     15  14  13     2.041736689190   119.80674774   180.38692289
 H     16  15  14     2.041172591845   120.16635762   179.84076836
 H     17  16  15     2.042026509625   119.98905172   179.74818687
 H     18  17  16     2.041849341298   119.86856878   178.97610704
 H     19  12  11     2.041926039468   119.47362105   181.47424445
 H     20  19  12     2.041797493417   119.64842020   181.46519105
 H     21   8   7     2.042037964133   119.49922661   178.47053514
 H     22  21   8     2.041994970048   119.67351114   178.59891991
 H     23   4   3     2.041921789707   119.49340772   181.15844633
 H     24  23   4     2.041808092213   119.80490307   180.40001582

---------------------
BASIS SET INFORMATION
---------------------
There are 2 groups of distinct atoms

 Group   1 Type C   : 19s6p3d2f contracted to 5s4p3d2f pattern {88111/3111/111/11}
 Group   2 Type H   : 5s2p1d contracted to 3s2p1d pattern {311/11/1}

Atom   0C    basis set group =>   1
Atom   1C    basis set group =>   1
Atom   2C    basis set group =>   1
Atom   3C    basis set group =>   1
Atom   4C    basis set group =>   1
Atom   5C    basis set group =>   1
Atom   6C    basis set group =>   1
Atom   7C    basis set group =>   1
Atom   8C    basis set group =>   1
Atom   9C    basis set group =>   1
Atom  10C    basis set group =>   1
Atom  11C    basis set group =>   1
Atom  12C    basis set group =>   1
Atom  13C    basis set group =>   1
Atom  14C    basis set group =>   1
Atom  15C    basis set group =>   1
Atom  16C    basis set group =>   1
Atom  17C    basis set group =>   1
Atom  18C    basis set group =>   1
Atom  19C    basis set group =>   1
Atom  20C    basis set group =>   1
Atom  21C    basis set group =>   1
Atom  22C    basis set group =>   1
Atom  23C    basis set group =>   1
Atom  24H    basis set group =>   2
Atom  25H    basis set group =>   2
Atom  26H    basis set group =>   2
Atom  27H    basis set group =>   2
Atom  28H    basis set group =>   2
Atom  29H    basis set group =>   2
Atom  30H    basis set group =>   2
Atom  31H    basis set group =>   2
Atom  32H    basis set group =>   2
Atom  33H    basis set group =>   2
Atom  34H    basis set group =>   2
Atom  35H    basis set group =>   2
Atom  36H    basis set group =>   2
Atom  37H    basis set group =>   2
Atom  38H    basis set group =>   2
Atom  39H    basis set group =>   2
Atom  40H    basis set group =>   2
Atom  41H    basis set group =>   2
---------------------------------
AUXILIARY/J BASIS SET INFORMATION
---------------------------------
There are 2 groups of distinct atoms

 Group   1 Type C   : 10s7p5d2f1g contracted to 10s7p5d2f1g pattern {1111111111/1111111/11111/11/1}
 Group   2 Type H   : 4s3p2d1f contracted to 4s3p2d1f pattern {1111/111/11/1}

Atom   0C    basis set group =>   1
Atom   1C    basis set group =>   1
Atom   2C    basis set group =>   1
Atom   3C    basis set group =>   1
Atom   4C    basis set group =>   1
Atom   5C    basis set group =>   1
Atom   6C    basis set group =>   1
Atom   7C    basis set group =>   1
Atom   8C    basis set group =>   1
Atom   9C    basis set group =>   1
Atom  10C    basis set group =>   1
Atom  11C    basis set group =>   1
Atom  12C    basis set group =>   1
Atom  13C    basis set group =>   1
Atom  14C    basis set group =>   1
Atom  15C    basis set group =>   1
Atom  16C    basis set group =>   1
Atom  17C    basis set group =>   1
Atom  18C    basis set group =>   1
Atom  19C    basis set group =>   1
Atom  20C    basis set group =>   1
Atom  21C    basis set group =>   1
Atom  22C    basis set group =>   1
Atom  23C    basis set group =>   1
Atom  24H    basis set group =>   2
Atom  25H    basis set group =>   2
Atom  26H    basis set group =>   2
Atom  27H    basis set group =>   2
Atom  28H    basis set group =>   2
Atom  29H    basis set group =>   2
Atom  30H    basis set group =>   2
Atom  31H    basis set group =>   2
Atom  32H    basis set group =>   2
Atom  33H    basis set group =>   2
Atom  34H    basis set group =>   2
Atom  35H    basis set group =>   2
Atom  36H    basis set group =>   2
Atom  37H    basis set group =>   2
Atom  38H    basis set group =>   2
Atom  39H    basis set group =>   2
Atom  40H    basis set group =>   2
Atom  41H    basis set group =>   2
---------------------------------
AUXILIARY/C BASIS SET INFORMATION
---------------------------------
There are 2 groups of distinct atoms

 Group   1 Type C   : 9s7p6d4f2g contracted to 9s7p6d4f2g pattern {111111111/1111111/111111/1111/11}
 Group   2 Type H   : 4s3p2d1f contracted to 4s3p2d1f pattern {1111/111/11/1}

Atom   0C    basis set group =>   1
Atom   1C    basis set group =>   1
Atom   2C    basis set group =>   1
Atom   3C    basis set group =>   1
Atom   4C    basis set group =>   1
Atom   5C    basis set group =>   1
Atom   6C    basis set group =>   1
Atom   7C    basis set group =>   1
Atom   8C    basis set group =>   1
Atom   9C    basis set group =>   1
Atom  10C    basis set group =>   1
Atom  11C    basis set group =>   1
Atom  12C    basis set group =>   1
Atom  13C    basis set group =>   1
Atom  14C    basis set group =>   1
Atom  15C    basis set group =>   1
Atom  16C    basis set group =>   1
Atom  17C    basis set group =>   1
Atom  18C    basis set group =>   1
Atom  19C    basis set group =>   1
Atom  20C    basis set group =>   1
Atom  21C    basis set group =>   1
Atom  22C    basis set group =>   1
Atom  23C    basis set group =>   1
Atom  24H    basis set group =>   2
Atom  25H    basis set group =>   2
Atom  26H    basis set group =>   2
Atom  27H    basis set group =>   2
Atom  28H    basis set group =>   2
Atom  29H    basis set group =>   2
Atom  30H    basis set group =>   2
Atom  31H    basis set group =>   2
Atom  32H    basis set group =>   2
Atom  33H    basis set group =>   2
Atom  34H    basis set group =>   2
Atom  35H    basis set group =>   2
Atom  36H    basis set group =>   2
Atom  37H    basis set group =>   2
Atom  38H    basis set group =>   2
Atom  39H    basis set group =>   2
Atom  40H    basis set group =>   2
Atom  41H    basis set group =>   2


           ************************************************************
           *        Program running with 4 parallel MPI-processes     *
           *              working on a common directory               *
           ************************************************************
------------------------------------------------------------------------------
                           ORCA GTO INTEGRAL CALCULATION
                           -- RI-GTO INTEGRALS CHOSEN --
------------------------------------------------------------------------------
------------------------------------------------------------------------------
                   ___                                                        
                  /   \      - P O W E R E D   B Y -                         
                 /     \                                                     
                 |  |  |   _    _      __       _____    __    __             
                 |  |  |  | |  | |    /  \     |  _  \  |  |  /  |          
                  \  \/   | |  | |   /    \    | | | |  |  | /  /          
                 / \  \   | |__| |  /  /\  \   | |_| |  |  |/  /          
                |  |  |   |  __  | /  /__\  \  |    /   |      \           
                |  |  |   | |  | | |   __   |  |    \   |  |\   \          
                \     /   | |  | | |  |  |  |  | |\  \  |  | \   \       
                 \___/    |_|  |_| |__|  |__|  |_| \__\ |__|  \__/        
                                                                              
                      - O R C A' S   B I G   F R I E N D -                    
                                      &                                       
                       - I N T E G R A L  F E E D E R -                       
                                                                              
 v1 FN, 2020, v2 2021                                                         
------------------------------------------------------------------------------


Reading SHARK input file optpbed3-b2plyp-test-201.SHARKINP.tmp ... ok
----------------------
SHARK INTEGRAL PACKAGE
----------------------

Number of atoms                             ...     42
Number of basis functions                   ...   1500
Number of shells                            ...    588
Maximum angular momentum                    ...      3
Integral batch strategy                     ... SHARK/LIBINT Hybrid
RI-J (if used) integral strategy            ... SPLIT-RIJ (Revised 2003 algorithm where possible)
Printlevel                                  ...      1
Contraction scheme used                     ... PARTIAL GENERAL contraction
Coulomb Range Separation                    ... NOT USED
Exchange Range Separation                   ... NOT USED
Finite Nucleus Model                        ... NOT USED
Auxiliary Coulomb fitting basis             ... AVAILABLE
   # of basis functions in Aux-J            ...   2436
   # of shells in Aux-J                     ...    780
   Maximum angular momentum in Aux-J        ...      4
Auxiliary J/K fitting basis                 ... NOT available
Auxiliary Correlation fitting basis         ... AVAILABLE
   # of basis functions in Aux-C            ...   3084
   # of shells in Aux-C                     ...    852
   Maximum angular momentum in Aux-C        ...      4
Auxiliary 'external' fitting basis          ... NOT available
Integral threshold                          ...     2.500000e-11
Primitive cut-off                           ...     2.500000e-12
Primitive pair pre-selection threshold      ...     2.500000e-12

Calculating pre-screening integrals         ... done (  0.4 sec) Dimension = 588
Calculating pre-screening integrals (ORCA)  ... done (  0.9 sec) Dimension = 444
Organizing shell pair data                  ... done (  1.2 sec)
Shell pair information
Total number of shell pairs                 ...    173166
Shell pairs after pre-screening             ...     96684
Total number of primitive shell pairs       ...    226254
Primitive shell pairs kept                  ...    113082
          la=0 lb=0:  21983 shell pairs
          la=1 lb=0:  25277 shell pairs
          la=1 lb=1:   6325 shell pairs
          la=2 lb=0:  15970 shell pairs
          la=2 lb=1:   8110 shell pairs
          la=2 lb=2:   2684 shell pairs
          la=3 lb=0:   8428 shell pairs
          la=3 lb=1:   4324 shell pairs
          la=3 lb=2:   2808 shell pairs
          la=3 lb=3:    775 shell pairs

Calculating one electron integrals          ... done (  0.3 sec)
Calculating RI/J V-Matrix + Cholesky decomp.... done (  0.6 sec)
Calculating RI/C V-Matrix + Cholesky decomp.... done (  0.9 sec)
Calculating Nuclear repulsion               ... done (  0.0 sec) ENN=   1662.519182806473 Eh

SHARK setup successfully completed in   7.6 seconds

Maximum memory used throughout the entire GTOINT-calculation: 161.1 MB


           ************************************************************
           *        Program running with 4 parallel MPI-processes     *
           *              working on a common directory               *
           ************************************************************
-------------------------------------------------------------------------------
                                 ORCA SCF
-------------------------------------------------------------------------------

------------
SCF SETTINGS
------------
Hamiltonian:
 Density Functional     Method          .... DFT(GTOs)
 Exchange Functional    Exchange        .... PBE
   PBE kappa parameter   XKappa         ....  0.804000
   PBE mue parameter    XMuePBE         ....  0.219520
 Correlation Functional Correlation     .... PBE
   PBE beta parameter  CBetaPBE         ....  0.066725
 LDA part of GGA corr.  LDAOpt          .... PW91-LDA
 Gradients option       PostSCFGGA      .... off
 Hybrid DFT is turned on
   Fraction HF Exchange ScalHFX         ....  0.250000
   Scaling of DF-GGA-X  ScalDFX         ....  0.750000
   Scaling of DF-GGA-C  ScalDFC         ....  1.000000
   Scaling of DF-LDA-C  ScalLDAC        ....  1.000000
   Perturbative correction              ....  0.000000
   Density functional embedding theory  .... OFF
   NL short-range parameter             ....  6.900000
 RI-approximation to the Coulomb term is turned on
   Number of AuxJ basis functions       .... 2436
   RIJ-COSX (HFX calculated with COS-X)).... on


General Settings:
 Integral files         IntName         .... optpbed3-b2plyp-test-201
 Hartree-Fock type      HFTyp           .... RHF
 Total Charge           Charge          ....    0
 Multiplicity           Mult            ....    1
 Number of Electrons    NEL             ....  162
 Basis Dimension        Dim             .... 1356
 Nuclear Repulsion      ENuc            ....   1662.5191828065 Eh

Convergence Acceleration:
 DIIS                   CNVDIIS         .... on
   Start iteration      DIISMaxIt       ....    12
   Startup error        DIISStart       ....  0.200000
   # of expansion vecs  DIISMaxEq       ....     5
   Bias factor          DIISBfac        ....   1.050
   Max. coefficient     DIISMaxC        ....  10.000
 Trust-Rad. Augm. Hess. CNVTRAH         .... auto
   Auto Start mean grad. ratio tolernc. ....  1.125000
   Auto Start start iteration           ....    20
   Auto Start num. interpolation iter.  ....    10
   Max. Number of Micro iterations      ....    16
   Max. Number of Macro iterations      .... Maxiter - #DIIS iter
   Number of Davidson start vectors     ....     2
   Converg. threshold I  (grad. norm)   ....   1.000e-05
   Converg. threshold II (energy diff.) ....   1.000e-08
   Grad. Scal. Fac. for Micro threshold ....   0.100
   Minimum threshold for Micro iter.    ....   0.010
   NR start threshold (gradient norm)   ....   0.001
   Initial trust radius                 ....   0.400
   Minimum AH scaling param. (alpha)    ....   1.000
   Maximum AH scaling param. (alpha)    .... 1000.000
   Orbital update algorithm             .... Taylor
   White noise on init. David. guess    .... on
   Maximum white noise                  ....   0.010
   Quad. conv. algorithm                .... NR
 SOSCF                  CNVSOSCF        .... on
   Start iteration      SOSCFMaxIt      ....   150
   Startup grad/error   SOSCFStart      ....  0.003300
 Level Shifting         CNVShift        .... on
   Level shift para.    LevelShift      ....    0.2500
   Turn off err/grad.   ShiftErr        ....    0.0010
 Zerner damping         CNVZerner       .... off
 Static damping         CNVDamp         .... on
   Fraction old density DampFac         ....    0.7000
   Max. Damping (<1)    DampMax         ....    0.9800
   Min. Damping (>=0)   DampMin         ....    0.0000
   Turn off err/grad.   DampErr         ....    0.1000
 Fernandez-Rico         CNVRico         .... off

SCF Procedure:
 Maximum # iterations   MaxIter         ....   125
 SCF integral mode      SCFMode         .... Direct
   Integral package                     .... SHARK and LIBINT hybrid scheme
 Reset frequency        DirectResetFreq ....    20
 Integral Threshold     Thresh          ....  2.500e-11 Eh
 Primitive CutOff       TCut            ....  2.500e-12 Eh

Convergence Tolerance:
 Convergence Check Mode ConvCheckMode   .... Total+1el-Energy
 Convergence forced     ConvForced      .... 0
 Energy Change          TolE            ....  1.000e-08 Eh
 1-El. energy change                    ....  1.000e-05 Eh
 Orbital Gradient       TolG            ....  1.000e-05
 Orbital Rotation angle TolX            ....  1.000e-05
 DIIS Error             TolErr          ....  5.000e-07


Diagonalization of the overlap matrix:
Smallest eigenvalue                        ... 1.953e-07
Time for diagonalization                   ...    0.487 sec
Threshold for overlap eigenvalues          ... 1.000e-08
Number of eigenvalues below threshold      ... 0
Time for construction of square roots      ...    0.498 sec
Total time needed                          ...    0.994 sec

Time for model grid setup =    1.374 sec

------------------------------
INITIAL GUESS: MODEL POTENTIAL
------------------------------
Loading Hartree-Fock densities                     ... done
Calculating cut-offs                               ... done
Initializing the effective Hamiltonian             ... done
Setting up the integral package (SHARK)            ... done
Starting the Coulomb interaction                   ... done (   4.0 sec)
Reading the grid                                   ... done
Mapping shells                                     ... done
Starting the XC term evaluation                    ... done (   2.7 sec)
  promolecular density results
     # of electrons  =    161.989464315
     EX              =   -128.153342311
     EC              =     -5.405910845
     EX+EC           =   -133.559253157
Transforming the Hamiltonian                       ... done (   0.3 sec)
Diagonalizing the Hamiltonian                      ... done (   0.6 sec)
Back transforming the eigenvectors                 ... done (   0.1 sec)
Now organizing SCF variables                       ... done
                      ------------------
                      INITIAL GUESS DONE (   9.1 sec)
                      ------------------
-------------------
DFT GRID GENERATION
-------------------

General Integration Accuracy     IntAcc      ... 4.388
Radial Grid Type                 RadialGrid  ... OptM3 with GC (2021)
Angular Grid (max. ang.)         AngularGrid ... 4 (Lebedev-302)
Angular grid pruning method      GridPruning ... 4 (adaptive)
Weight generation scheme         WeightScheme... Becke
Basis function cutoff            BFCut       ... 1.0000e-11
Integration weight cutoff        WCut        ... 1.0000e-14
Angular grids for H and He will be reduced by one unit
Partially contracted basis set               ... off
Rotationally invariant grid construction     ... off

Total number of grid points                  ...   206334
Total number of batches                      ...     3246
Average number of points per batch           ...       63
Average number of grid points per atom       ...     4913
Time for grid setup =    3.401 sec

--------------------
COSX GRID GENERATION
--------------------

GRIDX 1
-------
General Integration Accuracy     IntAcc      ... 3.816
Radial Grid Type                 RadialGrid  ... OptM3 with GC (2021)
Angular Grid (max. ang.)         AngularGrid ... 1 (Lebedev-50)
Angular grid pruning method      GridPruning ... 4 (adaptive)
Weight generation scheme         WeightScheme... Becke
Basis function cutoff            BFCut       ... 1.0000e-11
Integration weight cutoff        WCut        ... 1.0000e-14
Angular grids for H and He will be reduced by one unit
Partially contracted basis set               ... on
Rotationally invariant grid construction     ... off

Total number of grid points                  ...    26266
Total number of batches                      ...      430
Average number of points per batch           ...       61
Average number of grid points per atom       ...      625
UseSFitting                                  ... on

GRIDX 2
-------
General Integration Accuracy     IntAcc      ... 4.020
Radial Grid Type                 RadialGrid  ... OptM3 with GC (2021)
Angular Grid (max. ang.)         AngularGrid ... 2 (Lebedev-110)
Angular grid pruning method      GridPruning ... 4 (adaptive)
Weight generation scheme         WeightScheme... Becke
Basis function cutoff            BFCut       ... 1.0000e-11
Integration weight cutoff        WCut        ... 1.0000e-14
Angular grids for H and He will be reduced by one unit
Partially contracted basis set               ... on
Rotationally invariant grid construction     ... off

Total number of grid points                  ...    61725
Total number of batches                      ...      979
Average number of points per batch           ...       63
Average number of grid points per atom       ...     1470
UseSFitting                                  ... on

GRIDX 3
-------
General Integration Accuracy     IntAcc      ... 4.338
Radial Grid Type                 RadialGrid  ... OptM3 with GC (2021)
Angular Grid (max. ang.)         AngularGrid ... 3 (Lebedev-194)
Angular grid pruning method      GridPruning ... 4 (adaptive)
Weight generation scheme         WeightScheme... Becke
Basis function cutoff            BFCut       ... 1.0000e-11
Integration weight cutoff        WCut        ... 1.0000e-14
Angular grids for H and He will be reduced by one unit
Partially contracted basis set               ... on
Rotationally invariant grid construction     ... off

Total number of grid points                  ...   133103
Total number of batches                      ...     2097
Average number of points per batch           ...       63
Average number of grid points per atom       ...     3169
UseSFitting                                  ... on

Time for X-Grid setup             =    9.453 sec


--------------------
CPCM SOLVATION MODEL
--------------------
CPCM parameters:
  Epsilon                                         ...       2.2099
  Refrac                                          ...       1.4224
  Rsolv                                           ...       1.3000
  Surface type                                    ... GAUSSIAN VDW
  Epsilon function type                           ...         CPCM
Solvent:                                     ... 1,4-DIOXANE
SMD-CDS solvent descriptors:
  Soln                                       ...    1.4224
  Soln25                                     ...    1.4204
  Sola                                       ...    0.0000
  Solb                                       ...    0.6400
  Solg                                       ...   47.1400
  Solc                                       ...    0.0000
  Solh                                       ...    0.0000
Radii:
 Radius for C  used is    3.4960 Bohr (=   1.8500 Ang.)
 Radius for H  used is    2.2677 Bohr (=   1.2000 Ang.)
Calculating surface                               ...        done! (  0.0s)
GEPOL surface points                              ...         2412
GEPOL Volume                                      ...    2184.4929
GEPOL Surface-area                                ...    1219.8542
Calculating surface distance matrix               ...        done! (  0.1s)
Performing Cholesky decomposition & store         ...        done! (  0.4s)
Overall time for CPCM initialization              ...                 0.5s
 re-compute Schwartz prescreening matrix in partically contracted basis (1) ...done (   0.319 sec)
--------------
SCF ITERATIONS
--------------
ITER       Energy         Delta-E        Max-DP      RMS-DP      [F,P]     Damp
               ***  Starting incremental Fock matrix formation  ***
  0   -924.1430139318   0.000000000000 0.30881776  0.00204940  0.1424991 0.7000
  1   -924.3465132989  -0.203499367111 0.35576302  0.00209414  0.0783232 0.7000
                               ***Turning on DIIS***
  2   -924.4451637314  -0.098650432450 0.88950516  0.00522303  0.0366775 0.0000
  3   -924.5890323707  -0.143868639284 0.07621884  0.00067316  0.0389964 0.0000
  4   -924.6210186427  -0.031986271983 0.04153547  0.00039858  0.0055723 0.0000
                      *** Initiating the SOSCF procedure ***
                           *** Shutting down DIIS ***
                      *** Re-Reading the Fockian *** 
                      *** Removing any level shift *** 
ITER      Energy       Delta-E        Grad      Rot      Max-DP    RMS-DP
  5   -924.62209933  -0.0010806866  0.000462  0.000462  0.023850  0.000172
               *** Restarting incremental Fock matrix formation ***
  6   -924.62215339  -0.0000540600  0.000354  0.001351  0.235555  0.001675
  7   -924.62215612  -0.0000027262  0.000478  0.000872  0.024543  0.000295
  8   -924.62216790  -0.0000117887  0.000108  0.000260  0.029176  0.000326
  9   -924.62216786   0.0000000432  0.000089  0.000140  0.006887  0.000048
 10   -924.62216851  -0.0000006516  0.000026  0.000085  0.015179  0.000154
 11   -924.62216857  -0.0000000620  0.000022  0.000031  0.012328  0.000078
 12   -924.62216862  -0.0000000423  0.000006  0.000008  0.017433  0.000114
 13   -924.62216857   0.0000000452  0.000004  0.000006  0.019314  0.000140
 14   -924.62216854   0.0000000290  0.000004  0.000010  0.033499  0.000269
 15   -924.62216841   0.0000001356  0.000011  0.000009  0.032329  0.000238
 16   -924.62216851  -0.0000001011  0.000003  0.000004  0.028381  0.000188
 17   -924.62216854  -0.0000000277  0.000004  0.000007  0.042012  0.000281
 18   -924.62216859  -0.0000000509  0.000005  0.000004  0.020156  0.000166
 19   -924.62216857   0.0000000174  0.000003  0.000007  0.040892  0.000271

 WARNING: the maximum gradient error descreased on average only by a factor   1.1
          during the last 20 iterations

                      *** Initiating the TRAH-SCF procedure ***

              ***Rediagonalizing the Fockian in SOSCF/NRSCF***

TRAH GRIDX
----------

General Integration Accuracy     IntAcc      ... 3.067
Radial Grid Type                 RadialGrid  ... OptM3 with GC (2021)
Angular Grid (max. ang.)         AngularGrid ... 1 (Lebedev-50)
Angular grid pruning method      GridPruning ... 4 (adaptive)
Weight generation scheme         WeightScheme... Becke
Basis function cutoff            BFCut       ... 1.0000e-11
Integration weight cutoff        WCut        ... 1.0000e-14
Angular grids for H and He will be reduced by one unit
Partially contracted basis set               ... on
Rotationally invariant grid construction     ... off

Total number of grid points                  ...    13943
Total number of batches                      ...      238
Average number of points per batch           ...       58
Average number of grid points per atom       ...      332


TRAH GRID
---------

General Integration Accuracy     IntAcc      ... 3.467
Radial Grid Type                 RadialGrid  ... OptM3 with GC (2021)
Angular Grid (max. ang.)         AngularGrid ... 1 (Lebedev-50)
Angular grid pruning method      GridPruning ... 4 (adaptive)
Weight generation scheme         WeightScheme... Becke
Basis function cutoff            BFCut       ... 1.0000e-11
Integration weight cutoff        WCut        ... 1.0000e-14
Angular grids for H and He will be reduced by one unit
Partially contracted basis set               ... off
Rotationally invariant grid construction     ... off

Total number of grid points                  ...    30477
Total number of batches                      ...      498
Average number of points per batch           ...       61
Average number of grid points per atom       ...      726

[...]
   Done building sigma-vectors             Size of expansion space: 50
   Lowest Energy          :     0.159421268643
   Maximum Energy change  :     0.006168667880 (vector 6)
   Maximum residual norm  :     0.000887459038

                       ****Iteration    3****
              <<< Entering MO-section for Build Sigma(Double) >>>
   Forming the XC and CPCM contribution:
   Time for densities:            0.390
   Time for XC-Integration:      24.068
   Time for LR-CPCM terms:       18.469
   Time for Sigma-Completion:     0.344
   Time for building 10 sigma-vectors
   Data Preparation Phase         ...     0.01 sec
   Transformed RI Coulomb         ...     1.15 sec
   Transformed RI-exchange        ...   757.02 sec
   (ab|v) reading and digestion   ...   727.49 sec
   Final sigma-completion         ...     0.02 sec
   Done building sigma-vectors             Size of expansion space: 60
   Lowest Energy          :     0.159306206802
   Maximum Energy change  :     0.002279148059 (vector 5)
   Maximum residual norm  :     0.000065259780

                       ****Iteration    4****
              <<< Entering MO-section for Build Sigma(Double) >>>
   Forming the XC and CPCM contribution:
   Time for densities:            0.389
   Time for XC-Integration:      24.038
   Time for LR-CPCM terms:       18.428
   Time for Sigma-Completion:     0.331
   Time for building 10 sigma-vectors
   Data Preparation Phase         ...     0.01 sec
   Transformed RI Coulomb         ...     1.16 sec
   Transformed RI-exchange        ...   770.36 sec
   (ab|v) reading and digestion   ...   740.79 sec
   Final sigma-completion         ...     0.02 sec
   Done building sigma-vectors             Size of expansion space: 70
   Lowest Energy          :     0.159281157962
   Maximum Energy change  :     0.000237827293 (vector 5)
   Maximum residual norm  :     0.000009742673
   Rebuilding the expansion space

                       ****Iteration    5****
              <<< Entering MO-section for Build Sigma(Double) >>>
   Forming the XC and CPCM contribution:
   Time for densities:            0.769
   Time for XC-Integration:      47.759
   Time for LR-CPCM terms:       29.228
   Time for Sigma-Completion:     0.662
   Time for building 20 sigma-vectors
   Data Preparation Phase         ...     0.03 sec
   Transformed RI Coulomb         ...     1.91 sec
   Transformed RI-exchange        ...  1515.04 sec
   (ab|v) reading and digestion   ...  1455.35 sec
   Final sigma-completion         ...     0.04 sec
   Done building sigma-vectors             Size of expansion space: 20
   Lowest Energy          :     0.159279528497
   Maximum Energy change  :     0.000012281029 (vector 3)
   Maximum residual norm  :     0.000001384556

                       ****Iteration    6****
              <<< Entering MO-section for Build Sigma(Double) >>>
   Forming the XC and CPCM contribution:
   Time for densities:            0.376
   Time for XC-Integration:      24.006
   Time for LR-CPCM terms:       18.392
   Time for Sigma-Completion:     0.311
   Time for building 10 sigma-vectors
   Data Preparation Phase         ...     0.01 sec
   Transformed RI Coulomb         ...     1.14 sec
   Transformed RI-exchange        ...   745.12 sec
   (ab|v) reading and digestion   ...   716.35 sec
   Final sigma-completion         ...     0.02 sec
   Done building sigma-vectors             Size of expansion space: 30
   Lowest Energy          :     0.159279277231
   Maximum Energy change  :     0.000003173885 (vector 9)
   Maximum residual norm  :     0.000000261474

      *** CONVERGENCE OF RESIDUAL NORM REACHED ***

Storing the converged CI vectors               ... optpbed3-b2plyp-test-201_job2.cis1

                 *** DAVIDSON DONE ***

Total time for solving the CIS problem:  6269.630sec

------------------
DOUBLES CORRECTION (Double precision version)
------------------

The (D) correction will be scaled by  0.2700
Doing v(i,a)*T(i,a) terms (RI)                    ... ok
Doing u(i,j,a,b) terms for state   0              ... ok
Doing u(i,j,a,b) terms for state   1              ... ok
Doing u(i,j,a,b) terms for state   2              ... ok
Doing u(i,j,a,b) terms for state   3              ... ok
Doing u(i,j,a,b) terms for state   4              ... ok
Doing u(i,j,a,b) terms for state   5              ... ok
Doing u(i,j,a,b) terms for state   6              ... ok
Doing u(i,j,a,b) terms for state   7              ... ok
Doing u(i,j,a,b) terms for state   8              ... ok
Doing u(i,j,a,b) terms for state   9              ... ok

Contributions to the (D) correction(s) (in eV)

STATE  Final   Init.   Total   v(ext)   v(int)  v(3)    u
       omega   omega     (D)                             
-----------------------------------------------------------------------------
   0   4.146   4.334  -0.188   0.574   1.014  -0.045  -1.732
   1   4.604   5.009  -0.405   0.488   0.978  -0.028  -1.843
   2   4.745   5.149  -0.404   0.491   0.962  -0.027  -1.831
   3   5.039   5.215  -0.176   0.518   0.969  -0.063  -1.600
   4   4.925   5.327  -0.402   0.475   0.937  -0.028  -1.787
   5   4.945   5.338  -0.393   0.467   0.939  -0.027  -1.772
   6   5.328   5.507  -0.178   0.081   1.009  -0.004  -1.264
   7   5.523   5.708  -0.185   0.073   0.996  -0.005  -1.249
   8   5.035   5.827  -0.792   0.534   0.988  -0.006  -2.308
   9   5.727   5.901  -0.174   0.038   1.021  -0.001  -1.232

(D)-timings
 V(i,a)*T(i,a) terms           ...  2180.023 sec
 U(i,j,a,b) 3-internal         ...    25.387 sec
 U(i,j,a,b) 3-external         ...   651.469 sec
 U(i,j,a,b) pair terms         ...  1136.089 sec
 Total measured time           ...  8583.717 sec

 Time for (ab|v) I/O           ...   196.114 sec


------------------------------------
TD-DFT/TDA EXCITED STATES (SINGLETS)
------------------------------------

the weight of the individual excitations are printed if larger than 1.0e-02

STATE  1:  E=   0.152374 au      4.146 eV    33442.3 cm**-1 <S**2> =   0.000000
    79a ->  84a  :     0.046966 (c=  0.21671659)
    80a ->  81a  :     0.907833 (c= -0.95280249)

STATE  2:  E=   0.169188 au      4.604 eV    37132.5 cm**-1 <S**2> =   0.000000
    74a ->  87a  :     0.016038 (c=  0.12664267)
    75a ->  84a  :     0.022880 (c= -0.15126069)
    76a ->  81a  :     0.147168 (c=  0.38362520)
    78a ->  81a  :     0.088834 (c=  0.29804991)
    79a ->  88a  :     0.028267 (c= -0.16812661)
    79a ->  93a  :     0.015486 (c= -0.12444278)
    80a ->  83a  :     0.020133 (c= -0.14189110)
    80a ->  87a  :     0.558504 (c=  0.74733151)
    80a ->  91a  :     0.015796 (c=  0.12568153)

STATE  3:  E=   0.174376 au      4.745 eV    38271.0 cm**-1 <S**2> =   0.000000
    73a ->  87a  :     0.012619 (c=  0.11233462)
    74a ->  93a  :     0.015585 (c=  0.12483942)
    75a ->  81a  :     0.248878 (c= -0.49887644)
    77a ->  81a  :     0.047292 (c= -0.21746818)
    78a ->  84a  :     0.032085 (c=  0.17912301)
    79a ->  87a  :     0.073169 (c= -0.27049717)
    80a ->  82a  :     0.022939 (c=  0.15145640)
    80a ->  85a  :     0.030763 (c=  0.17539251)
    80a ->  88a  :     0.278460 (c=  0.52769352)
    80a ->  93a  :     0.138440 (c=  0.37207542)
    80a -> 103a  :     0.015013 (c=  0.12252824)

STATE  4:  E=   0.185182 au      5.039 eV    40642.7 cm**-1 <S**2> =   0.000000
    74a ->  84a  :     0.012608 (c=  0.11228516)
    75a ->  87a  :     0.011549 (c= -0.10746821)
    76a ->  93a  :     0.010285 (c=  0.10141349)
    78a ->  88a  :     0.016030 (c=  0.12661131)
    79a ->  81a  :     0.445559 (c=  0.66750219)
    80a ->  84a  :     0.426363 (c= -0.65296493)

STATE  5:  E=   0.181004 au      4.925 eV    39725.7 cm**-1 <S**2> =   0.000000
    74a ->  90a  :     0.031787 (c= -0.17828963)
    75a ->  84a  :     0.010984 (c=  0.10480578)
    76a ->  81a  :     0.096916 (c= -0.31131268)
    77a ->  84a  :     0.117364 (c= -0.34258457)
    78a ->  81a  :     0.093664 (c=  0.30604645)
    78a ->  97a  :     0.015532 (c= -0.12462636)
    79a ->  82a  :     0.010347 (c= -0.10171967)
    79a ->  88a  :     0.119142 (c= -0.34516889)
    79a ->  93a  :     0.060648 (c=  0.24626752)
    80a ->  83a  :     0.019998 (c=  0.14141268)
    80a ->  90a  :     0.256500 (c=  0.50645788)
    80a ->  91a  :     0.031929 (c= -0.17868742)
    80a ->  93a  :     0.010632 (c=  0.10310947)

STATE  6:  E=   0.181718 au      4.945 eV    39882.4 cm**-1 <S**2> =   0.000000
    74a ->  88a  :     0.034602 (c=  0.18601724)
    75a ->  81a  :     0.109105 (c= -0.33031041)
    76a ->  84a  :     0.062673 (c=  0.25034630)
    77a ->  81a  :     0.114479 (c=  0.33834748)
    77a ->  97a  :     0.019004 (c= -0.13785348)
    78a ->  84a  :     0.054851 (c= -0.23420303)
    79a ->  90a  :     0.139641 (c=  0.37368567)
    79a ->  91a  :     0.020236 (c= -0.14225170)
    80a ->  82a  :     0.061838 (c= -0.24867290)
    80a ->  88a  :     0.071179 (c= -0.26679302)
    80a ->  90a  :     0.012309 (c= -0.11094814)
    80a ->  93a  :     0.177068 (c=  0.42079476)

STATE  7:  E=   0.195805 au      5.328 eV    42974.2 cm**-1 <S**2> =   0.000000
    77a ->  81a  :     0.032106 (c=  0.17918031)
    78a ->  84a  :     0.016039 (c= -0.12664640)
    79a ->  83a  :     0.033805 (c= -0.18386153)
    79a ->  91a  :     0.012574 (c= -0.11213170)
    80a ->  82a  :     0.683255 (c=  0.82659217)
    80a ->  85a  :     0.080071 (c=  0.28296868)
    80a ->  88a  :     0.029856 (c= -0.17278824)
    80a -> 100a  :     0.028826 (c=  0.16978348)

STATE  8:  E=   0.202954 au      5.523 eV    44543.3 cm**-1 <S**2> =   0.000000
    76a ->  81a  :     0.057197 (c=  0.23915886)
    79a ->  82a  :     0.119244 (c= -0.34531713)
    79a ->  85a  :     0.011779 (c=  0.10853049)
    79a -> 100a  :     0.011138 (c= -0.10553789)
    80a ->  83a  :     0.653584 (c=  0.80844556)
    80a ->  91a  :     0.054097 (c=  0.23258798)
    80a -> 101a  :     0.017252 (c=  0.13134818)

STATE  9:  E=   0.185016 au      5.035 eV    40606.4 cm**-1 <S**2> =   0.000000
    74a ->  84a  :     0.031157 (c=  0.17651263)
    79a ->  81a  :     0.443305 (c=  0.66581119)
    79a ->  97a  :     0.016936 (c=  0.13013756)
    80a ->  84a  :     0.460521 (c=  0.67861691)

STATE 10:  E=   0.210463 au      5.727 eV    46191.3 cm**-1 <S**2> =   0.000000
    79a ->  89a  :     0.028722 (c= -0.16947578)
    80a ->  86a  :     0.893387 (c= -0.94519146)
    80a ->  92a  :     0.037933 (c=  0.19476469)


-----------------------------
TD-DFT/TDA-EXCITATION SPECTRA
-----------------------------

Center of mass = ( -0.0000, -0.0001,  0.0743)
Calculating the Dipole integrals                  ... done
Transforming integrals                            ... done
Calculating the Linear Momentum integrals         ... done
Transforming integrals                            ... done
Calculating angular momentum integrals            ... done
Transforming integrals                            ... done

-----------------------------------------------------------------------------
         ABSORPTION SPECTRUM VIA TRANSITION ELECTRIC DIPOLE MOMENTS
-----------------------------------------------------------------------------
State   Energy    Wavelength  fosc         T2        TX        TY        TZ  
        (cm-1)      (nm)                 (au**2)    (au)      (au)      (au) 
-----------------------------------------------------------------------------
   1   33442.3    299.0   1.835088461  18.06496  -4.25006  -0.03938  -0.01949
   2   37132.5    269.3   0.000365352   0.00324   0.00042  -0.05646   0.00714
   3   38271.0    261.3   0.000791632   0.00681  -0.00051   0.01533   0.08108
   4   40642.7    246.0   0.000063538   0.00051  -0.02261  -0.00052  -0.00176
   5   39725.7    251.7   0.000072920   0.00060  -0.00006  -0.01521   0.01931
   6   39882.4    250.7   0.000250707   0.00207  -0.00059   0.01196   0.04389
   7   42974.2    232.7   0.000288543   0.00221   0.00028   0.00803   0.04632
   8   44543.3    224.5   0.005575293   0.04121  -0.00207   0.19837  -0.04304
   9   40606.4    246.3   0.000000344   0.00000   0.00142  -0.00042  -0.00076
  10   46191.3    216.5   0.000001040   0.00001  -0.00271   0.00015  -0.00025

-----------------------------------------------------------------------------
         ABSORPTION SPECTRUM VIA TRANSITION VELOCITY DIPOLE MOMENTS
-----------------------------------------------------------------------------
State   Energy    Wavelength   fosc        P2         PX        PY        PZ  
        (cm-1)      (nm)                 (au**2)     (au)      (au)      (au) 
-----------------------------------------------------------------------------
   1   33442.3    299.0   1.288460499   0.29449   0.54264   0.00503   0.00251
   2   37132.5    269.3   0.000329020   0.00008   0.00010  -0.00886   0.00222
   3   38271.0    261.3   0.002482175   0.00065   0.00019  -0.00510  -0.02496
   4   40642.7    246.0   0.000060560   0.00002   0.00410   0.00001   0.00014
   5   39725.7    251.7   0.000206602   0.00006   0.00009  -0.00696  -0.00277
   6   39882.4    250.7   0.001144734   0.00031   0.00013  -0.00196  -0.01755
   7   42974.2    232.7   0.000171314   0.00005   0.00000  -0.00113  -0.00700
   8   44543.3    224.5   0.002737066   0.00083   0.00028  -0.02831   0.00563
   9   40606.4    246.3   0.000000201   0.00000  -0.00023   0.00002   0.00004
  10   46191.3    216.5   0.000000549   0.00000   0.00041   0.00001   0.00003

-------------------------------------------------------------------
                             CD SPECTRUM
-------------------------------------------------------------------
State  Energy     Wavelength     R         MX        MY        MZ   
       (cm-1)       (nm)     (1e40*cgs)   (au)      (au)      (au)  
-------------------------------------------------------------------
   1   33442.3    299.0    -37.23369   0.01857   0.00162  -0.00004
   2   37132.5    269.3      1.33783   0.00037  -0.04907   0.00936
   3   38271.0    261.3      0.17666  -0.00011   0.00642   0.00341
   4   40642.7    246.0     -0.00298   0.00027   0.00028   0.00004
   5   39725.7    251.7      1.70549   0.00158  -0.19047   0.03728
   6   39882.4    250.7     -0.23234  -0.00022   0.03447  -0.02063
   7   42974.2    232.7      2.18351  -0.00065   0.02164   0.09623
   8   44543.3    224.5    -18.15064   0.00138  -0.18621   0.03623
   9   40606.4    246.3      0.00021   0.00021   0.00010  -0.00026
  10   46191.3    216.5     -0.00038   0.00026  -0.00026   0.00029

-------------------------------------------------------------------
         CD SPECTRUM VIA TRANSITION VELOCITY DIPOLE MOMENTS        
-------------------------------------------------------------------
State  Energy     Wavelength     R         MX        MY        MZ   
       (cm-1)       (nm)     (1e40*cgs)   (au)      (au)      (au)  
-------------------------------------------------------------------
   1   33442.3    299.0     31.19917   0.01857   0.00162  -0.00004
   2   37132.5    269.3      1.27001   0.00037  -0.04907   0.00936
   3   38271.0    261.3     -0.31855  -0.00011   0.00642   0.00341
   4   40642.7    246.0      0.00284   0.00027   0.00028   0.00004
   5   39725.7    251.7      3.18188   0.00158  -0.19047   0.03728
   6   39882.4    250.7      0.76377  -0.00022   0.03447  -0.02063
   7   42974.2    232.7     -1.68145  -0.00065   0.02164   0.09623
   8   44543.3    224.5     12.72032   0.00138  -0.18621   0.03623
   9   40606.4    246.3     -0.00014   0.00021   0.00010  -0.00026
  10   46191.3    216.5      0.00025   0.00026  -0.00026   0.00029

Total run time:    14868.919 sec

           *** ORCA-CIS/TD-DFT FINISHED WITHOUT ERROR ***

Maximum memory used throughout the entire CIS-calculation: 2267.2 MB

-----------------------
CIS/TD-DFT TOTAL ENERGY
-----------------------

    E(SCF)  =   -923.692417458 Eh
    DE(CIS) =      0.152374142 Eh (Root  1)
    ----------------------------- ---------
    E(tot)  =   -923.540043316 Eh



-------------------------------------------------------------------------------
                          DFT DISPERSION CORRECTION                            
                                                                               
                              DFTD3 V3.1  Rev 1                                
                          USING Becke-Johnson damping                          
-------------------------------------------------------------------------------
The B2PLYP functional is recognized
Active option DFTDOPT                   ...         4   

molecular C6(AA) [au] = 23069.419893 


            DFT-D V3
 parameters
 s6 scaling factor         :     0.6400 
 a1 scaling factor         :     0.3065 
 s8 scaling factor         :     0.9147 
 a2 scaling factor         :     5.0570 
 ad hoc parameters k1-k3   :    16.0000     1.3333    -4.0000 

 Edisp/kcal,au: -28.822984933312  -0.045932345327 
 E6   /kcal   : -16.022042697 
 E8   /kcal   : -12.800942236 
 % E8         :  44.412271199 

-------------------------   ----------------
Dispersion correction           -0.045932345
-------------------------   ----------------


-------------------------   --------------------
FINAL SINGLE POINT ENERGY      -923.585975660923
-------------------------   --------------------


                            ***************************************
                            *     ORCA property calculations      *
                            ***************************************


  WARNING: The energy has been calculated at the MP2 level but the densities
           used in the property calculations are still SCF densities
           MP2 response densities have not been calculated 
           use %mp2 Density relaxed end
           or  %mp2 Density unrelaxed end

                                    ---------------------
                                    Active property flags
                                    ---------------------
   (+) Dipole Moment


------------------------------------------------------------------------------
                       ORCA ELECTRIC PROPERTIES CALCULATION
------------------------------------------------------------------------------

Dipole Moment Calculation                       ... on
Quadrupole Moment Calculation                   ... off
Polarizability Calculation                      ... off
GBWName                                         ... optpbed3-b2plyp-test-201_job2.gbw
Electron density                                ... optpbed3-b2plyp-test-201_job2.scfp
The origin for moment calculation is the CENTER OF MASS  = (-0.000045, -0.000077  0.074333)

-------------
DIPOLE MOMENT
-------------
                                X             Y             Z
Electronic contribution:     -0.00049      -0.00106      -0.00501
Nuclear contribution   :      0.00051       0.00134       0.00515
                        -----------------------------------------
Total Dipole Moment    :      0.00003       0.00029       0.00014
                        -----------------------------------------
Magnitude (a.u.)       :      0.00032
Magnitude (Debye)      :      0.00081



--------------------
Rotational spectrum 
--------------------
 
Rotational constants in cm-1:     0.048332     0.002242     0.002161 
Rotational constants in MHz :  1448.957120    67.201349    64.781617 

 Dipole components along the rotational axes: 
x,y,z [a.u.] :     0.000030    -0.000195     0.000251 
x,y,z [Debye]:     0.000076    -0.000495     0.000637 

 

Timings for individual modules:

Sum of individual times         ...    21031.144 sec (= 350.519 min)
GTO integral calculation        ...        9.938 sec (=   0.166 min)   0.0 %
SCF iterations                  ...     3311.502 sec (=  55.192 min)  15.7 %
MP2 module                      ...     2839.219 sec (=  47.320 min)  13.5 %
CIS module                      ...    14870.486 sec (= 247.841 min)  70.7 %



                             ****ORCA TERMINATED NORMALLY****
TOTAL RUN TIME: 0 days 10 hours 5 minutes 27 seconds 209 msec
