
                                 *****************
                                 * O   R   C   A *
                                 *****************

                                            #,                                       
                                            ###                                      
                                            ####                                     
                                            #####                                    
                                            ######                                   
                                           ########,                                 
                                     ,,################,,,,,                         
                               ,,#################################,,                 
                          ,,##########################################,,             
                       ,#########################################, ''#####,          
                    ,#############################################,,   '####,        
                  ,##################################################,,,,####,       
                ,###########''''           ''''###############################       
              ,#####''   ,,,,##########,,,,          '''####'''          '####       
            ,##' ,,,,###########################,,,                        '##       
           ' ,,###''''                  '''############,,,                           
         ,,##''                                '''############,,,,        ,,,,,,###''
      ,#''                                            '''#######################'''  
     '                                                          ''''####''''         
             ,#######,   #######,   ,#######,      ##                                
            ,#'     '#,  ##    ##  ,#'     '#,    #''#        ######   ,####,        
            ##       ##  ##   ,#'  ##            #'  '#       #        #'  '#        
            ##       ##  #######   ##           ,######,      #####,   #    #        
            '#,     ,#'  ##    ##  '#,     ,#' ,#      #,         ##   #,  ,#        
             '#######'   ##     ##  '#######'  #'      '#     #####' # '####'        



                  #######################################################
                  #                        -***-                        #
                  #          Department of theory and spectroscopy      #
                  #    Directorship and core code : Frank Neese         #
                  #        Max Planck Institute fuer Kohlenforschung    #
                  #                Kaiser Wilhelm Platz 1               #
                  #                 D-45470 Muelheim/Ruhr               #
                  #                      Germany                        #
                  #                                                     #
                  #                  All rights reserved                #
                  #                        -***-                        #
                  #######################################################


                         Program Version 5.0.2 -  RELEASE  -


 With contributions from (in alphabetic order):
   Daniel Aravena         : Magnetic Suceptibility
   Michael Atanasov       : Ab Initio Ligand Field Theory (pilot matlab implementation)
   Alexander A. Auer      : GIAO ZORA, VPT2 properties, NMR spectrum
   Ute Becker             : Parallelization
   Giovanni Bistoni       : ED, misc. LED, open-shell LED, HFLD
   Martin Brehm           : Molecular dynamics
   Dmytro Bykov           : SCF Hessian
   Vijay G. Chilkuri      : MRCI spin determinant printing, contributions to CSF-ICE
   Dipayan Datta          : RHF DLPNO-CCSD density
   Achintya Kumar Dutta   : EOM-CC, STEOM-CC
   Dmitry Ganyushin       : Spin-Orbit,Spin-Spin,Magnetic field MRCI
   Miquel Garcia          : C-PCM and meta-GGA Hessian, CC/C-PCM, Gaussian charge scheme
   Yang Guo               : DLPNO-NEVPT2, F12-NEVPT2, CIM, IAO-localization
   Andreas Hansen         : Spin unrestricted coupled pair/coupled cluster methods
   Benjamin Helmich-Paris : MC-RPA, TRAH-SCF, COSX integrals
   Lee Huntington         : MR-EOM, pCC
   Robert Izsak           : Overlap fitted RIJCOSX, COSX-SCS-MP3, EOM
   Marcus Kettner         : VPT2
   Christian Kollmar      : KDIIS, OOCD, Brueckner-CCSD(T), CCSD density, CASPT2, CASPT2-K
   Simone Kossmann        : Meta GGA functionals, TD-DFT gradient, OOMP2, MP2 Hessian
   Martin Krupicka        : Initial AUTO-CI
   Lucas Lang             : DCDCAS
   Marvin Lechner         : AUTO-CI (C++ implementation), FIC-MRCC
   Dagmar Lenk            : GEPOL surface, SMD
   Dimitrios Liakos       : Extrapolation schemes; Compound Job, initial MDCI parallelization
   Dimitrios Manganas     : Further ROCIS development; embedding schemes
   Dimitrios Pantazis     : SARC Basis sets
   Anastasios Papadopoulos: AUTO-CI, single reference methods and gradients
   Taras Petrenko         : DFT Hessian,TD-DFT gradient, ASA, ECA, R-Raman, ABS, FL, XAS/XES, NRVS
   Peter Pinski           : DLPNO-MP2, DLPNO-MP2 Gradient
   Christoph Reimann      : Effective Core Potentials
   Marius Retegan         : Local ZFS, SOC
   Christoph Riplinger    : Optimizer, TS searches, QM/MM, DLPNO-CCSD(T), (RO)-DLPNO pert. Triples
   Tobias Risthaus        : Range-separated hybrids, TD-DFT gradient, RPA, STAB
   Michael Roemelt        : Original ROCIS implementation
   Masaaki Saitow         : Open-shell DLPNO-CCSD energy and density
   Barbara Sandhoefer     : DKH picture change effects
   Avijit Sen             : IP-ROCIS
   Kantharuban Sivalingam : CASSCF convergence, NEVPT2, FIC-MRCI
   Bernardo de Souza      : ESD, SOC TD-DFT
   Georgi Stoychev        : AutoAux, RI-MP2 NMR, DLPNO-MP2 response
   Willem Van den Heuvel  : Paramagnetic NMR
   Boris Wezisla          : Elementary symmetry handling
   Frank Wennmohs         : Technical directorship


 We gratefully acknowledge several colleagues who have allowed us to
 interface, adapt or use parts of their codes:
   Stefan Grimme, W. Hujo, H. Kruse, P. Pracht,  : VdW corrections, initial TS optimization,
                  C. Bannwarth, S. Ehlert          DFT functionals, gCP, sTDA/sTD-DF
   Ed Valeev, F. Pavosevic, A. Kumar             : LibInt (2-el integral package), F12 methods
   Garnet Chan, S. Sharma, J. Yang, R. Olivares  : DMRG
   Ulf Ekstrom                                   : XCFun DFT Library
   Mihaly Kallay                                 : mrcc  (arbitrary order and MRCC methods)
   Jiri Pittner, Ondrej Demel                    : Mk-CCSD
   Frank Weinhold                                : gennbo (NPA and NBO analysis)
   Christopher J. Cramer and Donald G. Truhlar   : smd solvation model
   Lars Goerigk                                  : TD-DFT with DH, B97 family of functionals
   V. Asgeirsson, H. Jonsson                     : NEB implementation
   FAccTs GmbH                                   : IRC, NEB, NEB-TS, DLPNO-Multilevel, CI-OPT
                                                   MM, QMMM, 2- and 3-layer-ONIOM, Crystal-QMMM,
                                                   LR-CPCM, SF, NACMEs, symmetry and pop. for TD-DFT,
                                                   nearIR, NL-DFT gradient (VV10), updates on ESD,
                                                   ML-optimized integration grids
   S Lehtola, MJT Oliveira, MAL Marques          : LibXC Library
   Liviu Ungur et al                             : ANISO software


 Your calculation uses the libint2 library for the computation of 2-el integrals
 For citations please refer to: http://libint.valeyev.net

 Your ORCA version has been built with support for libXC version: 5.1.0
 For citations please refer to: https://tddft.org/programs/libxc/

 This ORCA versions uses:
   CBLAS   interface :  Fast vector & matrix operations
   LAPACKE interface :  Fast linear algebra routines
   SCALAPACK package :  Parallel linear algebra routines
   Shared memory     :  Shared parallel matrices
   BLAS/LAPACK       :  OpenBLAS 0.3.15  USE64BITINT DYNAMIC_ARCH NO_AFFINITY Haswell SINGLE_THREADED
        Core in use  :  Haswell
   Copyright (c) 2011-2014, The OpenBLAS Project


Your calculation utilizes the atom-pairwise dispersion correction
with the Becke-Johnson damping scheme (D3BJ)
Cite in your paper:
S.Grimme, S.Ehrlich, L.Goerigk, J Comput Chem, (2011), 32, 1456–1465 
S.Grimme, J.Antony, S.Ehrlich and H.Krieg, J.Chem.Phys., 132, (2010), 154104 
   

Your calculation utilizes the SMD solvation module
Please cite in your paper:
A.V. Marenich, C.J. Cramer, D.G. Truhlar J. Phys. Chem. B, 113, (2009), 6378 

================================================================================

----- Orbital basis set information -----
Your calculation utilizes the basis: aug-cc-pVTZ 
    H, B-Ne : Obtained from the ccRepo (grant-hill.group.shef.ac.uk/ccrepo) Feb. 2017
              R. A. Kendall, T. H. Dunning, Jr., R. J. Harrison, J. Chem. Phys. 96, 6796 (1992)
         He : Obtained from the ccRepo (grant-hill.group.shef.ac.uk/ccrepo) Feb. 2017
              D. E. Woon, T. H. Dunning, Jr., J. Chem. Phys. 100, 2975 (1994)
  Li-Be, Na : Obtained from the ccRepo (grant-hill.group.shef.ac.uk/ccrepo) Feb. 2017
              B. P. Prascher, D. E. Woon, K. A. Peterson, T. H. Dunning, Jr., A. K. Wilson, Theor. Chem. Acc. 128, 69 (2011)
         Mg : Obtained from the Peterson Research Group Website (tyr0.chem.wsu.edu/~kipeters) Feb. 2017
              B. P. Prascher, D. E. Woon, K. A. Peterson, T. H. Dunning, Jr., A. K. Wilson, Theor. Chem. Acc. 128, 69 (2011)
      Al-Ar : Obtained from the ccRepo (grant-hill.group.shef.ac.uk/ccrepo) Feb. 2017
              D. E. Woon, T. H. Dunning, Jr., J. Chem. Phys. 98, 1358 (1993)
      Sc-Zn : Obtained from the ccRepo (grant-hill.group.shef.ac.uk/ccrepo) Feb. 2017
              N. B. Balabanov, K. A. Peterson, J. Chem. Phys. 123, 064107 (2005)
              N. B. Balabanov, K. A. Peterson, J. Chem. Phys. 125, 074110 (2006)
      Ga-Kr : Obtained from the ccRepo (grant-hill.group.shef.ac.uk/ccrepo) Feb. 2017
              A. K. Wilson, D. E. Woon, K. A. Peterson, T. H. Dunning, Jr., J. Chem. Phys. 110, 7667 (1999)
     Ag, Au : Obtained from the Peterson Research Group Website (tyr0.chem.wsu.edu/~kipeters) Feb. 2017
              K. A. Peterson, C. Puzzarini, Theor. Chem. Acc. 114, 283 (2005)

The basis set includes element-specific modifications.

Your calculation utilizes the basis: cc-pVTZ 
       H, B-Ne : Obtained from the ccRepo (grant-hill.group.shef.ac.uk/ccrepo) Feb. 2017
                 T. H. Dunning, Jr., J. Chem. Phys. 90, 1007 (1989)
            He : Obtained from the ccRepo (grant-hill.group.shef.ac.uk/ccrepo) Feb. 2017
                 D. E. Woon, T. H. Dunning, Jr., J. Chem. Phys. 100, 2975 (1994)
  Li-Be, Na-Mg : Obtained from the ccRepo (grant-hill.group.shef.ac.uk/ccrepo) Feb. 2017
                 B. P. Prascher, D. E. Woon, K. A. Peterson, T. H. Dunning, Jr., A. K. Wilson, Theor. Chem. Acc. 128, 69 (2011)
         Al-Ar : Obtained from the ccRepo (grant-hill.group.shef.ac.uk/ccrepo) Feb. 2017
                 D. E. Woon, T. H. Dunning, Jr., J. Chem. Phys. 98, 1358 (1993)
            Ca : Obtained from the Peterson Research Group Website (tyr0.chem.wsu.edu/~kipeters) Feb. 2017
                 J. Koput, K. A. Peterson, J. Phys. Chem. 106, 9595 (2002)
         Sc-Zn : Obtained from the ccRepo (grant-hill.group.shef.ac.uk/ccrepo) Feb. 2017
                 N. B. Balabanov, K. A. Peterson, J. Chem. Phys. 123, 064107 (2005)
                 N. B. Balabanov, K. A. Peterson, J. Chem. Phys. 125, 074110 (2006)
         Ga-Kr : Obtained from the ccRepo (grant-hill.group.shef.ac.uk/ccrepo) Feb. 2017
                 A. K. Wilson, D. E. Woon, K. A. Peterson, T. H. Dunning, Jr., J. Chem. Phys. 110, 7667 (1999)
             Y : Obtained from the ccRepo (grant-hill.group.shef.ac.uk/ccrepo) Feb. 2017
                 K. A. Peterson, D. Figgen, M. Dolg, H. Stoll, J. Chem. Phys. 126, 124101 (2007)
        Ag, Au : Obtained from the Peterson Research Group Website (tyr0.chem.wsu.edu/~kipeters) Feb. 2017
                 K. A. Peterson, C. Puzzarini, Theor. Chem. Acc. 114, 283 (2005)

----- AuxJ basis set information -----
Your calculation utilizes the auxiliary basis: aug-cc-pVTZ/JK 
  H, B-F, Al-Cl, Ga-Br : Obtained from the TURBOMOLE 7.0 basis set library

The basis set includes element-specific modifications.

Your calculation utilizes the auxiliary basis: cc-pVTZ/JK 
  H, B-F, Al-Cl, Ga-Br : Obtained from the TURBOMOLE 7.0 basis set library

----- AuxC basis set information -----
Your calculation utilizes the auxiliary basis: aug-cc-pVTZ/C 
  H-He, B-F, Al-Ar, Ga-Kr : Obtained from the EMSL Basis Set Exchange (bse.pnl.gov) Feb. 2017
                            F. Weigend, A. Kohn, C. Hattig, J. Chem. Phys. 116, 3175 (2002)
                   Be, Mg : Obtained from the TURBOMOLE 7.0 basis set library
                            C. Haettig, Phys. Chem. Chem. Phys. 7, 59 (2005)
                       Ne : Obtained from the EMSL Basis Set Exchange (bse.pnl.gov) Feb. 2017
                            C. Haettig, Phys. Chem. Chem. Phys. 7, 59 (2005)
                            F. Weigend, A. Kohn, C. Hattig, J. Chem. Phys. 116, 3175 (2002)
                    Sc-Zn : Obtained from the EMSL Basis Set Exchange (bse.pnl.gov) Feb. 2017
                            J. G. Hill, J. A. Platts, J. Chem. Phys. 128, 044104 (2008)

The basis set includes element-specific modifications.

Your calculation utilizes the auxiliary basis: cc-pVTZ/C 
  Obtained from the EMSL Basis Set Exchange (bse.pnl.gov) Feb. 2017
  H-He, B-F, Al-Ar, Ga-Kr : F. Weigend, A. Kohn, C. Hattig, J. Chem. Phys. 116, 3175 (2002)
             Li-Be, Na-Mg : C. Haettig, Phys. Chem. Chem. Phys. 7, 59 (2005)
                       Ne : C. Haettig, Phys. Chem. Chem. Phys. 7, 59 (2005)
                            F. Weigend, A. Kohn, C. Hattig, J. Chem. Phys. 116, 3175 (2002)
                    Sc-Zn : J. G. Hill, J. A. Platts, J. Chem. Phys. 128, 044104 (2008)

================================================================================
                                        WARNINGS
                       Please study these warnings very carefully!
================================================================================


WARNING: Geometry Optimization
  ===> : Switching off AutoStart
         For restart on a previous wavefunction, please use MOREAD

INFO   : the flag for use of the SHARK integral package has been found!



***************************************
The coordinates will be read from file: 
***************************************


Your calculation utilizes the atom-pairwise dispersion correction
with the Becke-Johnson damping scheme (D3BJ)
Cite in your paper:
S.Grimme, S.Ehrlich, L.Goerigk, J Comput Chem, (2011), 32, 1456–1465 
S.Grimme, J.Antony, S.Ehrlich and H.Krieg, J.Chem.Phys., 132, (2010), 154104 
   

Your calculation utilizes the SMD solvation module
Please cite in your paper:
A.V. Marenich, C.J. Cramer, D.G. Truhlar J. Phys. Chem. B, 113, (2009), 6378 

================================================================================

----- Orbital basis set information -----
Your calculation utilizes the basis: aug-cc-pVTZ 
    H, B-Ne : Obtained from the ccRepo (grant-hill.group.shef.ac.uk/ccrepo) Feb. 2017
              R. A. Kendall, T. H. Dunning, Jr., R. J. Harrison, J. Chem. Phys. 96, 6796 (1992)
         He : Obtained from the ccRepo (grant-hill.group.shef.ac.uk/ccrepo) Feb. 2017
              D. E. Woon, T. H. Dunning, Jr., J. Chem. Phys. 100, 2975 (1994)
  Li-Be, Na : Obtained from the ccRepo (grant-hill.group.shef.ac.uk/ccrepo) Feb. 2017
              B. P. Prascher, D. E. Woon, K. A. Peterson, T. H. Dunning, Jr., A. K. Wilson, Theor. Chem. Acc. 128, 69 (2011)
         Mg : Obtained from the Peterson Research Group Website (tyr0.chem.wsu.edu/~kipeters) Feb. 2017
              B. P. Prascher, D. E. Woon, K. A. Peterson, T. H. Dunning, Jr., A. K. Wilson, Theor. Chem. Acc. 128, 69 (2011)
      Al-Ar : Obtained from the ccRepo (grant-hill.group.shef.ac.uk/ccrepo) Feb. 2017
              D. E. Woon, T. H. Dunning, Jr., J. Chem. Phys. 98, 1358 (1993)
      Sc-Zn : Obtained from the ccRepo (grant-hill.group.shef.ac.uk/ccrepo) Feb. 2017
              N. B. Balabanov, K. A. Peterson, J. Chem. Phys. 123, 064107 (2005)
              N. B. Balabanov, K. A. Peterson, J. Chem. Phys. 125, 074110 (2006)
      Ga-Kr : Obtained from the ccRepo (grant-hill.group.shef.ac.uk/ccrepo) Feb. 2017
              A. K. Wilson, D. E. Woon, K. A. Peterson, T. H. Dunning, Jr., J. Chem. Phys. 110, 7667 (1999)
     Ag, Au : Obtained from the Peterson Research Group Website (tyr0.chem.wsu.edu/~kipeters) Feb. 2017
              K. A. Peterson, C. Puzzarini, Theor. Chem. Acc. 114, 283 (2005)

The basis set includes element-specific modifications.

Your calculation utilizes the basis: cc-pVTZ 
       H, B-Ne : Obtained from the ccRepo (grant-hill.group.shef.ac.uk/ccrepo) Feb. 2017
                 T. H. Dunning, Jr., J. Chem. Phys. 90, 1007 (1989)
            He : Obtained from the ccRepo (grant-hill.group.shef.ac.uk/ccrepo) Feb. 2017
                 D. E. Woon, T. H. Dunning, Jr., J. Chem. Phys. 100, 2975 (1994)
  Li-Be, Na-Mg : Obtained from the ccRepo (grant-hill.group.shef.ac.uk/ccrepo) Feb. 2017
                 B. P. Prascher, D. E. Woon, K. A. Peterson, T. H. Dunning, Jr., A. K. Wilson, Theor. Chem. Acc. 128, 69 (2011)
         Al-Ar : Obtained from the ccRepo (grant-hill.group.shef.ac.uk/ccrepo) Feb. 2017
                 D. E. Woon, T. H. Dunning, Jr., J. Chem. Phys. 98, 1358 (1993)
            Ca : Obtained from the Peterson Research Group Website (tyr0.chem.wsu.edu/~kipeters) Feb. 2017
                 J. Koput, K. A. Peterson, J. Phys. Chem. 106, 9595 (2002)
         Sc-Zn : Obtained from the ccRepo (grant-hill.group.shef.ac.uk/ccrepo) Feb. 2017
                 N. B. Balabanov, K. A. Peterson, J. Chem. Phys. 123, 064107 (2005)
                 N. B. Balabanov, K. A. Peterson, J. Chem. Phys. 125, 074110 (2006)
         Ga-Kr : Obtained from the ccRepo (grant-hill.group.shef.ac.uk/ccrepo) Feb. 2017
                 A. K. Wilson, D. E. Woon, K. A. Peterson, T. H. Dunning, Jr., J. Chem. Phys. 110, 7667 (1999)
             Y : Obtained from the ccRepo (grant-hill.group.shef.ac.uk/ccrepo) Feb. 2017
                 K. A. Peterson, D. Figgen, M. Dolg, H. Stoll, J. Chem. Phys. 126, 124101 (2007)
        Ag, Au : Obtained from the Peterson Research Group Website (tyr0.chem.wsu.edu/~kipeters) Feb. 2017
                 K. A. Peterson, C. Puzzarini, Theor. Chem. Acc. 114, 283 (2005)

----- AuxJ basis set information -----
Your calculation utilizes the auxiliary basis: aug-cc-pVTZ/JK 
  H, B-F, Al-Cl, Ga-Br : Obtained from the TURBOMOLE 7.0 basis set library

The basis set includes element-specific modifications.

Your calculation utilizes the auxiliary basis: cc-pVTZ/JK 
  H, B-F, Al-Cl, Ga-Br : Obtained from the TURBOMOLE 7.0 basis set library

----- AuxC basis set information -----
Your calculation utilizes the auxiliary basis: aug-cc-pVTZ/C 
  H-He, B-F, Al-Ar, Ga-Kr : Obtained from the EMSL Basis Set Exchange (bse.pnl.gov) Feb. 2017
                            F. Weigend, A. Kohn, C. Hattig, J. Chem. Phys. 116, 3175 (2002)
                   Be, Mg : Obtained from the TURBOMOLE 7.0 basis set library
                            C. Haettig, Phys. Chem. Chem. Phys. 7, 59 (2005)
                       Ne : Obtained from the EMSL Basis Set Exchange (bse.pnl.gov) Feb. 2017
                            C. Haettig, Phys. Chem. Chem. Phys. 7, 59 (2005)
                            F. Weigend, A. Kohn, C. Hattig, J. Chem. Phys. 116, 3175 (2002)
                    Sc-Zn : Obtained from the EMSL Basis Set Exchange (bse.pnl.gov) Feb. 2017
                            J. G. Hill, J. A. Platts, J. Chem. Phys. 128, 044104 (2008)

The basis set includes element-specific modifications.

Your calculation utilizes the auxiliary basis: cc-pVTZ/C 
  Obtained from the EMSL Basis Set Exchange (bse.pnl.gov) Feb. 2017
  H-He, B-F, Al-Ar, Ga-Kr : F. Weigend, A. Kohn, C. Hattig, J. Chem. Phys. 116, 3175 (2002)
             Li-Be, Na-Mg : C. Haettig, Phys. Chem. Chem. Phys. 7, 59 (2005)
                       Ne : C. Haettig, Phys. Chem. Chem. Phys. 7, 59 (2005)
                            F. Weigend, A. Kohn, C. Hattig, J. Chem. Phys. 116, 3175 (2002)
                    Sc-Zn : J. G. Hill, J. A. Platts, J. Chem. Phys. 128, 044104 (2008)

================================================================================
                                        WARNINGS
                       Please study these warnings very carefully!
================================================================================

INFO   : Checking CIS options ...
  ===> : (D) CORRECTION FOUND - SETTING MODE=3
  ===> : JK MODE FOUND - ACTIVATING RI-MP2 CODE
  ===> : MP2 AND CIS FOUND - CHECKING
WARNING: CIS(D) and MP2 runs must have the same orbital window
  ===> : adjusting orbital windows

WARNING: No MP2 level density has been requested!
         To caclulate MP2 level properties use
         %mp2 Density relaxed end
         or
         %mp2 Density unrelaxed end
         Otherwise for double-hybrid DFT only the energy is correct!

WARNING: The frozen-core approximation is turned on by default for 
         the MP2 part of double-hybrid DFT.

INFO   : the flag for use of the SHARK integral package has been found!

================================================================================
                                       INPUT FILE
================================================================================
NAME = optpbed3-b2plyp-test-615.inp
|  1> ! pbe0 d3bj aug-cc-PVTZ RIJCOSX Opt
|  2> %maxcore 4000
|  3> %basis
|  4>  AuxJ "aug-cc-PVTZ/JK"
|  5>  AuxC "aug-cc-PVTZ/C"
|  6>  newGTO H "cc-PVTZ" end
|  7>  newAuxJGTO H "cc-PVTZ/JK" end
|  8>  newAuxCGTO H "cc-PVTZ/C" end
|  9> end
| 10> %cpcm
| 11>  SMD true
| 12>  SMDsolvent "ethanol"
| 13> end
| 14> %pal nprocs 4 end
| 15> * xyz 0 1
| 16> N         -3.89400       -1.42580       -0.87780
| 17> C         -2.72920       -0.77450       -0.51670
| 18> C         -1.49710       -1.32830       -0.73430
| 19> C         -0.31650       -0.66480       -0.33880
| 20> N          0.86620       -1.22310       -0.57260
| 21> C          1.95170       -0.54270       -0.19820
| 22> C          3.23270       -1.09540       -0.42570
| 23> C          4.35130       -0.41240       -0.04640
| 24> Cl         5.91240       -1.08630       -0.32260
| 25> C          4.24700        0.85710        0.57830
| 26> Cl         5.68470        1.68580        1.04070
| 27> C          3.02610        1.41940        0.81230
| 28> C          1.84640        0.73960        0.43230
| 29> N          0.65900        1.30250        0.66600
| 30> C         -0.42230        0.62700        0.29230
| 31> C         -1.70450        1.16290        0.53590
| 32> C         -2.83700        0.48650        0.17270
| 33> N         -4.09810        1.01190        0.38440
| 34> H         -3.75480       -2.22610       -1.47590
| 35> H         -4.65180       -0.83050       -1.17590
| 36> H         -1.39910       -2.28140       -1.23100
| 37> H          3.29840       -2.06080       -0.90090
| 38> H          2.93320        2.38330        1.28590
| 39> H         -1.76670        2.11790        1.03480
| 40> H         -4.11640        1.81850        0.99020
| 41> H         -4.82130        0.33980        0.59120
| 42> *
| 43> 
| 44> 
| 45> $new_job
| 46> ! b2plyp aug-cc-PVTZ RIJCOSX SP
| 47> %maxcore 4000
| 48> %basis
| 49>  AuxJ "aug-cc-PVTZ/JK"
| 50>  AuxC "aug-cc-PVTZ/C"
| 51>  newGTO H "cc-PVTZ" end
| 52>  newAuxJGTO H "cc-PVTZ/JK" end
| 53>  newAuxCGTO H "cc-PVTZ/C" end
| 54> end
| 55> %cpcm
| 56>  SMD true
| 57>  SMDsolvent "ethanol"
| 58> end
| 59> %pal nprocs 4 end
| 60> %tddft
| 61>  nroots 10
| 62>  maxdim 7
| 63> end
| 64> * xyzfile 0 1
| 65> 
| 66>                          ****END OF INPUT****
================================================================================


                 $$$$$$$$$$$$$$$$$$$$$$$$$$$$$$$$$$$$$$$$$$$$$$ 
                 $ THERE ARE  2 JOBS TO BE PROCESSED THIS RUN $
                 $$$$$$$$$$$$$$$$$$$$$$$$$$$$$$$$$$$$$$$$$$$$$$ 




                 $$$$$$$$$$$$$$$$  JOB NUMBER  1 $$$$$$$$$$$$$$


                       *****************************
                       * Geometry Optimization Run *
                       *****************************

Geometry optimization settings:
Update method            Update   .... BFGS
Choice of coordinates    CoordSys .... Z-matrix Internals
Initial Hessian          InHess   .... Almoef's Model

Convergence Tolerances:
Energy Change            TolE     ....  5.0000e-06 Eh
Max. Gradient            TolMAXG  ....  3.0000e-04 Eh/bohr
RMS Gradient             TolRMSG  ....  1.0000e-04 Eh/bohr
Max. Displacement        TolMAXD  ....  4.0000e-03 bohr
RMS Displacement         TolRMSD  ....  2.0000e-03 bohr
Strict Convergence                ....  False
------------------------------------------------------------------------------
                        ORCA OPTIMIZATION COORDINATE SETUP
------------------------------------------------------------------------------

The optimization will be done in new redundant internal coordinates
Making redundant internal coordinates   ...  (new redundants) done
Evaluating the initial hessian          ...  (Almloef) done
Evaluating the coordinates              ...  done
Calculating the B-matrix                .... done
Calculating the G-matrix                .... done
Diagonalizing the G-matrix              .... done
Small eigenvalue found = 2.096e-02
The first mode is                       ....   64
The number of degrees of freedom        ....   72

    -----------------------------------------------------------------
                    Redundant Internal Coordinates


    -----------------------------------------------------------------
         Definition                    Initial Value    Approx d2E/dq
    -----------------------------------------------------------------
      1. B(C   1,N   0)                  1.3825         0.575201   
      2. B(C   2,C   1)                  1.3683         0.676761   
      3. B(C   3,C   2)                  1.4108         0.578749   
      4. B(N   4,C   3)                  1.3286         0.701225   
      5. B(C   5,N   4)                  1.3347         0.685646   
      6. B(C   6,C   5)                  1.4136         0.572962   
      7. B(C   7,C   6)                  1.3644         0.686374   
      8. B(Cl  8,C   7)                  1.7226         0.413087   
      9. B(C   9,C   7)                  1.4187         0.562240   
     10. B(Cl 10,C   9)                  1.7227         0.413053   
     11. B(C  11,C   9)                  1.3644         0.686456   
     12. B(C  12,C  11)                  1.4136         0.572943   
     13. B(C  12,C   5)                  1.4328         0.533895   
     14. B(N  13,C  12)                  1.3347         0.685682   
     15. B(C  14,C   3)                  1.4416         0.516897   
     16. B(C  14,N  13)                  1.3286         0.701205   
     17. B(C  15,C  14)                  1.4109         0.578675   
     18. B(C  16,C  15)                  1.3682         0.676877   
     19. B(C  16,C   1)                  1.4412         0.517698   
     20. B(N  17,C  16)                  1.3825         0.575284   
     21. B(H  18,N   0)                  1.0088         0.434697   
     22. B(H  19,N   0)                  1.0087         0.434755   
     23. B(H  20,C   2)                  1.0792         0.374648   
     24. B(H  21,C   6)                  1.0780         0.376301   
     25. B(H  22,C  11)                  1.0780         0.376364   
     26. B(H  23,C  15)                  1.0793         0.374596   
     27. B(H  24,N  17)                  1.0089         0.434418   
     28. B(H  25,N  17)                  1.0087         0.434758   
     29. A(C   1,N   0,H  18)          114.3526         0.354405   
     30. A(C   1,N   0,H  19)          115.6018         0.354413   
     31. A(H  18,N   0,H  19)          113.3691         0.303709   
     32. A(C   2,C   1,C  16)          119.8399         0.426899   
     33. A(N   0,C   1,C  16)          118.3021         0.412010   
     34. A(N   0,C   1,C   2)          121.7672         0.432204   
     35. A(C   3,C   2,H  20)          117.9279         0.351168   
     36. A(C   1,C   2,C   3)          121.2388         0.435533   
     37. A(C   1,C   2,H  20)          120.8248         0.360618   
     38. A(C   2,C   3,C  14)          118.8635         0.415029   
     39. A(C   2,C   3,N   4)          119.8654         0.435455   
     40. A(N   4,C   3,C  14)          121.2601         0.426705   
     41. A(C   3,N   4,C   5)          117.4132         0.446042   
     42. A(N   4,C   5,C   6)          119.5082         0.432915   
     43. A(C   6,C   5,C  12)          119.1663         0.416679   
     44. A(N   4,C   5,C  12)          121.3255         0.427461   
     45. A(C   5,C   6,C   7)          120.1645         0.435852   
     46. A(C   7,C   6,H  21)          121.3902         0.361758   
     47. A(C   5,C   6,H  21)          118.4453         0.350833   
     48. A(C   6,C   7,Cl  8)          120.1696         0.429676   
     49. A(Cl  8,C   7,C   9)          119.1621         0.414635   
     50. A(C   6,C   7,C   9)          120.6684         0.434372   
     51. A(Cl 10,C   9,C  11)          120.1671         0.429679   
     52. A(C   7,C   9,C  11)          120.6696         0.434381   
     53. A(C   7,C   9,Cl 10)          119.1633         0.414629   
     54. A(C   9,C  11,C  12)          120.1645         0.435858   
     55. A(C  12,C  11,H  22)          118.4373         0.350841   
     56. A(C   9,C  11,H  22)          121.3982         0.361775   
     57. A(C  11,C  12,N  13)          119.5090         0.432916   
     58. A(C   5,C  12,N  13)          121.3242         0.427466   
     59. A(C   5,C  12,C  11)          119.1667         0.416677   
     60. A(C  12,N  13,C  14)          117.4113         0.446044   
     61. A(N  13,C  14,C  15)          119.8649         0.435443   
     62. A(C   3,C  14,C  15)          118.8584         0.415020   
     63. A(C   3,C  14,N  13)          121.2654         0.426703   
     64. A(C  14,C  15,C  16)          121.2400         0.435537   
     65. A(C  16,C  15,H  23)          120.8278         0.360620   
     66. A(C  14,C  15,H  23)          117.9236         0.351152   
     67. A(C  15,C  16,N  17)          121.7709         0.432228   
     68. A(C   1,C  16,N  17)          118.2950         0.412020   
     69. A(C   1,C  16,C  15)          119.8434         0.426912   
     70. A(H  24,N  17,H  25)          113.3643         0.303678   
     71. A(C  16,N  17,H  25)          115.6061         0.354422   
     72. A(C  16,N  17,H  24)          114.3508         0.354375   
     73. D(C  16,C   1,N   0,H  19)     36.7661         0.026508   
     74. D(C  16,C   1,N   0,H  18)    171.1667         0.026508   
     75. D(C   2,C   1,N   0,H  18)    -12.3046         0.026508   
     76. D(C   2,C   1,N   0,H  19)   -146.7052         0.026508   
     77. D(C   3,C   2,C   1,C  16)     -2.3316         0.032081   
     78. D(H  20,C   2,C   1,N   0)      2.2717         0.032081   
     79. D(H  20,C   2,C   1,C  16)    178.7482         0.032081   
     80. D(C   3,C   2,C   1,N   0)   -178.8081         0.032081   
     81. D(C  14,C   3,C   2,H  20)    178.2657         0.023008   
     82. D(C  14,C   3,C   2,C   1)     -0.6848         0.023008   
     83. D(N   4,C   3,C   2,H  20)     -0.5434         0.023008   
     84. D(N   4,C   3,C   2,C   1)   -179.4938         0.023008   
     85. D(C   5,N   4,C   3,C  14)      0.1256         0.036835   
     86. D(C   5,N   4,C   3,C   2)    178.9055         0.036835   
     87. D(C   6,C   5,N   4,C   3)    179.9977         0.035068   
     88. D(C  12,C   5,N   4,C   3)      0.0444         0.035068   
     89. D(H  21,C   6,C   5,C  12)   -179.9983         0.022530   
     90. D(H  21,C   6,C   5,N   4)      0.0474         0.022530   
     91. D(C   7,C   6,C   5,C  12)      0.0607         0.022530   
     92. D(C   7,C   6,C   5,N   4)   -179.8936         0.022530   
     93. D(C   9,C   7,C   6,H  21)   -179.9800         0.033073   
     94. D(C   9,C   7,C   6,C   5)     -0.0408         0.033073   
     95. D(Cl  8,C   7,C   6,H  21)      0.0188         0.033073   
     96. D(Cl  8,C   7,C   6,C   5)    179.9581         0.033073   
     97. D(C  11,C   9,C   7,Cl  8)   -179.9767         0.021660   
     98. D(C  11,C   9,C   7,C   6)      0.0222         0.021660   
     99. D(Cl 10,C   9,C   7,Cl  8)      0.0275         0.021660   
    100. D(Cl 10,C   9,C   7,C   6)   -179.9736         0.021660   
    101. D(H  22,C  11,C   9,C   7)   -179.9877         0.033081   
    102. D(C  12,C  11,C   9,Cl 10)    179.9718         0.033081   
    103. D(C  12,C  11,C   9,C   7)     -0.0240         0.033081   
    104. D(H  22,C  11,C   9,Cl 10)      0.0081         0.033081   
    105. D(N  13,C  12,C  11,H  22)      0.0452         0.022528   
    106. D(C   5,C  12,C  11,H  22)   -179.9911         0.022528   
    107. D(C   5,C  12,C  11,C   9)      0.0442         0.022528   
    108. D(N  13,C  12,C   5,C   6)    179.9010         0.019464   
    109. D(N  13,C  12,C   5,N   4)     -0.1455         0.019464   
    110. D(N  13,C  12,C  11,C   9)   -179.9195         0.022528   
    111. D(C  11,C  12,C   5,C   6)     -0.0619         0.019464   
    112. D(C  11,C  12,C   5,N   4)    179.8916         0.019464   
    113. D(C  14,N  13,C  12,C  11)   -179.9785         0.035072   
    114. D(C  14,N  13,C  12,C   5)      0.0587         0.035072   
    115. D(C  15,C  14,N  13,C  12)    178.8770         0.036833   
    116. D(C   3,C  14,N  13,C  12)      0.1114         0.036833   
    117. D(C  15,C  14,C   3,N   4)   -178.9927         0.018217   
    118. D(C  15,C  14,C   3,C   2)      2.2155         0.018217   
    119. D(N  13,C  14,C   3,N   4)     -0.2149         0.018217   
    120. D(N  13,C  14,C   3,C   2)   -179.0067         0.018217   
    121. D(H  23,C  15,C  14,N  13)     -0.5279         0.023002   
    122. D(H  23,C  15,C  14,C   3)    178.2675         0.023002   
    123. D(C  16,C  15,C  14,N  13)   -179.4674         0.023002   
    124. D(C  16,C  15,C  14,C   3)     -0.6721         0.023002   
    125. D(N  17,C  16,C  15,H  23)      2.2689         0.032093   
    126. D(C   1,C  16,C  15,H  23)    178.7466         0.032093   
    127. D(C   1,C  16,C  15,C  14)     -2.3445         0.032093   
    128. D(N  17,C  16,C   1,C   2)   -179.5114         0.018274   
    129. D(N  17,C  16,C   1,N   0)     -2.9136         0.018274   
    130. D(N  17,C  16,C  15,C  14)   -178.8223         0.032093   
    131. D(C  15,C  16,C   1,C   2)      3.8893         0.018274   
    132. D(C  15,C  16,C   1,N   0)   -179.5130         0.018274   
    133. D(H  25,N  17,C  16,C   1)     36.7591         0.026517   
    134. D(H  24,N  17,C  16,C  15)    -12.3148         0.026517   
    135. D(H  24,N  17,C  16,C   1)    171.1549         0.026517   
    136. D(H  25,N  17,C  16,C  15)   -146.7106         0.026517   
    -----------------------------------------------------------------

Number of atoms                         .... 26
Number of degrees of freedom            .... 136

         *************************************************************
         *                GEOMETRY OPTIMIZATION CYCLE   1            *
         *************************************************************
---------------------------------
CARTESIAN COORDINATES (ANGSTROEM)
---------------------------------
  N     -3.894000   -1.425800   -0.877800
  C     -2.729200   -0.774500   -0.516700
  C     -1.497100   -1.328300   -0.734300
  C     -0.316500   -0.664800   -0.338800
  N      0.866200   -1.223100   -0.572600
  C      1.951700   -0.542700   -0.198200
  C      3.232700   -1.095400   -0.425700
  C      4.351300   -0.412400   -0.046400
  Cl     5.912400   -1.086300   -0.322600
  C      4.247000    0.857100    0.578300
  Cl     5.684700    1.685800    1.040700
  C      3.026100    1.419400    0.812300
  C      1.846400    0.739600    0.432300
  N      0.659000    1.302500    0.666000
  C     -0.422300    0.627000    0.292300
  C     -1.704500    1.162900    0.535900
  C     -2.837000    0.486500    0.172700
  N     -4.098100    1.011900    0.384400
  H     -3.754800   -2.226100   -1.475900
  H     -4.651800   -0.830500   -1.175900
  H     -1.399100   -2.281400   -1.231000
  H      3.298400   -2.060800   -0.900900
  H      2.933200    2.383300    1.285900
  H     -1.766700    2.117900    1.034800
  H     -4.116400    1.818500    0.990200
  H     -4.821300    0.339800    0.591200

----------------------------
CARTESIAN COORDINATES (A.U.)
----------------------------
  NO LB      ZA    FRAG     MASS         X           Y           Z
   0 N     7.0000    0    14.007   -7.358594   -2.694372   -1.658802
   1 C     6.0000    0    12.011   -5.157441   -1.463593   -0.976421
   2 C     6.0000    0    12.011   -2.829109   -2.510123   -1.387626
   3 C     6.0000    0    12.011   -0.598098   -1.256290   -0.640239
   4 N     7.0000    0    14.007    1.636881   -2.311324   -1.082057
   5 C     6.0000    0    12.011    3.688178   -1.025554   -0.374544
   6 C     6.0000    0    12.011    6.108918   -2.070006   -0.804456
   7 C     6.0000    0    12.011    8.222765   -0.779323   -0.087683
   8 Cl   17.0000    0    35.453   11.172817   -2.052809   -0.609626
   9 C     6.0000    0    12.011    8.025667    1.619684    1.092829
  10 Cl   17.0000    0    35.453   10.742526    3.185700    1.966638
  11 C     6.0000    0    12.011    5.718500    2.682277    1.535025
  12 C     6.0000    0    12.011    3.489190    1.397641    0.816929
  13 N     7.0000    0    14.007    1.245330    2.461368    1.258558
  14 C     6.0000    0    12.011   -0.798031    1.184858    0.552367
  15 C     6.0000    0    12.011   -3.221038    2.197563    1.012704
  16 C     6.0000    0    12.011   -5.361153    0.919352    0.326356
  17 N     7.0000    0    14.007   -7.744287    1.912214    0.726411
  18 H     1.0000    0     1.008   -7.095544   -4.206719   -2.789047
  19 H     1.0000    0     1.008   -8.790628   -1.569418   -2.222129
  20 H     1.0000    0     1.008   -2.643916   -4.311221   -2.326253
  21 H     1.0000    0     1.008    6.233073   -3.894348   -1.702454
  22 H     1.0000    0     1.008    5.542945    4.503784    2.429999
  23 H     1.0000    0     1.008   -3.338579    4.002251    1.955489
  24 H     1.0000    0     1.008   -7.778869    3.436467    1.871207
  25 H     1.0000    0     1.008   -9.110937    0.642129    1.117206

--------------------------------
INTERNAL COORDINATES (ANGSTROEM)
--------------------------------
 N      0   0   0     0.000000000000     0.00000000     0.00000000
 C      1   0   0     1.382513631036     0.00000000     0.00000000
 C      2   1   0     1.368252392653   121.76724171     0.00000000
 C      3   2   1     1.410839771200   121.23882486   181.19190810
 N      4   3   2     1.328585947540   119.86542736   180.50615049
 C      5   4   3     1.334702127817   117.41317356   178.90547700
 C      6   5   4     1.413575091744   119.50823690   179.99773126
 C      7   6   5     1.364413225530   120.16449666   180.10636240
 Cl     8   7   6     1.722631957210   120.16957557   179.95807029
 C      8   7   6     1.418717318566   120.66836267   359.95920495
 Cl    10   8   7     1.722654562006   119.16333088   180.02639220
 C     10   8   7     1.364380482124   120.66960102     0.00000000
 C     12  10   8     1.413584143233   120.16447921   359.97600905
 N     13  12  10     1.334687551452   119.50900941   180.08049455
 C     14  13  12     1.328593854419   117.41128915   180.02153699
 C     15  14  13     1.410874413263   119.86489675   178.87703620
 C     16  15  14     1.368205923829   121.23995237   180.53257823
 N     17  16  15     1.382474325259   121.77091525   181.17770678
 H      1   2   3     1.008751872365   114.35256105   347.69535886
 H      1   2   3     1.008715291844   115.60181398   213.29484763
 H      3   2   1     1.079219393821   120.82481241     2.27172504
 H      7   6   5     1.078020728001   118.44531869     0.04736295
 H     12  10   8     1.077975222350   121.39819730   180.01232834
 H     16  15  14     1.079256711816   117.92361876   359.47213353
 H     18  17  16     1.008926206419   114.35082323   347.68522506
 H     18  17  16     1.008713482610   115.60607356   213.28942451

---------------------------
INTERNAL COORDINATES (A.U.)
---------------------------
 N      0   0   0     0.000000000000     0.00000000     0.00000000
 C      1   0   0     2.612572139071     0.00000000     0.00000000
 C      2   1   0     2.585622304196   121.76724171     0.00000000
 C      3   2   1     2.666100786412   121.23882486   181.19190810
 N      4   3   2     2.510663586226   119.86542736   180.50615049
 C      5   4   3     2.522221491937   117.41317356   178.90547700
 C      6   5   4     2.671269793129   119.50823690   179.99773126
 C      7   6   5     2.578367329751   120.16449666   180.10636240
 Cl     8   7   6     3.255302628667   120.16957557   179.95807029
 C      8   7   6     2.680987193541   120.66836267   359.95920495
 Cl    10   8   7     3.255345345541   119.16333088   180.02639220
 C     10   8   7     2.578305453681   120.66960102     0.00000000
 C     12  10   8     2.671286897964   120.16447921   359.97600905
 N     13  12  10     2.522193946598   119.50900941   180.08049455
 C     14  13  12     2.510678528063   117.41128915   180.02153699
 C     15  14  13     2.666166250424   119.86489675   178.87703620
 C     16  15  14     2.585534490845   121.23995237   180.53257823
 N     17  16  15     2.612497861917   121.77091525   181.17770678
 H      1   2   3     1.906264775850   114.35256105   347.69535886
 H      1   2   3     1.906195648684   115.60181398   213.29484763
 H      3   2   1     2.039429092739   120.82481241     2.27172504
 H      7   6   5     2.037163942612   118.44531869     0.04736295
 H     12  10   8     2.037077949394   121.39819730   180.01232834
 H     16  15  14     2.039499613529   117.92361876   359.47213353
 H     18  17  16     1.906594219469   114.35082323   347.68522506
 H     18  17  16     1.906192229728   115.60607356   213.28942451

---------------------
BASIS SET INFORMATION
---------------------
There are 4 groups of distinct atoms

 Group   1 Type N   : 19s6p3d2f contracted to 5s4p3d2f pattern {88111/3111/111/11}
 Group   2 Type C   : 19s6p3d2f contracted to 5s4p3d2f pattern {88111/3111/111/11}
 Group   3 Type Cl  : 42s17p3d2f contracted to 6s5p3d2f pattern {131313111/77111/111/11}
 Group   4 Type H   : 5s2p1d contracted to 3s2p1d pattern {311/11/1}

Atom   0N    basis set group =>   1
Atom   1C    basis set group =>   2
Atom   2C    basis set group =>   2
Atom   3C    basis set group =>   2
Atom   4N    basis set group =>   1
Atom   5C    basis set group =>   2
Atom   6C    basis set group =>   2
Atom   7C    basis set group =>   2
Atom   8Cl   basis set group =>   3
Atom   9C    basis set group =>   2
Atom  10Cl   basis set group =>   3
Atom  11C    basis set group =>   2
Atom  12C    basis set group =>   2
Atom  13N    basis set group =>   1
Atom  14C    basis set group =>   2
Atom  15C    basis set group =>   2
Atom  16C    basis set group =>   2
Atom  17N    basis set group =>   1
Atom  18H    basis set group =>   4
Atom  19H    basis set group =>   4
Atom  20H    basis set group =>   4
Atom  21H    basis set group =>   4
Atom  22H    basis set group =>   4
Atom  23H    basis set group =>   4
Atom  24H    basis set group =>   4
Atom  25H    basis set group =>   4
---------------------------------
AUXILIARY/J BASIS SET INFORMATION
---------------------------------
There are 4 groups of distinct atoms

 Group   1 Type N   : 10s7p5d2f1g contracted to 10s7p5d2f1g pattern {1111111111/1111111/11111/11/1}
 Group   2 Type C   : 10s7p5d2f1g contracted to 10s7p5d2f1g pattern {1111111111/1111111/11111/11/1}
 Group   3 Type Cl  : 13s11p9d3f1g contracted to 13s11p9d3f1g pattern {1111111111111/11111111111/111111111/111/1}
 Group   4 Type H   : 4s3p2d1f contracted to 4s3p2d1f pattern {1111/111/11/1}

Atom   0N    basis set group =>   1
Atom   1C    basis set group =>   2
Atom   2C    basis set group =>   2
Atom   3C    basis set group =>   2
Atom   4N    basis set group =>   1
Atom   5C    basis set group =>   2
Atom   6C    basis set group =>   2
Atom   7C    basis set group =>   2
Atom   8Cl   basis set group =>   3
Atom   9C    basis set group =>   2
Atom  10Cl   basis set group =>   3
Atom  11C    basis set group =>   2
Atom  12C    basis set group =>   2
Atom  13N    basis set group =>   1
Atom  14C    basis set group =>   2
Atom  15C    basis set group =>   2
Atom  16C    basis set group =>   2
Atom  17N    basis set group =>   1
Atom  18H    basis set group =>   4
Atom  19H    basis set group =>   4
Atom  20H    basis set group =>   4
Atom  21H    basis set group =>   4
Atom  22H    basis set group =>   4
Atom  23H    basis set group =>   4
Atom  24H    basis set group =>   4
Atom  25H    basis set group =>   4
---------------------------------
AUXILIARY/C BASIS SET INFORMATION
---------------------------------
There are 4 groups of distinct atoms

 Group   1 Type N   : 9s7p6d4f2g contracted to 9s7p6d4f2g pattern {111111111/1111111/111111/1111/11}
 Group   2 Type C   : 9s7p6d4f2g contracted to 9s7p6d4f2g pattern {111111111/1111111/111111/1111/11}
 Group   3 Type Cl  : 11s9p8d6f3g contracted to 11s9p8d6f3g pattern {11111111111/111111111/11111111/111111/111}
 Group   4 Type H   : 4s3p2d1f contracted to 4s3p2d1f pattern {1111/111/11/1}

Atom   0N    basis set group =>   1
Atom   1C    basis set group =>   2
Atom   2C    basis set group =>   2
Atom   3C    basis set group =>   2
Atom   4N    basis set group =>   1
Atom   5C    basis set group =>   2
Atom   6C    basis set group =>   2
Atom   7C    basis set group =>   2
Atom   8Cl   basis set group =>   3
Atom   9C    basis set group =>   2
Atom  10Cl   basis set group =>   3
Atom  11C    basis set group =>   2
Atom  12C    basis set group =>   2
Atom  13N    basis set group =>   1
Atom  14C    basis set group =>   2
Atom  15C    basis set group =>   2
Atom  16C    basis set group =>   2
Atom  17N    basis set group =>   1
Atom  18H    basis set group =>   4
Atom  19H    basis set group =>   4
Atom  20H    basis set group =>   4
Atom  21H    basis set group =>   4
Atom  22H    basis set group =>   4
Atom  23H    basis set group =>   4
Atom  24H    basis set group =>   4
Atom  25H    basis set group =>   4


           ************************************************************
           *        Program running with 4 parallel MPI-processes     *
           *              working on a common directory               *
           ************************************************************
------------------------------------------------------------------------------
                           ORCA GTO INTEGRAL CALCULATION
                           -- RI-GTO INTEGRALS CHOSEN --
------------------------------------------------------------------------------
------------------------------------------------------------------------------
                   ___                                                        
                  /   \      - P O W E R E D   B Y -                         
                 /     \                                                     
                 |  |  |   _    _      __       _____    __    __             
                 |  |  |  | |  | |    /  \     |  _  \  |  |  /  |          
                  \  \/   | |  | |   /    \    | | | |  |  | /  /          
                 / \  \   | |__| |  /  /\  \   | |_| |  |  |/  /          
                |  |  |   |  __  | /  /__\  \  |    /   |      \           
                |  |  |   | |  | | |   __   |  |    \   |  |\   \          
                \     /   | |  | | |  |  |  |  | |\  \  |  | \   \       
                 \___/    |_|  |_| |__|  |__|  |_| \__\ |__|  \__/        
                                                                              
                      - O R C A' S   B I G   F R I E N D -                    
                                      &                                       
                       - I N T E G R A L  F E E D E R -                       
                                                                              
 v1 FN, 2020, v2 2021                                                         
------------------------------------------------------------------------------


Reading SHARK input file optpbed3-b2plyp-test-615.SHARKINP.tmp ... ok
----------------------
SHARK INTEGRAL PACKAGE
----------------------

Number of atoms                             ...     26
Number of basis functions                   ...   1094
Number of shells                            ...    430
Maximum angular momentum                    ...      3
Integral batch strategy                     ... SHARK/LIBINT Hybrid
RI-J (if used) integral strategy            ... SPLIT-RIJ (Revised 2003 algorithm where possible)
Printlevel                                  ...      1
Contraction scheme used                     ... PARTIAL GENERAL contraction
Coulomb Range Separation                    ... NOT USED
Exchange Range Separation                   ... NOT USED
Finite Nucleus Model                        ... NOT USED
Auxiliary Coulomb fitting basis             ... AVAILABLE
   # of basis functions in Aux-J            ...   1746
   # of shells in Aux-J                     ...    554
   Maximum angular momentum in Aux-J        ...      4
Auxiliary J/K fitting basis                 ... NOT available
Auxiliary Correlation fitting basis         ... AVAILABLE
   # of basis functions in Aux-C            ...   2230
   # of shells in Aux-C                     ...    602
   Maximum angular momentum in Aux-C        ...      4
Auxiliary 'external' fitting basis          ... NOT available
Integral threshold                          ...     2.500000e-11
Primitive cut-off                           ...     2.500000e-12
Primitive pair pre-selection threshold      ...     2.500000e-12

Calculating pre-screening integrals         ... done (  0.2 sec) Dimension = 430
Calculating pre-screening integrals (ORCA)  ... done (  0.6 sec) Dimension = 304
Organizing shell pair data                  ... done (  1.0 sec)
Shell pair information
Total number of shell pairs                 ...     92665
Shell pairs after pre-screening             ...     59543
Total number of primitive shell pairs       ...    114553
Primitive shell pairs kept                  ...     68409
          la=0 lb=0:  13131 shell pairs
          la=1 lb=0:  15333 shell pairs
          la=1 lb=1:   3895 shell pairs
          la=2 lb=0:   9943 shell pairs
          la=2 lb=1:   4864 shell pairs
          la=2 lb=2:   1599 shell pairs
          la=3 lb=0:   5613 shell pairs
          la=3 lb=1:   2786 shell pairs
          la=3 lb=2:   1823 shell pairs
          la=3 lb=3:    556 shell pairs

Calculating one electron integrals          ... done (  0.2 sec)
Calculating RI/J V-Matrix + Cholesky decomp.... done (  0.3 sec)
Calculating RI/C V-Matrix + Cholesky decomp.... done (  0.5 sec)
Calculating Nuclear repulsion               ... done (  0.0 sec) ENN=   1417.481524934149 Eh

SHARK setup successfully completed in   3.9 seconds

Maximum memory used throughout the entire GTOINT-calculation: 94.3 MB


           ************************************************************
           *        Program running with 4 parallel MPI-processes     *
           *              working on a common directory               *
           ************************************************************
-------------------------------------------------------------------------------
                                 ORCA SCF
-------------------------------------------------------------------------------

------------
SCF SETTINGS
------------
Hamiltonian:
 Density Functional     Method          .... DFT(GTOs)
 Exchange Functional    Exchange        .... PBE
   PBE kappa parameter   XKappa         ....  0.804000
   PBE mue parameter    XMuePBE         ....  0.219520
 Correlation Functional Correlation     .... PBE
   PBE beta parameter  CBetaPBE         ....  0.066725
 LDA part of GGA corr.  LDAOpt          .... PW91-LDA
 Gradients option       PostSCFGGA      .... off
 Hybrid DFT is turned on
   Fraction HF Exchange ScalHFX         ....  0.250000
   Scaling of DF-GGA-X  ScalDFX         ....  0.750000
   Scaling of DF-GGA-C  ScalDFC         ....  1.000000
   Scaling of DF-LDA-C  ScalLDAC        ....  1.000000
   Perturbative correction              ....  0.000000
   Density functional embedding theory  .... OFF
   NL short-range parameter             ....  6.900000
 RI-approximation to the Coulomb term is turned on
   Number of AuxJ basis functions       .... 1746
   RIJ-COSX (HFX calculated with COS-X)).... on


General Settings:
 Integral files         IntName         .... optpbed3-b2plyp-test-615
 Hartree-Fock type      HFTyp           .... RHF
 Total Charge           Charge          ....    0
 Multiplicity           Mult            ....    1
 Number of Electrons    NEL             ....  142
 Basis Dimension        Dim             ....  948
 Nuclear Repulsion      ENuc            ....   1417.4815249341 Eh

Convergence Acceleration:
 DIIS                   CNVDIIS         .... on
   Start iteration      DIISMaxIt       ....    12
   Startup error        DIISStart       ....  0.200000
   # of expansion vecs  DIISMaxEq       ....     5
   Bias factor          DIISBfac        ....   1.050
   Max. coefficient     DIISMaxC        ....  10.000
 Trust-Rad. Augm. Hess. CNVTRAH         .... auto
   Auto Start mean grad. ratio tolernc. ....  1.125000
   Auto Start start iteration           ....    20
   Auto Start num. interpolation iter.  ....    10
   Max. Number of Micro iterations      ....    16
   Max. Number of Macro iterations      .... Maxiter - #DIIS iter
   Number of Davidson start vectors     ....     2
   Converg. threshold I  (grad. norm)   ....   1.000e-05
   Converg. threshold II (energy diff.) ....   1.000e-08
   Grad. Scal. Fac. for Micro threshold ....   0.100
   Minimum threshold for Micro iter.    ....   0.010
   NR start threshold (gradient norm)   ....   0.001
   Initial trust radius                 ....   0.400
   Minimum AH scaling param. (alpha)    ....   1.000
   Maximum AH scaling param. (alpha)    .... 1000.000
   Orbital update algorithm             .... Taylor
   White noise on init. David. guess    .... on
   Maximum white noise                  ....   0.010
   Quad. conv. algorithm                .... NR
 SOSCF                  CNVSOSCF        .... on
   Start iteration      SOSCFMaxIt      ....   150
   Startup grad/error   SOSCFStart      ....  0.003300
 Level Shifting         CNVShift        .... on
   Level shift para.    LevelShift      ....    0.2500
   Turn off err/grad.   ShiftErr        ....    0.0010
 Zerner damping         CNVZerner       .... off
 Static damping         CNVDamp         .... on
   Fraction old density DampFac         ....    0.7000
   Max. Damping (<1)    DampMax         ....    0.9800
   Min. Damping (>=0)   DampMin         ....    0.0000
   Turn off err/grad.   DampErr         ....    0.1000
 Fernandez-Rico         CNVRico         .... off

SCF Procedure:
 Maximum # iterations   MaxIter         ....   125
 SCF integral mode      SCFMode         .... Direct
   Integral package                     .... SHARK and LIBINT hybrid scheme
 Reset frequency        DirectResetFreq ....    20
 Integral Threshold     Thresh          ....  2.500e-11 Eh
 Primitive CutOff       TCut            ....  2.500e-12 Eh

Convergence Tolerance:
 Convergence Check Mode ConvCheckMode   .... Total+1el-Energy
 Convergence forced     ConvForced      .... 0
 Energy Change          TolE            ....  1.000e-08 Eh
 1-El. energy change                    ....  1.000e-05 Eh
 Orbital Gradient       TolG            ....  1.000e-05
 Orbital Rotation angle TolX            ....  1.000e-05
 DIIS Error             TolErr          ....  5.000e-07


Diagonalization of the overlap matrix:
Smallest eigenvalue                        ... 1.689e-07
Time for diagonalization                   ...    0.303 sec
Threshold for overlap eigenvalues          ... 1.000e-08
Number of eigenvalues below threshold      ... 0
Time for construction of square roots      ...    0.162 sec
Total time needed                          ...    0.470 sec

Time for model grid setup =    0.581 sec

------------------------------
INITIAL GUESS: MODEL POTENTIAL
------------------------------
Loading Hartree-Fock densities                     ... done
Calculating cut-offs                               ... done
Initializing the effective Hamiltonian             ... done
Setting up the integral package (SHARK)            ... done
Starting the Coulomb interaction                   ... done (   2.5 sec)
Reading the grid                                   ... done
Mapping shells                                     ... done
Starting the XC term evaluation                    ... done (   2.0 sec)
  promolecular density results
     # of electrons  =    141.997015454
     EX              =   -144.801734883
     EC              =     -5.013868540
     EX+EC           =   -149.815603422
Transforming the Hamiltonian                       ... done (   0.2 sec)
Diagonalizing the Hamiltonian                      ... done (   0.3 sec)
Back transforming the eigenvectors                 ... done (   0.1 sec)
Now organizing SCF variables                       ... done
                      ------------------
                      INITIAL GUESS DONE (   5.6 sec)
                      ------------------
-------------------
DFT GRID GENERATION
-------------------

General Integration Accuracy     IntAcc      ... 4.388
Radial Grid Type                 RadialGrid  ... OptM3 with GC (2021)
Angular Grid (max. ang.)         AngularGrid ... 4 (Lebedev-302)
Angular grid pruning method      GridPruning ... 4 (adaptive)
Weight generation scheme         WeightScheme... Becke
Basis function cutoff            BFCut       ... 1.0000e-11
Integration weight cutoff        WCut        ... 1.0000e-14
Angular grids for H and He will be reduced by one unit
Partially contracted basis set               ... off
Rotationally invariant grid construction     ... off

Total number of grid points                  ...   140585
Total number of batches                      ...     2209
Average number of points per batch           ...       63
Average number of grid points per atom       ...     5407
Time for grid setup =    2.093 sec

--------------------
COSX GRID GENERATION
--------------------

GRIDX 1
-------
General Integration Accuracy     IntAcc      ... 3.816
Radial Grid Type                 RadialGrid  ... OptM3 with GC (2021)
Angular Grid (max. ang.)         AngularGrid ... 1 (Lebedev-50)
Angular grid pruning method      GridPruning ... 4 (adaptive)
Weight generation scheme         WeightScheme... Becke
Basis function cutoff            BFCut       ... 1.0000e-11
Integration weight cutoff        WCut        ... 1.0000e-14
Angular grids for H and He will be reduced by one unit
Partially contracted basis set               ... on
Rotationally invariant grid construction     ... off

Total number of grid points                  ...    17682
Total number of batches                      ...      291
Average number of points per batch           ...       60
Average number of grid points per atom       ...      680
UseSFitting                                  ... on

GRIDX 2
-------
General Integration Accuracy     IntAcc      ... 4.020
Radial Grid Type                 RadialGrid  ... OptM3 with GC (2021)
Angular Grid (max. ang.)         AngularGrid ... 2 (Lebedev-110)
Angular grid pruning method      GridPruning ... 4 (adaptive)
Weight generation scheme         WeightScheme... Becke
Basis function cutoff            BFCut       ... 1.0000e-11
Integration weight cutoff        WCut        ... 1.0000e-14
Angular grids for H and He will be reduced by one unit
Partially contracted basis set               ... on
Rotationally invariant grid construction     ... off

Total number of grid points                  ...    43113
Total number of batches                      ...      686
Average number of points per batch           ...       62
Average number of grid points per atom       ...     1658
UseSFitting                                  ... on

GRIDX 3
-------
General Integration Accuracy     IntAcc      ... 4.338
Radial Grid Type                 RadialGrid  ... OptM3 with GC (2021)
Angular Grid (max. ang.)         AngularGrid ... 3 (Lebedev-194)
Angular grid pruning method      GridPruning ... 4 (adaptive)
Weight generation scheme         WeightScheme... Becke
Basis function cutoff            BFCut       ... 1.0000e-11
Integration weight cutoff        WCut        ... 1.0000e-14
Angular grids for H and He will be reduced by one unit
Partially contracted basis set               ... on
Rotationally invariant grid construction     ... off

Total number of grid points                  ...    94586
Total number of batches                      ...     1492
Average number of points per batch           ...       63
Average number of grid points per atom       ...     3638
UseSFitting                                  ... on

Time for X-Grid setup             =    5.321 sec


--------------------
CPCM SOLVATION MODEL
--------------------
CPCM parameters:
  Epsilon                                         ...      24.8520
  Refrac                                          ...       1.3611
  Rsolv                                           ...       1.3000
  Surface type                                    ... GAUSSIAN VDW
  Epsilon function type                           ...         CPCM
Solvent:                                     ... ETHANOL
SMD-CDS solvent descriptors:
  Soln                                       ...    1.3611
  Soln25                                     ...    1.3593
  Sola                                       ...    0.3700
  Solb                                       ...    0.4800
  Solg                                       ...   31.6200
  Solc                                       ...    0.0000
  Solh                                       ...    0.0000
Radii:
 Radius for N  used is    3.5716 Bohr (=   1.8900 Ang.)
 Radius for C  used is    3.4960 Bohr (=   1.8500 Ang.)
 Radius for Cl used is    4.4975 Bohr (=   2.3800 Ang.)
 Radius for H  used is    2.2677 Bohr (=   1.2000 Ang.)
Calculating surface                               ...        done! (  0.0s)
GEPOL surface points                              ...         1465
GEPOL Volume                                      ...    1955.4664
GEPOL Surface-area                                ...    1040.7288
Calculating surface distance matrix               ...        done! (  0.0s)
Performing Cholesky decomposition & store         ...        done! (  0.2s)
Overall time for CPCM initialization              ...                 0.2s
 re-compute Schwartz prescreening matrix in partically contracted basis (1) ...done (   0.234 sec)
--------------
SCF ITERATIONS
--------------
ITER       Energy         Delta-E        Max-DP      RMS-DP      [F,P]     Damp
               ***  Starting incremental Fock matrix formation  ***
  0  -1600.3815340796   0.000000000000 0.18377267  0.00153500  0.2443631 0.7000
  1  -1600.5414448711  -0.159910791437 0.14047694  0.00130918  0.1204271 0.7000
                               ***Turning on DIIS***
  2  -1600.6129568199  -0.071511948861 0.28206445  0.00320359  0.0440884 0.0000
  3  -1600.7171152105  -0.104158390573 0.17658608  0.00095517  0.0604063 0.0000
  4  -1600.7419582871  -0.024843076571 0.11098776  0.00061721  0.0099788 0.0000
  5  -1600.7432135618  -0.001255274770 0.02882787  0.00024646  0.0047236 0.0000
                      *** Initiating the SOSCF procedure ***
                           *** Shutting down DIIS ***
                      *** Re-Reading the Fockian *** 
                      *** Removing any level shift *** 
ITER      Energy       Delta-E        Grad      Rot      Max-DP    RMS-DP
  6  -1600.74336423  -0.0001506666  0.000478  0.000478  0.030231  0.000209
               *** Restarting incremental Fock matrix formation ***
  7  -1600.74341466  -0.0000504291  0.000215  0.000674  0.073659  0.000666
  8  -1600.74341229   0.0000023721  0.000331  0.000692  0.049230  0.000223
  9  -1600.74341933  -0.0000070399  0.000035  0.000170  0.113179  0.000496
 10  -1600.74341932   0.0000000040  0.000040  0.000140  0.052374  0.000230
 11  -1600.74341938  -0.0000000631  0.000007  0.000024  0.285887  0.001207
 12  -1600.74341936   0.0000000249  0.000007  0.000013  0.061303  0.000316
 13  -1600.74341934   0.0000000154  0.000003  0.000010  0.080116  0.000356
 14  -1600.74341935  -0.0000000089  0.000003  0.000005  0.066093  0.000338
                  ***Gradient check signals convergence***
              ***Rediagonalizing the Fockian in SOSCF/NRSCF***

               *****************************************************
               *                     SUCCESS                       *
               *           SCF CONVERGED AFTER  15 CYCLES          *
               *****************************************************

Old exchange energy                            =    -36.665379496 Eh
New exchange energy                            =    -36.665358962 Eh
Exchange energy change after final integration =      0.000020534 Eh
Total energy after final integration           =  -1600.743398830 Eh
Final COS-X integration done in                =   107.162 sec

SMD CDS free energy correction energy :                -1.60938     Kcal/mol
Total Energy after SMD CDS correction =             -1600.745963544 Eh

----------------
TOTAL SCF ENERGY
----------------

Total Energy       :        -1600.74596354 Eh          -43558.51214 eV

Components:
Nuclear Repulsion  :         1417.48152493 Eh           38571.63324 eV
Electronic Energy  :        -3018.22748848 Eh          -82130.14538 eV
One Electron Energy:        -5011.57788472 Eh         -136371.96726 eV
Two Electron Energy:         1993.35039624 Eh           54241.82188 eV
Max COSX asymmetry :            0.00006373 Eh               0.00173 eV
CPCM Dielectric    :           -0.03089374 Eh              -0.84066 eV
SMD CDS (Gcds)     :           -0.00256471 Eh              -0.06979 eV

Virial components:
Potential Energy   :        -3195.46380871 Eh          -86952.99084 eV
Kinetic Energy     :         1594.71784517 Eh           43394.47870 eV
Virial Ratio       :            2.00378005


DFT components:
N(Alpha)           :       70.999942605893 electrons
N(Beta)            :       70.999942605893 electrons
N(Total)           :      141.999885211786 electrons
E(X)               :     -109.649542994685 Eh       
E(C)               :       -5.015585250205 Eh       
E(XC)              :     -114.665128244890 Eh       
DFET-embed. en.    :        0.000000000000 Eh       
CPCM Solvation Model Properties:
Surface-charge          :           -0.03540998
Charge-correction       :            0.00054381 Eh               0.01480 eV
Free-energy (cav+disp)  :           -0.00256471 Eh              -0.06979 eV

---------------
SCF CONVERGENCE
---------------

  Last Energy change         ...   -1.0609e-08  Tolerance :   1.0000e-08
  Last MAX-Density change    ...    4.4131e-15  Tolerance :   1.0000e-07
  Last RMS-Density change    ...    2.5210e-17  Tolerance :   5.0000e-09
  Last Orbital Gradient      ...    2.4249e-06  Tolerance :   1.0000e-05
  Last Orbital Rotation      ...    4.1921e-06  Tolerance :   1.0000e-05

             **** THE GBW FILE WAS UPDATED (optpbed3-b2plyp-test-615.gbw) ****
             **** DENSITY optpbed3-b2plyp-test-615.scfp WAS UPDATED ****
             **** ENERGY FILE WAS UPDATED (optpbed3-b2plyp-test-615.en.tmp) ****
             **** THE GBW FILE WAS UPDATED (optpbed3-b2plyp-test-615.gbw) ****
             **** DENSITY optpbed3-b2plyp-test-615.scfp WAS UPDATED ****
----------------
ORBITAL ENERGIES
----------------

  NO   OCC          E(Eh)            E(eV) 
   0   2.0000    -101.751555     -2768.8006 
   1   2.0000    -101.751486     -2768.7987 
   2   2.0000     -14.399574      -391.8323 
   3   2.0000     -14.399555      -391.8318 
   4   2.0000     -14.397216      -391.7682 
   5   2.0000     -14.397178      -391.7671 
   6   2.0000     -10.308763      -280.5157 
   7   2.0000     -10.308237      -280.5014 
   8   2.0000     -10.287233      -279.9299 
   9   2.0000     -10.286779      -279.9175 
  10   2.0000     -10.276866      -279.6477 
  11   2.0000     -10.276371      -279.6343 
  12   2.0000     -10.275372      -279.6071 
  13   2.0000     -10.274909      -279.5945 
  14   2.0000     -10.246387      -278.8184 
  15   2.0000     -10.246338      -278.8170 
  16   2.0000     -10.223847      -278.2050 
  17   2.0000     -10.223810      -278.2040 
  18   2.0000      -9.553792      -259.9719 
  19   2.0000      -9.553735      -259.9704 
  20   2.0000      -7.289154      -198.3480 
  21   2.0000      -7.289099      -198.3465 
  22   2.0000      -7.280759      -198.1195 
  23   2.0000      -7.280700      -198.1179 
  24   2.0000      -7.280130      -198.1024 
  25   2.0000      -7.280069      -198.1008 
  26   2.0000      -1.018551       -27.7162 
  27   2.0000      -0.980082       -26.6694 
  28   2.0000      -0.950329       -25.8598 
  29   2.0000      -0.946871       -25.7657 
  30   2.0000      -0.932609       -25.3776 
  31   2.0000      -0.892522       -24.2868 
  32   2.0000      -0.876157       -23.8414 
  33   2.0000      -0.835626       -22.7385 
  34   2.0000      -0.791504       -21.5379 
  35   2.0000      -0.760472       -20.6935 
  36   2.0000      -0.756413       -20.5831 
  37   2.0000      -0.694373       -18.8949 
  38   2.0000      -0.664901       -18.0929 
  39   2.0000      -0.647239       -17.6123 
  40   2.0000      -0.643209       -17.5026 
  41   2.0000      -0.583853       -15.8874 
  42   2.0000      -0.576492       -15.6872 
  43   2.0000      -0.567971       -15.4553 
  44   2.0000      -0.525093       -14.2885 
  45   2.0000      -0.524096       -14.2614 
  46   2.0000      -0.515154       -14.0180 
  47   2.0000      -0.506264       -13.7761 
  48   2.0000      -0.483609       -13.1597 
  49   2.0000      -0.471570       -12.8321 
  50   2.0000      -0.464449       -12.6383 
  51   2.0000      -0.456143       -12.4123 
  52   2.0000      -0.452394       -12.3103 
  53   2.0000      -0.447634       -12.1808 
  54   2.0000      -0.436076       -11.8662 
  55   2.0000      -0.415302       -11.3009 
  56   2.0000      -0.412538       -11.2257 
  57   2.0000      -0.398833       -10.8528 
  58   2.0000      -0.387529       -10.5452 
  59   2.0000      -0.381192       -10.3728 
  60   2.0000      -0.366783        -9.9807 
  61   2.0000      -0.351852        -9.5744 
  62   2.0000      -0.346730        -9.4350 
  63   2.0000      -0.343951        -9.3594 
  64   2.0000      -0.331578        -9.0227 
  65   2.0000      -0.325954        -8.8697 
  66   2.0000      -0.288629        -7.8540 
  67   2.0000      -0.273249        -7.4355 
  68   2.0000      -0.266866        -7.2618 
  69   2.0000      -0.226045        -6.1510 
  70   2.0000      -0.224561        -6.1106 
  71   0.0000      -0.091372        -2.4864 
  72   0.0000      -0.025952        -0.7062 
  73   0.0000      -0.013027        -0.3545 
  74   0.0000      -0.001048        -0.0285 
  75   0.0000       0.004583         0.1247 
  76   0.0000       0.004652         0.1266 
  77   0.0000       0.011315         0.3079 
  78   0.0000       0.017458         0.4751 
  79   0.0000       0.027936         0.7602 
  80   0.0000       0.030033         0.8172 
  81   0.0000       0.039858         1.0846 
  82   0.0000       0.040138         1.0922 
  83   0.0000       0.044132         1.2009 
  84   0.0000       0.046275         1.2592 
  85   0.0000       0.054473         1.4823 
  86   0.0000       0.054758         1.4901 
  87   0.0000       0.055432         1.5084 
  88   0.0000       0.059665         1.6236 
  89   0.0000       0.063667         1.7325 
  90   0.0000       0.072075         1.9613 
  91   0.0000       0.072890         1.9834 
  92   0.0000       0.076625         2.0851 
  93   0.0000       0.081357         2.2138 
  94   0.0000       0.085058         2.3145 
  95   0.0000       0.088411         2.4058 
  96   0.0000       0.096210         2.6180 
  97   0.0000       0.100534         2.7357 
  98   0.0000       0.102717         2.7951 
  99   0.0000       0.104641         2.8474 
 100   0.0000       0.111271         3.0278 
 101   0.0000       0.113098         3.0775 
 102   0.0000       0.114955         3.1281 
 103   0.0000       0.123022         3.3476 
 104   0.0000       0.124283         3.3819 
 105   0.0000       0.126590         3.4447 
 106   0.0000       0.128703         3.5022 
 107   0.0000       0.133300         3.6273 
 108   0.0000       0.133913         3.6440 
 109   0.0000       0.135930         3.6989 
 110   0.0000       0.139713         3.8018 
 111   0.0000       0.141156         3.8411 
 112   0.0000       0.144886         3.9425 
 113   0.0000       0.144893         3.9427 
 114   0.0000       0.148828         4.0498 
 115   0.0000       0.154484         4.2037 
 116   0.0000       0.155622         4.2347 
 117   0.0000       0.156382         4.2554 
 118   0.0000       0.161225         4.3872 
 119   0.0000       0.162987         4.4351 
 120   0.0000       0.164362         4.4725 
 121   0.0000       0.169000         4.5987 
 122   0.0000       0.169029         4.5995 
 123   0.0000       0.170654         4.6437 
 124   0.0000       0.173764         4.7284 
 125   0.0000       0.175659         4.7799 
 126   0.0000       0.176290         4.7971 
 127   0.0000       0.178771         4.8646 
 128   0.0000       0.180365         4.9080 
 129   0.0000       0.184249         5.0137 
 130   0.0000       0.189594         5.1591 
 131   0.0000       0.190606         5.1866 
 132   0.0000       0.196040         5.3345 
 133   0.0000       0.196271         5.3408 
 134   0.0000       0.197842         5.3836 
 135   0.0000       0.203522         5.5381 
 136   0.0000       0.210090         5.7168 
 137   0.0000       0.214068         5.8251 
 138   0.0000       0.218381         5.9425 
 139   0.0000       0.219155         5.9635 
 140   0.0000       0.219503         5.9730 
 141   0.0000       0.223998         6.0953 
 142   0.0000       0.224340         6.1046 
 143   0.0000       0.226527         6.1641 
 144   0.0000       0.232778         6.3342 
 145   0.0000       0.235702         6.4138 
 146   0.0000       0.237141         6.4529 
 147   0.0000       0.238169         6.4809 
 148   0.0000       0.244144         6.6435 
 149   0.0000       0.248807         6.7704 
 150   0.0000       0.252419         6.8687 
 151   0.0000       0.255896         6.9633 
 152   0.0000       0.257331         7.0023 
 153   0.0000       0.263878         7.1805 
 154   0.0000       0.265867         7.2346 
 155   0.0000       0.266883         7.2622 
 156   0.0000       0.273554         7.4438 
 157   0.0000       0.274213         7.4617 
 158   0.0000       0.280304         7.6275 
 159   0.0000       0.287865         7.8332 
 160   0.0000       0.288046         7.8381 
 161   0.0000       0.289546         7.8790 
 162   0.0000       0.290008         7.8915 
 163   0.0000       0.292209         7.9514 
 164   0.0000       0.294201         8.0056 
 165   0.0000       0.304098         8.2749 
 166   0.0000       0.306899         8.3512 
 167   0.0000       0.308450         8.3933 
 168   0.0000       0.313552         8.5322 
 169   0.0000       0.322878         8.7859 
 170   0.0000       0.324462         8.8290 
 171   0.0000       0.328972         8.9518 
 172   0.0000       0.332149         9.0382 
 173   0.0000       0.337254         9.1772 
 174   0.0000       0.340828         9.2744 
 175   0.0000       0.344211         9.3664 
 176   0.0000       0.345752         9.4084 
 177   0.0000       0.350125         9.5274 
 178   0.0000       0.355391         9.6707 
 179   0.0000       0.358845         9.7647 
 180   0.0000       0.359036         9.7699 
 181   0.0000       0.360023         9.7967 
 182   0.0000       0.364452         9.9172 
 183   0.0000       0.365598         9.9484 
 184   0.0000       0.370545        10.0830 
 185   0.0000       0.373691        10.1686 
 186   0.0000       0.378053        10.2873 
 187   0.0000       0.380539        10.3550 
 188   0.0000       0.385004        10.4765 
 189   0.0000       0.388869        10.5817 
 190   0.0000       0.389628        10.6023 
 191   0.0000       0.389766        10.6061 
 192   0.0000       0.399407        10.8684 
 193   0.0000       0.403519        10.9803 
 194   0.0000       0.404012        10.9937 
 195   0.0000       0.405687        11.0393 
 196   0.0000       0.408213        11.1080 
 197   0.0000       0.413657        11.2562 
 198   0.0000       0.415457        11.3052 
 199   0.0000       0.418489        11.3877 
 200   0.0000       0.423472        11.5232 
 201   0.0000       0.428815        11.6686 
 202   0.0000       0.430287        11.7087 
 203   0.0000       0.437551        11.9064 
 204   0.0000       0.438644        11.9361 
 205   0.0000       0.439625        11.9628 
 206   0.0000       0.446063        12.1380 
 207   0.0000       0.448604        12.2071 
 208   0.0000       0.456613        12.4251 
 209   0.0000       0.460229        12.5235 
 210   0.0000       0.462243        12.5783 
 211   0.0000       0.466881        12.7045 
 212   0.0000       0.469550        12.7771 
 213   0.0000       0.477384        12.9903 
 214   0.0000       0.480443        13.0735 
 215   0.0000       0.483133        13.1467 
 216   0.0000       0.485239        13.2040 
 217   0.0000       0.488168        13.2837 
 218   0.0000       0.494004        13.4425 
 219   0.0000       0.499300        13.5866 
 220   0.0000       0.500918        13.6307 
 221   0.0000       0.506172        13.7736 
 222   0.0000       0.510244        13.8845 
 223   0.0000       0.514170        13.9913 
 224   0.0000       0.519309        14.1311 
 225   0.0000       0.520392        14.1606 
 226   0.0000       0.520942        14.1756 
 227   0.0000       0.530648        14.4397 
 228   0.0000       0.532697        14.4954 
 229   0.0000       0.537749        14.6329 
 230   0.0000       0.542823        14.7710 
 231   0.0000       0.544245        14.8097 
 232   0.0000       0.545576        14.8459 
 233   0.0000       0.552074        15.0227 
 234   0.0000       0.556012        15.1298 
 235   0.0000       0.557250        15.1635 
 236   0.0000       0.561038        15.2666 
 237   0.0000       0.567296        15.4369 
 238   0.0000       0.570996        15.5376 
 239   0.0000       0.573064        15.5939 
 240   0.0000       0.574971        15.6458 
 241   0.0000       0.579818        15.7776 
 242   0.0000       0.584237        15.8979 
 243   0.0000       0.589153        16.0317 
 244   0.0000       0.596195        16.2233 
 245   0.0000       0.602060        16.3829 
 246   0.0000       0.604342        16.4450 
[...]
   Transformed RI Coulomb         ...     0.58 sec
   Transformed RI-exchange        ...   160.62 sec
   (ab|v) reading and digestion   ...   128.62 sec
   Final sigma-completion         ...     0.00 sec
   Done building sigma-vectors             Size of expansion space: 40
   Lowest Energy          :     0.123847712648
   Maximum Energy change  :     0.000059562040 (vector 9)
   Maximum residual norm  :     0.000012327229

                       ****Iteration    8****
              <<< Entering MO-section for Build Sigma(Double) >>>
   Forming the XC and CPCM contribution:
   Time for densities:            0.159
   Time for XC-Integration:      18.084
   Time for LR-CPCM terms:        8.267
   Time for Sigma-Completion:     0.163
   Time for building 10 sigma-vectors
   Data Preparation Phase         ...     0.01 sec
   Transformed RI Coulomb         ...     0.51 sec
   Transformed RI-exchange        ...   166.66 sec
   (ab|v) reading and digestion   ...   127.79 sec
   Final sigma-completion         ...     0.00 sec
   Done building sigma-vectors             Size of expansion space: 50
   Lowest Energy          :     0.123847712591
   Maximum Energy change  :     0.000044260471 (vector 9)
   Maximum residual norm  :     0.000009353196

                       ****Iteration    9****
              <<< Entering MO-section for Build Sigma(Double) >>>
   Forming the XC and CPCM contribution:
   Time for densities:            0.226
   Time for XC-Integration:      19.172
   Time for LR-CPCM terms:        8.264
   Time for Sigma-Completion:     0.183
   Time for building 10 sigma-vectors
   Data Preparation Phase         ...     0.01 sec
   Transformed RI Coulomb         ...     0.79 sec
   Transformed RI-exchange        ...   391.12 sec
   (ab|v) reading and digestion   ...   373.91 sec
   Final sigma-completion         ...     0.01 sec
   Done building sigma-vectors             Size of expansion space: 60
   Lowest Energy          :     0.123847712586
   Maximum Energy change  :     0.000025107843 (vector 9)
   Maximum residual norm  :     0.000002539937

                       ****Iteration   10****
              <<< Entering MO-section for Build Sigma(Double) >>>
   Forming the XC and CPCM contribution:
   Time for densities:            0.240
   Time for XC-Integration:      19.448
   Time for LR-CPCM terms:        8.306
   Time for Sigma-Completion:     0.156
   Time for building 10 sigma-vectors
   Data Preparation Phase         ...     0.01 sec
   Transformed RI Coulomb         ...     0.75 sec
   Transformed RI-exchange        ...   384.83 sec
   (ab|v) reading and digestion   ...   357.15 sec
   Final sigma-completion         ...     0.01 sec
   Done building sigma-vectors             Size of expansion space: 70
   Lowest Energy          :     0.123847712586
   Maximum Energy change  :     0.000013355558 (vector 9)
   Maximum residual norm  :     0.000002221899
   Rebuilding the expansion space

                       ****Iteration   11****
              <<< Entering MO-section for Build Sigma(Double) >>>
   Forming the XC and CPCM contribution:
   Time for densities:            0.397
   Time for XC-Integration:      29.663
   Time for LR-CPCM terms:       12.689
   Time for Sigma-Completion:     0.257
   Time for building 20 sigma-vectors
   Data Preparation Phase         ...     0.01 sec
   Transformed RI Coulomb         ...     1.25 sec
   Transformed RI-exchange        ...   717.34 sec
   (ab|v) reading and digestion   ...   690.54 sec
   Final sigma-completion         ...     0.01 sec
   Done building sigma-vectors             Size of expansion space: 20
   Lowest Energy          :     0.123847712582
   Maximum Energy change  :     0.000003566360 (vector 9)
   Maximum residual norm  :     0.000000357776

      *** CONVERGENCE OF RESIDUAL NORM REACHED ***

Storing the converged CI vectors               ... optpbed3-b2plyp-test-615_job2.cis1

                 *** DAVIDSON DONE ***

Total time for solving the CIS problem:  3610.527sec

------------------
DOUBLES CORRECTION (Double precision version)
------------------

The (D) correction will be scaled by  0.2700
Doing v(i,a)*T(i,a) terms (RI)                    ... ok
Doing u(i,j,a,b) terms for state   0              ... ok
Doing u(i,j,a,b) terms for state   1              ... ok
Doing u(i,j,a,b) terms for state   2              ... ok
Doing u(i,j,a,b) terms for state   3              ... ok
Doing u(i,j,a,b) terms for state   4              ... ok
Doing u(i,j,a,b) terms for state   5              ... ok
Doing u(i,j,a,b) terms for state   6              ... ok
Doing u(i,j,a,b) terms for state   7              ... ok
Doing u(i,j,a,b) terms for state   8              ... ok
Doing u(i,j,a,b) terms for state   9              ... ok

Contributions to the (D) correction(s) (in eV)

STATE  Final   Init.   Total   v(ext)   v(int)  v(3)    u
       omega   omega     (D)                             
-----------------------------------------------------------------------------
   0   2.988   3.370  -0.382   0.800   0.994  -0.065  -2.111
   1   3.171   3.585  -0.414   0.782   1.044  -0.075  -2.166
   2   3.486   4.099  -0.613   0.839   0.777  -0.028  -2.200
   3   4.263   4.765  -0.502   0.794   0.905  -0.041  -2.161
   4   4.555   5.266  -0.711   0.647   0.963  -0.068  -2.254
   5   5.121   5.351  -0.229   0.075   0.991  -0.006  -1.290
   6   5.132   5.385  -0.253   0.080   0.977  -0.004  -1.306
   7   4.881   5.481  -0.600   0.560   0.972  -0.056  -2.076
   8   4.905   5.483  -0.578   0.564   0.994  -0.064  -2.073
   9   5.084   5.706  -0.622   0.410   1.012  -0.034  -2.010

(D)-timings
 V(i,a)*T(i,a) terms           ...   333.901 sec
 U(i,j,a,b) 3-internal         ...     9.629 sec
 U(i,j,a,b) 3-external         ...   512.298 sec
 U(i,j,a,b) pair terms         ...   200.201 sec
 Total measured time           ...  1785.595 sec

 Time for (ab|v) I/O           ...   250.561 sec


------------------------------------
TD-DFT/TDA EXCITED STATES (SINGLETS)
------------------------------------

the weight of the individual excitations are printed if larger than 1.0e-02

STATE  1:  E=   0.109812 au      2.988 eV    24101.0 cm**-1 <S**2> =   0.000000
    68a ->  71a  :     0.012039 (c=  0.10972411)
    69a ->  71a  :     0.890020 (c= -0.94340847)
    70a ->  71a  :     0.041128 (c= -0.20280127)
    70a ->  73a  :     0.021258 (c=  0.14580284)

STATE  2:  E=   0.116535 au      3.171 eV    25576.5 cm**-1 <S**2> =   0.000000
    69a ->  71a  :     0.039375 (c=  0.19843170)
    69a ->  73a  :     0.057674 (c= -0.24015489)
    70a ->  71a  :     0.851055 (c= -0.92252668)

STATE  3:  E=   0.128112 au      3.486 eV    28117.3 cm**-1 <S**2> =   0.000000
    67a ->  71a  :     0.924071 (c= -0.96128617)
    67a ->  76a  :     0.011333 (c= -0.10645775)
    67a ->  79a  :     0.019791 (c=  0.14068069)
    67a ->  84a  :     0.013998 (c= -0.11831464)

STATE  4:  E=   0.156650 au      4.263 eV    34380.8 cm**-1 <S**2> =   0.000000
    68a ->  71a  :     0.918466 (c=  0.95836637)
    69a ->  76a  :     0.013036 (c= -0.11417746)
    70a ->  73a  :     0.022168 (c= -0.14888881)

STATE  5:  E=   0.167389 au      4.555 eV    36737.7 cm**-1 <S**2> =   0.000000
    66a ->  71a  :     0.207434 (c= -0.45544886)
    68a ->  73a  :     0.042434 (c=  0.20599425)
    69a ->  72a  :     0.088751 (c=  0.29791053)
    69a ->  73a  :     0.445293 (c=  0.66730314)
    69a ->  74a  :     0.040805 (c= -0.20200363)
    70a ->  71a  :     0.059231 (c= -0.24337422)
    70a ->  73a  :     0.020148 (c=  0.14194390)
    70a ->  76a  :     0.021243 (c= -0.14574981)

STATE  6:  E=   0.188203 au      5.121 eV    41305.9 cm**-1 <S**2> =   0.000000
    66a ->  72a  :     0.019883 (c=  0.14100663)
    69a ->  72a  :     0.016236 (c= -0.12742151)
    69a ->  75a  :     0.046390 (c=  0.21538291)
    69a ->  78a  :     0.018426 (c=  0.13574422)
    70a ->  72a  :     0.697626 (c=  0.83524032)
    70a ->  73a  :     0.015805 (c=  0.12571968)
    70a ->  74a  :     0.090228 (c=  0.30037939)
    70a ->  81a  :     0.017623 (c=  0.13275225)

STATE  7:  E=   0.188603 au      5.132 eV    41393.6 cm**-1 <S**2> =   0.000000
    66a ->  71a  :     0.028565 (c= -0.16901044)
    68a ->  72a  :     0.025544 (c=  0.15982447)
    69a ->  72a  :     0.600733 (c= -0.77506989)
    69a ->  73a  :     0.012331 (c=  0.11104346)
    69a ->  74a  :     0.092534 (c= -0.30419337)
    69a ->  77a  :     0.013718 (c= -0.11712524)
    69a ->  80a  :     0.020781 (c= -0.14415732)
    69a ->  81a  :     0.026860 (c= -0.16388942)
    70a ->  72a  :     0.011600 (c= -0.10770156)
    70a ->  75a  :     0.049462 (c= -0.22239961)
    70a ->  76a  :     0.013619 (c= -0.11670229)
    70a ->  78a  :     0.026014 (c= -0.16128766)

STATE  8:  E=   0.179357 au      4.881 eV    39364.3 cm**-1 <S**2> =   0.000000
    66a ->  71a  :     0.159106 (c=  0.39888083)
    68a ->  73a  :     0.048172 (c= -0.21948096)
    69a ->  71a  :     0.010358 (c=  0.10177452)
    69a ->  73a  :     0.069793 (c=  0.26418315)
    69a ->  74a  :     0.017123 (c= -0.13085505)
    69a ->  76a  :     0.010554 (c= -0.10273311)
    69a ->  79a  :     0.031941 (c= -0.17871967)
    70a ->  73a  :     0.256311 (c=  0.50627130)
    70a ->  74a  :     0.057503 (c= -0.23979756)
    70a ->  76a  :     0.176391 (c=  0.41998964)
    70a ->  79a  :     0.040105 (c=  0.20026316)

STATE  9:  E=   0.180261 au      4.905 eV    39562.8 cm**-1 <S**2> =   0.000000
    66a ->  71a  :     0.067455 (c=  0.25972071)
    68a ->  71a  :     0.011143 (c= -0.10556270)
    68a ->  73a  :     0.020878 (c= -0.14449273)
    69a ->  71a  :     0.013154 (c= -0.11468953)
    69a ->  73a  :     0.137957 (c=  0.37142538)
    69a ->  74a  :     0.032332 (c= -0.17980994)
    69a ->  79a  :     0.030203 (c=  0.17379096)
    70a ->  73a  :     0.362397 (c= -0.60199399)
    70a ->  74a  :     0.080351 (c=  0.28346311)
    70a ->  76a  :     0.082522 (c=  0.28726676)
    70a ->  79a  :     0.038385 (c=  0.19592140)

STATE 10:  E=   0.186828 au      5.084 eV    41004.0 cm**-1 <S**2> =   0.000000
    68a ->  71a  :     0.017178 (c= -0.13106399)
    68a ->  76a  :     0.017459 (c= -0.13213195)
    68a ->  79a  :     0.021397 (c=  0.14627633)
    69a ->  76a  :     0.682642 (c= -0.82622133)
    69a ->  79a  :     0.137600 (c= -0.37094424)
    70a ->  73a  :     0.015792 (c= -0.12566555)
    70a ->  76a  :     0.032809 (c= -0.18113142)


-----------------------------
TD-DFT/TDA-EXCITATION SPECTRA
-----------------------------

Center of mass = (  2.8210,  0.1464,  0.1733)
Calculating the Dipole integrals                  ... done
Transforming integrals                            ... done
Calculating the Linear Momentum integrals         ... done
Transforming integrals                            ... done
Calculating angular momentum integrals            ... done
Transforming integrals                            ... done

-----------------------------------------------------------------------------
         ABSORPTION SPECTRUM VIA TRANSITION ELECTRIC DIPOLE MOMENTS
-----------------------------------------------------------------------------
State   Energy    Wavelength  fosc         T2        TX        TY        TZ  
        (cm-1)      (nm)                 (au**2)    (au)      (au)      (au) 
-----------------------------------------------------------------------------
   1   24101.0    414.9   0.026607008   0.36344   0.07470  -0.53002  -0.27739
   2   25576.5    391.0   0.874565287  11.25711   3.34400   0.17644   0.20890
   3   28117.3    355.7   0.002801901   0.03281  -0.00143  -0.07200   0.16619
   4   34380.8    290.9   0.011011681   0.10544  -0.02618   0.29428   0.13474
   5   36737.7    272.2   1.608113478  14.41053   3.78317   0.20344   0.23824
   6   41305.9    242.1   0.014073129   0.11216  -0.06670   0.32330   0.05647
   7   41393.6    241.6   0.001201971   0.00956   0.09296   0.02797   0.01162
   8   39364.3    254.0   0.508688367   4.25427   1.88277   0.72165   0.43436
   9   39562.8    252.8   0.331645958   2.75971   1.36493  -0.86080  -0.39461
  10   41004.0    243.9   0.026939239   0.21629   0.09215  -0.40436  -0.21046

-----------------------------------------------------------------------------
         ABSORPTION SPECTRUM VIA TRANSITION VELOCITY DIPOLE MOMENTS
-----------------------------------------------------------------------------
State   Energy    Wavelength   fosc        P2         PX        PY        PZ  
        (cm-1)      (nm)                 (au**2)     (au)      (au)      (au) 
-----------------------------------------------------------------------------
   1   24101.0    414.9   0.074823278   0.01232   0.00653  -0.09655  -0.05440
   2   25576.5    391.0   0.285052690   0.04983  -0.22257  -0.01065  -0.01330
   3   28117.3    355.7   0.009642920   0.00185  -0.00182  -0.01948   0.03835
   4   34380.8    290.9   0.002009322   0.00047  -0.00112   0.02051   0.00708
   5   36737.7    272.2   0.879017592   0.22071  -0.46829  -0.02444  -0.02853
   6   41305.9    242.1   0.006501666   0.00184   0.00440  -0.02615   0.03365
   7   41393.6    241.6   0.000023921   0.00001   0.00053  -0.00160   0.00198
   8   39364.3    254.0   0.258326393   0.06950  -0.26045  -0.02529  -0.03204
   9   39562.8    252.8   0.116449586   0.03149  -0.17678   0.00809   0.01310
  10   41004.0    243.9   0.001903129   0.00053  -0.00948   0.01986   0.00700

-------------------------------------------------------------------
                             CD SPECTRUM
-------------------------------------------------------------------
State  Energy     Wavelength     R         MX        MY        MZ   
       (cm-1)       (nm)     (1e40*cgs)   (au)      (au)      (au)  
-------------------------------------------------------------------
   1   24101.0    414.9     -6.60677  -0.00235   0.02328   0.00541
   2   25576.5    391.0    -13.52322  -0.00855   0.00085  -0.00121
   3   28117.3    355.7     -0.23405   0.00086  -0.00709  -0.00605
   4   34380.8    290.9      1.21280   0.00184   0.04153  -0.07126
   5   36737.7    272.2    -50.38765  -0.02795  -0.00412  -0.00119
   6   41305.9    242.1    -74.54139   0.02795  -0.46925  -0.08033
   7   41393.6    241.6      0.88068   0.02849  -0.02717  -0.00177
   8   39364.3    254.0     30.69237  -0.00368  -0.00667   0.17690
   9   39562.8    252.8     57.70628   0.02088   0.01263  -0.26553
  10   41004.0    243.9      0.61342  -0.00924  -0.14121   0.26109

-------------------------------------------------------------------
         CD SPECTRUM VIA TRANSITION VELOCITY DIPOLE MOMENTS        
-------------------------------------------------------------------
State  Energy     Wavelength     R         MX        MY        MZ   
       (cm-1)       (nm)     (1e40*cgs)   (au)      (au)      (au)  
-------------------------------------------------------------------
   1   24101.0    414.9    -10.97829  -0.00235   0.02328   0.00541
   2   25576.5    391.0      7.72451  -0.00855   0.00085  -0.00121
   3   28117.3    355.7     -0.35152   0.00086  -0.00709  -0.00605
   4   34380.8    290.9      1.03924   0.00184   0.04153  -0.07126
   5   36737.7    272.2     37.24930  -0.02795  -0.00412  -0.00119
   6   41305.9    242.1     24.27542   0.02795  -0.46925  -0.08033
   7   41393.6    241.6      0.13742   0.02849  -0.02717  -0.00177
   8   39364.3    254.0    -11.93822  -0.00368  -0.00667   0.17690
   9   39562.8    252.8    -18.47885   0.02088   0.01263  -0.26553
  10   41004.0    243.9     -2.24657  -0.00924  -0.14121   0.26109

Total run time:     5404.513 sec

           *** ORCA-CIS/TD-DFT FINISHED WITHOUT ERROR ***

Maximum memory used throughout the entire CIS-calculation: 962.4 MB

-----------------------
CIS/TD-DFT TOTAL ENERGY
-----------------------

    E(SCF)  =  -1600.010977208 Eh
    DE(CIS) =      0.109812051 Eh (Root  1)
    ----------------------------- ---------
    E(tot)  =  -1599.901165157 Eh



-------------------------------------------------------------------------------
                          DFT DISPERSION CORRECTION                            
                                                                               
                              DFTD3 V3.1  Rev 1                                
                          USING Becke-Johnson damping                          
-------------------------------------------------------------------------------
The B2PLYP functional is recognized
Active option DFTDOPT                   ...         4   

molecular C6(AA) [au] = 11937.889779 


            DFT-D V3
 parameters
 s6 scaling factor         :     0.6400 
 a1 scaling factor         :     0.3065 
 s8 scaling factor         :     0.9147 
 a2 scaling factor         :     5.0570 
 ad hoc parameters k1-k3   :    16.0000     1.3333    -4.0000 

 Edisp/kcal,au: -19.627261405290  -0.031278028656 
 E6   /kcal   : -10.653340157 
 E8   /kcal   :  -8.973921249 
 % E8         :  45.721718702 

-------------------------   ----------------
Dispersion correction           -0.031278029
-------------------------   ----------------


-------------------------   --------------------
FINAL SINGLE POINT ENERGY     -1599.932443186128
-------------------------   --------------------


                            ***************************************
                            *     ORCA property calculations      *
                            ***************************************


  WARNING: The energy has been calculated at the MP2 level but the densities
           used in the property calculations are still SCF densities
           MP2 response densities have not been calculated 
           use %mp2 Density relaxed end
           or  %mp2 Density unrelaxed end

                                    ---------------------
                                    Active property flags
                                    ---------------------
   (+) Dipole Moment


------------------------------------------------------------------------------
                       ORCA ELECTRIC PROPERTIES CALCULATION
------------------------------------------------------------------------------

Dipole Moment Calculation                       ... on
Quadrupole Moment Calculation                   ... off
Polarizability Calculation                      ... off
GBWName                                         ... optpbed3-b2plyp-test-615_job2.gbw
Electron density                                ... optpbed3-b2plyp-test-615_job2.scfp
The origin for moment calculation is the CENTER OF MASS  = ( 2.820999,  0.146380  0.173251)

-------------
DIPOLE MOMENT
-------------
                                X             Y             Z
Electronic contribution:     31.79275       1.64634       1.95309
Nuclear contribution   :    -36.28017      -1.88164      -2.23057
                        -----------------------------------------
Total Dipole Moment    :     -4.48741      -0.23529      -0.27748
                        -----------------------------------------
Magnitude (a.u.)       :      4.50213
Magnitude (Debye)      :     11.44352



--------------------
Rotational spectrum 
--------------------
 
Rotational constants in cm-1:     0.036047     0.005012     0.004401 
Rotational constants in MHz :  1080.674273   150.244538   131.944570 

 Dipole components along the rotational axes: 
x,y,z [a.u.] :     4.502134    -0.003098    -0.000185 
x,y,z [Debye]:    11.443514    -0.007873    -0.000470 

 

Timings for individual modules:

Sum of individual times         ...     6815.302 sec (= 113.588 min)
GTO integral calculation        ...        4.271 sec (=   0.071 min)   0.1 %
SCF iterations                  ...      837.014 sec (=  13.950 min)  12.3 %
MP2 module                      ...      568.177 sec (=   9.470 min)   8.3 %
CIS module                      ...     5405.840 sec (=  90.097 min)  79.3 %



                             ****ORCA TERMINATED NORMALLY****
TOTAL RUN TIME: 0 days 4 hours 16 minutes 39 seconds 992 msec
