
                                 *****************
                                 * O   R   C   A *
                                 *****************

                                            #,                                       
                                            ###                                      
                                            ####                                     
                                            #####                                    
                                            ######                                   
                                           ########,                                 
                                     ,,################,,,,,                         
                               ,,#################################,,                 
                          ,,##########################################,,             
                       ,#########################################, ''#####,          
                    ,#############################################,,   '####,        
                  ,##################################################,,,,####,       
                ,###########''''           ''''###############################       
              ,#####''   ,,,,##########,,,,          '''####'''          '####       
            ,##' ,,,,###########################,,,                        '##       
           ' ,,###''''                  '''############,,,                           
         ,,##''                                '''############,,,,        ,,,,,,###''
      ,#''                                            '''#######################'''  
     '                                                          ''''####''''         
             ,#######,   #######,   ,#######,      ##                                
            ,#'     '#,  ##    ##  ,#'     '#,    #''#        ######   ,####,        
            ##       ##  ##   ,#'  ##            #'  '#       #        #'  '#        
            ##       ##  #######   ##           ,######,      #####,   #    #        
            '#,     ,#'  ##    ##  '#,     ,#' ,#      #,         ##   #,  ,#        
             '#######'   ##     ##  '#######'  #'      '#     #####' # '####'        



                  #######################################################
                  #                        -***-                        #
                  #          Department of theory and spectroscopy      #
                  #    Directorship and core code : Frank Neese         #
                  #        Max Planck Institute fuer Kohlenforschung    #
                  #                Kaiser Wilhelm Platz 1               #
                  #                 D-45470 Muelheim/Ruhr               #
                  #                      Germany                        #
                  #                                                     #
                  #                  All rights reserved                #
                  #                        -***-                        #
                  #######################################################


                         Program Version 5.0.2 -  RELEASE  -


 With contributions from (in alphabetic order):
   Daniel Aravena         : Magnetic Suceptibility
   Michael Atanasov       : Ab Initio Ligand Field Theory (pilot matlab implementation)
   Alexander A. Auer      : GIAO ZORA, VPT2 properties, NMR spectrum
   Ute Becker             : Parallelization
   Giovanni Bistoni       : ED, misc. LED, open-shell LED, HFLD
   Martin Brehm           : Molecular dynamics
   Dmytro Bykov           : SCF Hessian
   Vijay G. Chilkuri      : MRCI spin determinant printing, contributions to CSF-ICE
   Dipayan Datta          : RHF DLPNO-CCSD density
   Achintya Kumar Dutta   : EOM-CC, STEOM-CC
   Dmitry Ganyushin       : Spin-Orbit,Spin-Spin,Magnetic field MRCI
   Miquel Garcia          : C-PCM and meta-GGA Hessian, CC/C-PCM, Gaussian charge scheme
   Yang Guo               : DLPNO-NEVPT2, F12-NEVPT2, CIM, IAO-localization
   Andreas Hansen         : Spin unrestricted coupled pair/coupled cluster methods
   Benjamin Helmich-Paris : MC-RPA, TRAH-SCF, COSX integrals
   Lee Huntington         : MR-EOM, pCC
   Robert Izsak           : Overlap fitted RIJCOSX, COSX-SCS-MP3, EOM
   Marcus Kettner         : VPT2
   Christian Kollmar      : KDIIS, OOCD, Brueckner-CCSD(T), CCSD density, CASPT2, CASPT2-K
   Simone Kossmann        : Meta GGA functionals, TD-DFT gradient, OOMP2, MP2 Hessian
   Martin Krupicka        : Initial AUTO-CI
   Lucas Lang             : DCDCAS
   Marvin Lechner         : AUTO-CI (C++ implementation), FIC-MRCC
   Dagmar Lenk            : GEPOL surface, SMD
   Dimitrios Liakos       : Extrapolation schemes; Compound Job, initial MDCI parallelization
   Dimitrios Manganas     : Further ROCIS development; embedding schemes
   Dimitrios Pantazis     : SARC Basis sets
   Anastasios Papadopoulos: AUTO-CI, single reference methods and gradients
   Taras Petrenko         : DFT Hessian,TD-DFT gradient, ASA, ECA, R-Raman, ABS, FL, XAS/XES, NRVS
   Peter Pinski           : DLPNO-MP2, DLPNO-MP2 Gradient
   Christoph Reimann      : Effective Core Potentials
   Marius Retegan         : Local ZFS, SOC
   Christoph Riplinger    : Optimizer, TS searches, QM/MM, DLPNO-CCSD(T), (RO)-DLPNO pert. Triples
   Tobias Risthaus        : Range-separated hybrids, TD-DFT gradient, RPA, STAB
   Michael Roemelt        : Original ROCIS implementation
   Masaaki Saitow         : Open-shell DLPNO-CCSD energy and density
   Barbara Sandhoefer     : DKH picture change effects
   Avijit Sen             : IP-ROCIS
   Kantharuban Sivalingam : CASSCF convergence, NEVPT2, FIC-MRCI
   Bernardo de Souza      : ESD, SOC TD-DFT
   Georgi Stoychev        : AutoAux, RI-MP2 NMR, DLPNO-MP2 response
   Willem Van den Heuvel  : Paramagnetic NMR
   Boris Wezisla          : Elementary symmetry handling
   Frank Wennmohs         : Technical directorship


 We gratefully acknowledge several colleagues who have allowed us to
 interface, adapt or use parts of their codes:
   Stefan Grimme, W. Hujo, H. Kruse, P. Pracht,  : VdW corrections, initial TS optimization,
                  C. Bannwarth, S. Ehlert          DFT functionals, gCP, sTDA/sTD-DF
   Ed Valeev, F. Pavosevic, A. Kumar             : LibInt (2-el integral package), F12 methods
   Garnet Chan, S. Sharma, J. Yang, R. Olivares  : DMRG
   Ulf Ekstrom                                   : XCFun DFT Library
   Mihaly Kallay                                 : mrcc  (arbitrary order and MRCC methods)
   Jiri Pittner, Ondrej Demel                    : Mk-CCSD
   Frank Weinhold                                : gennbo (NPA and NBO analysis)
   Christopher J. Cramer and Donald G. Truhlar   : smd solvation model
   Lars Goerigk                                  : TD-DFT with DH, B97 family of functionals
   V. Asgeirsson, H. Jonsson                     : NEB implementation
   FAccTs GmbH                                   : IRC, NEB, NEB-TS, DLPNO-Multilevel, CI-OPT
                                                   MM, QMMM, 2- and 3-layer-ONIOM, Crystal-QMMM,
                                                   LR-CPCM, SF, NACMEs, symmetry and pop. for TD-DFT,
                                                   nearIR, NL-DFT gradient (VV10), updates on ESD,
                                                   ML-optimized integration grids
   S Lehtola, MJT Oliveira, MAL Marques          : LibXC Library
   Liviu Ungur et al                             : ANISO software


 Your calculation uses the libint2 library for the computation of 2-el integrals
 For citations please refer to: http://libint.valeyev.net

 Your ORCA version has been built with support for libXC version: 5.1.0
 For citations please refer to: https://tddft.org/programs/libxc/

 This ORCA versions uses:
   CBLAS   interface :  Fast vector & matrix operations
   LAPACKE interface :  Fast linear algebra routines
   SCALAPACK package :  Parallel linear algebra routines
   Shared memory     :  Shared parallel matrices
   BLAS/LAPACK       :  OpenBLAS 0.3.15  USE64BITINT DYNAMIC_ARCH NO_AFFINITY Haswell SINGLE_THREADED
        Core in use  :  Haswell
   Copyright (c) 2011-2014, The OpenBLAS Project


Your calculation utilizes the atom-pairwise dispersion correction
with the Becke-Johnson damping scheme (D3BJ)
Cite in your paper:
S.Grimme, S.Ehrlich, L.Goerigk, J Comput Chem, (2011), 32, 1456–1465 
S.Grimme, J.Antony, S.Ehrlich and H.Krieg, J.Chem.Phys., 132, (2010), 154104 
   

Your calculation utilizes the SMD solvation module
Please cite in your paper:
A.V. Marenich, C.J. Cramer, D.G. Truhlar J. Phys. Chem. B, 113, (2009), 6378 

================================================================================

----- Orbital basis set information -----
Your calculation utilizes the basis: aug-cc-pVTZ 
    H, B-Ne : Obtained from the ccRepo (grant-hill.group.shef.ac.uk/ccrepo) Feb. 2017
              R. A. Kendall, T. H. Dunning, Jr., R. J. Harrison, J. Chem. Phys. 96, 6796 (1992)
         He : Obtained from the ccRepo (grant-hill.group.shef.ac.uk/ccrepo) Feb. 2017
              D. E. Woon, T. H. Dunning, Jr., J. Chem. Phys. 100, 2975 (1994)
  Li-Be, Na : Obtained from the ccRepo (grant-hill.group.shef.ac.uk/ccrepo) Feb. 2017
              B. P. Prascher, D. E. Woon, K. A. Peterson, T. H. Dunning, Jr., A. K. Wilson, Theor. Chem. Acc. 128, 69 (2011)
         Mg : Obtained from the Peterson Research Group Website (tyr0.chem.wsu.edu/~kipeters) Feb. 2017
              B. P. Prascher, D. E. Woon, K. A. Peterson, T. H. Dunning, Jr., A. K. Wilson, Theor. Chem. Acc. 128, 69 (2011)
      Al-Ar : Obtained from the ccRepo (grant-hill.group.shef.ac.uk/ccrepo) Feb. 2017
              D. E. Woon, T. H. Dunning, Jr., J. Chem. Phys. 98, 1358 (1993)
      Sc-Zn : Obtained from the ccRepo (grant-hill.group.shef.ac.uk/ccrepo) Feb. 2017
              N. B. Balabanov, K. A. Peterson, J. Chem. Phys. 123, 064107 (2005)
              N. B. Balabanov, K. A. Peterson, J. Chem. Phys. 125, 074110 (2006)
      Ga-Kr : Obtained from the ccRepo (grant-hill.group.shef.ac.uk/ccrepo) Feb. 2017
              A. K. Wilson, D. E. Woon, K. A. Peterson, T. H. Dunning, Jr., J. Chem. Phys. 110, 7667 (1999)
     Ag, Au : Obtained from the Peterson Research Group Website (tyr0.chem.wsu.edu/~kipeters) Feb. 2017
              K. A. Peterson, C. Puzzarini, Theor. Chem. Acc. 114, 283 (2005)

The basis set includes element-specific modifications.

Your calculation utilizes the basis: cc-pVTZ 
       H, B-Ne : Obtained from the ccRepo (grant-hill.group.shef.ac.uk/ccrepo) Feb. 2017
                 T. H. Dunning, Jr., J. Chem. Phys. 90, 1007 (1989)
            He : Obtained from the ccRepo (grant-hill.group.shef.ac.uk/ccrepo) Feb. 2017
                 D. E. Woon, T. H. Dunning, Jr., J. Chem. Phys. 100, 2975 (1994)
  Li-Be, Na-Mg : Obtained from the ccRepo (grant-hill.group.shef.ac.uk/ccrepo) Feb. 2017
                 B. P. Prascher, D. E. Woon, K. A. Peterson, T. H. Dunning, Jr., A. K. Wilson, Theor. Chem. Acc. 128, 69 (2011)
         Al-Ar : Obtained from the ccRepo (grant-hill.group.shef.ac.uk/ccrepo) Feb. 2017
                 D. E. Woon, T. H. Dunning, Jr., J. Chem. Phys. 98, 1358 (1993)
            Ca : Obtained from the Peterson Research Group Website (tyr0.chem.wsu.edu/~kipeters) Feb. 2017
                 J. Koput, K. A. Peterson, J. Phys. Chem. 106, 9595 (2002)
         Sc-Zn : Obtained from the ccRepo (grant-hill.group.shef.ac.uk/ccrepo) Feb. 2017
                 N. B. Balabanov, K. A. Peterson, J. Chem. Phys. 123, 064107 (2005)
                 N. B. Balabanov, K. A. Peterson, J. Chem. Phys. 125, 074110 (2006)
         Ga-Kr : Obtained from the ccRepo (grant-hill.group.shef.ac.uk/ccrepo) Feb. 2017
                 A. K. Wilson, D. E. Woon, K. A. Peterson, T. H. Dunning, Jr., J. Chem. Phys. 110, 7667 (1999)
             Y : Obtained from the ccRepo (grant-hill.group.shef.ac.uk/ccrepo) Feb. 2017
                 K. A. Peterson, D. Figgen, M. Dolg, H. Stoll, J. Chem. Phys. 126, 124101 (2007)
        Ag, Au : Obtained from the Peterson Research Group Website (tyr0.chem.wsu.edu/~kipeters) Feb. 2017
                 K. A. Peterson, C. Puzzarini, Theor. Chem. Acc. 114, 283 (2005)

----- AuxJ basis set information -----
Your calculation utilizes the auxiliary basis: aug-cc-pVTZ/JK 
  H, B-F, Al-Cl, Ga-Br : Obtained from the TURBOMOLE 7.0 basis set library

The basis set includes element-specific modifications.

Your calculation utilizes the auxiliary basis: cc-pVTZ/JK 
  H, B-F, Al-Cl, Ga-Br : Obtained from the TURBOMOLE 7.0 basis set library

----- AuxC basis set information -----
Your calculation utilizes the auxiliary basis: aug-cc-pVTZ/C 
  H-He, B-F, Al-Ar, Ga-Kr : Obtained from the EMSL Basis Set Exchange (bse.pnl.gov) Feb. 2017
                            F. Weigend, A. Kohn, C. Hattig, J. Chem. Phys. 116, 3175 (2002)
                   Be, Mg : Obtained from the TURBOMOLE 7.0 basis set library
                            C. Haettig, Phys. Chem. Chem. Phys. 7, 59 (2005)
                       Ne : Obtained from the EMSL Basis Set Exchange (bse.pnl.gov) Feb. 2017
                            C. Haettig, Phys. Chem. Chem. Phys. 7, 59 (2005)
                            F. Weigend, A. Kohn, C. Hattig, J. Chem. Phys. 116, 3175 (2002)
                    Sc-Zn : Obtained from the EMSL Basis Set Exchange (bse.pnl.gov) Feb. 2017
                            J. G. Hill, J. A. Platts, J. Chem. Phys. 128, 044104 (2008)

The basis set includes element-specific modifications.

Your calculation utilizes the auxiliary basis: cc-pVTZ/C 
  Obtained from the EMSL Basis Set Exchange (bse.pnl.gov) Feb. 2017
  H-He, B-F, Al-Ar, Ga-Kr : F. Weigend, A. Kohn, C. Hattig, J. Chem. Phys. 116, 3175 (2002)
             Li-Be, Na-Mg : C. Haettig, Phys. Chem. Chem. Phys. 7, 59 (2005)
                       Ne : C. Haettig, Phys. Chem. Chem. Phys. 7, 59 (2005)
                            F. Weigend, A. Kohn, C. Hattig, J. Chem. Phys. 116, 3175 (2002)
                    Sc-Zn : J. G. Hill, J. A. Platts, J. Chem. Phys. 128, 044104 (2008)

================================================================================
                                        WARNINGS
                       Please study these warnings very carefully!
================================================================================


WARNING: Geometry Optimization
  ===> : Switching off AutoStart
         For restart on a previous wavefunction, please use MOREAD

INFO   : the flag for use of the SHARK integral package has been found!



***************************************
The coordinates will be read from file: 
***************************************


Your calculation utilizes the atom-pairwise dispersion correction
with the Becke-Johnson damping scheme (D3BJ)
Cite in your paper:
S.Grimme, S.Ehrlich, L.Goerigk, J Comput Chem, (2011), 32, 1456–1465 
S.Grimme, J.Antony, S.Ehrlich and H.Krieg, J.Chem.Phys., 132, (2010), 154104 
   

Your calculation utilizes the SMD solvation module
Please cite in your paper:
A.V. Marenich, C.J. Cramer, D.G. Truhlar J. Phys. Chem. B, 113, (2009), 6378 

================================================================================

----- Orbital basis set information -----
Your calculation utilizes the basis: aug-cc-pVTZ 
    H, B-Ne : Obtained from the ccRepo (grant-hill.group.shef.ac.uk/ccrepo) Feb. 2017
              R. A. Kendall, T. H. Dunning, Jr., R. J. Harrison, J. Chem. Phys. 96, 6796 (1992)
         He : Obtained from the ccRepo (grant-hill.group.shef.ac.uk/ccrepo) Feb. 2017
              D. E. Woon, T. H. Dunning, Jr., J. Chem. Phys. 100, 2975 (1994)
  Li-Be, Na : Obtained from the ccRepo (grant-hill.group.shef.ac.uk/ccrepo) Feb. 2017
              B. P. Prascher, D. E. Woon, K. A. Peterson, T. H. Dunning, Jr., A. K. Wilson, Theor. Chem. Acc. 128, 69 (2011)
         Mg : Obtained from the Peterson Research Group Website (tyr0.chem.wsu.edu/~kipeters) Feb. 2017
              B. P. Prascher, D. E. Woon, K. A. Peterson, T. H. Dunning, Jr., A. K. Wilson, Theor. Chem. Acc. 128, 69 (2011)
      Al-Ar : Obtained from the ccRepo (grant-hill.group.shef.ac.uk/ccrepo) Feb. 2017
              D. E. Woon, T. H. Dunning, Jr., J. Chem. Phys. 98, 1358 (1993)
      Sc-Zn : Obtained from the ccRepo (grant-hill.group.shef.ac.uk/ccrepo) Feb. 2017
              N. B. Balabanov, K. A. Peterson, J. Chem. Phys. 123, 064107 (2005)
              N. B. Balabanov, K. A. Peterson, J. Chem. Phys. 125, 074110 (2006)
      Ga-Kr : Obtained from the ccRepo (grant-hill.group.shef.ac.uk/ccrepo) Feb. 2017
              A. K. Wilson, D. E. Woon, K. A. Peterson, T. H. Dunning, Jr., J. Chem. Phys. 110, 7667 (1999)
     Ag, Au : Obtained from the Peterson Research Group Website (tyr0.chem.wsu.edu/~kipeters) Feb. 2017
              K. A. Peterson, C. Puzzarini, Theor. Chem. Acc. 114, 283 (2005)

The basis set includes element-specific modifications.

Your calculation utilizes the basis: cc-pVTZ 
       H, B-Ne : Obtained from the ccRepo (grant-hill.group.shef.ac.uk/ccrepo) Feb. 2017
                 T. H. Dunning, Jr., J. Chem. Phys. 90, 1007 (1989)
            He : Obtained from the ccRepo (grant-hill.group.shef.ac.uk/ccrepo) Feb. 2017
                 D. E. Woon, T. H. Dunning, Jr., J. Chem. Phys. 100, 2975 (1994)
  Li-Be, Na-Mg : Obtained from the ccRepo (grant-hill.group.shef.ac.uk/ccrepo) Feb. 2017
                 B. P. Prascher, D. E. Woon, K. A. Peterson, T. H. Dunning, Jr., A. K. Wilson, Theor. Chem. Acc. 128, 69 (2011)
         Al-Ar : Obtained from the ccRepo (grant-hill.group.shef.ac.uk/ccrepo) Feb. 2017
                 D. E. Woon, T. H. Dunning, Jr., J. Chem. Phys. 98, 1358 (1993)
            Ca : Obtained from the Peterson Research Group Website (tyr0.chem.wsu.edu/~kipeters) Feb. 2017
                 J. Koput, K. A. Peterson, J. Phys. Chem. 106, 9595 (2002)
         Sc-Zn : Obtained from the ccRepo (grant-hill.group.shef.ac.uk/ccrepo) Feb. 2017
                 N. B. Balabanov, K. A. Peterson, J. Chem. Phys. 123, 064107 (2005)
                 N. B. Balabanov, K. A. Peterson, J. Chem. Phys. 125, 074110 (2006)
         Ga-Kr : Obtained from the ccRepo (grant-hill.group.shef.ac.uk/ccrepo) Feb. 2017
                 A. K. Wilson, D. E. Woon, K. A. Peterson, T. H. Dunning, Jr., J. Chem. Phys. 110, 7667 (1999)
             Y : Obtained from the ccRepo (grant-hill.group.shef.ac.uk/ccrepo) Feb. 2017
                 K. A. Peterson, D. Figgen, M. Dolg, H. Stoll, J. Chem. Phys. 126, 124101 (2007)
        Ag, Au : Obtained from the Peterson Research Group Website (tyr0.chem.wsu.edu/~kipeters) Feb. 2017
                 K. A. Peterson, C. Puzzarini, Theor. Chem. Acc. 114, 283 (2005)

----- AuxJ basis set information -----
Your calculation utilizes the auxiliary basis: aug-cc-pVTZ/JK 
  H, B-F, Al-Cl, Ga-Br : Obtained from the TURBOMOLE 7.0 basis set library

The basis set includes element-specific modifications.

Your calculation utilizes the auxiliary basis: cc-pVTZ/JK 
  H, B-F, Al-Cl, Ga-Br : Obtained from the TURBOMOLE 7.0 basis set library

----- AuxC basis set information -----
Your calculation utilizes the auxiliary basis: aug-cc-pVTZ/C 
  H-He, B-F, Al-Ar, Ga-Kr : Obtained from the EMSL Basis Set Exchange (bse.pnl.gov) Feb. 2017
                            F. Weigend, A. Kohn, C. Hattig, J. Chem. Phys. 116, 3175 (2002)
                   Be, Mg : Obtained from the TURBOMOLE 7.0 basis set library
                            C. Haettig, Phys. Chem. Chem. Phys. 7, 59 (2005)
                       Ne : Obtained from the EMSL Basis Set Exchange (bse.pnl.gov) Feb. 2017
                            C. Haettig, Phys. Chem. Chem. Phys. 7, 59 (2005)
                            F. Weigend, A. Kohn, C. Hattig, J. Chem. Phys. 116, 3175 (2002)
                    Sc-Zn : Obtained from the EMSL Basis Set Exchange (bse.pnl.gov) Feb. 2017
                            J. G. Hill, J. A. Platts, J. Chem. Phys. 128, 044104 (2008)

The basis set includes element-specific modifications.

Your calculation utilizes the auxiliary basis: cc-pVTZ/C 
  Obtained from the EMSL Basis Set Exchange (bse.pnl.gov) Feb. 2017
  H-He, B-F, Al-Ar, Ga-Kr : F. Weigend, A. Kohn, C. Hattig, J. Chem. Phys. 116, 3175 (2002)
             Li-Be, Na-Mg : C. Haettig, Phys. Chem. Chem. Phys. 7, 59 (2005)
                       Ne : C. Haettig, Phys. Chem. Chem. Phys. 7, 59 (2005)
                            F. Weigend, A. Kohn, C. Hattig, J. Chem. Phys. 116, 3175 (2002)
                    Sc-Zn : J. G. Hill, J. A. Platts, J. Chem. Phys. 128, 044104 (2008)

================================================================================
                                        WARNINGS
                       Please study these warnings very carefully!
================================================================================

INFO   : Checking CIS options ...
  ===> : (D) CORRECTION FOUND - SETTING MODE=3
  ===> : JK MODE FOUND - ACTIVATING RI-MP2 CODE
  ===> : MP2 AND CIS FOUND - CHECKING
WARNING: CIS(D) and MP2 runs must have the same orbital window
  ===> : adjusting orbital windows

WARNING: No MP2 level density has been requested!
         To caclulate MP2 level properties use
         %mp2 Density relaxed end
         or
         %mp2 Density unrelaxed end
         Otherwise for double-hybrid DFT only the energy is correct!

WARNING: The frozen-core approximation is turned on by default for 
         the MP2 part of double-hybrid DFT.

INFO   : the flag for use of the SHARK integral package has been found!

================================================================================
                                       INPUT FILE
================================================================================
NAME = optpbed3-b2plyp-test-601.inp
|  1> ! pbe0 d3bj aug-cc-PVTZ RIJCOSX Opt
|  2> %maxcore 4000
|  3> %basis
|  4>  AuxJ "aug-cc-PVTZ/JK"
|  5>  AuxC "aug-cc-PVTZ/C"
|  6>  newGTO H "cc-PVTZ" end
|  7>  newAuxJGTO H "cc-PVTZ/JK" end
|  8>  newAuxCGTO H "cc-PVTZ/C" end
|  9> end
| 10> %cpcm
| 11>  SMD true
| 12>  SMDsolvent "cyclohexane"
| 13> end
| 14> %pal nprocs 4 end
| 15> * xyz 0 1
| 16> N          0.68620       -1.76300        4.40860
| 17> C          0.52070       -1.33720        3.35720
| 18> C          0.31700       -0.81420        2.06580
| 19> C         -0.95910       -0.59470        1.52830
| 20> N         -2.18700       -0.80840        2.06060
| 21> C         -3.04910       -0.43530        1.14190
| 22> C         -4.45590       -0.44780        1.17740
| 23> C         -5.15190       -0.00700        0.09070
| 24> C         -4.47820        0.45950       -1.06410
| 25> C         -3.12040        0.47260       -1.10080
| 26> N         -2.42750        0.03570       -0.02400
| 27> C         -1.08300       -0.05880        0.20490
| 28> N         -0.10700        0.27490       -0.62350
| 29> C          1.08380        0.05710       -0.08980
| 30> C          1.37370       -0.46990        1.21110
| 31> N          2.71430       -0.54610        1.39410
| 32> C          3.25660       -0.09790        0.28440
| 33> C          4.61540        0.03780       -0.05610
| 34> C          4.94680        0.53360       -1.28240
| 35> C          3.94480        0.91040       -2.20930
| 36> C          2.63270        0.78040       -1.88310
| 37> N          2.30120        0.28880       -0.66700
| 38> H         -4.93620       -0.80880        2.07090
| 39> H         -6.23070       -0.00910        0.09950
| 40> H         -5.04280        0.80440       -1.91420
| 41> H         -2.53380        0.81170       -1.94050
| 42> H          5.35130       -0.25810        0.67210
| 43> H          5.98310        0.64470       -1.56120
| 44> H          4.22330        1.30040       -3.17410
| 45> H          1.81150        1.04420       -2.53140
| 46> *
| 47> 
| 48> 
| 49> $new_job
| 50> ! b2plyp aug-cc-PVTZ RIJCOSX SP
| 51> %maxcore 4000
| 52> %basis
| 53>  AuxJ "aug-cc-PVTZ/JK"
| 54>  AuxC "aug-cc-PVTZ/C"
| 55>  newGTO H "cc-PVTZ" end
| 56>  newAuxJGTO H "cc-PVTZ/JK" end
| 57>  newAuxCGTO H "cc-PVTZ/C" end
| 58> end
| 59> %cpcm
| 60>  SMD true
| 61>  SMDsolvent "cyclohexane"
| 62> end
| 63> %pal nprocs 4 end
| 64> %tddft
| 65>  nroots 10
| 66>  maxdim 7
| 67> end
| 68> * xyzfile 0 1
| 69> 
| 70>                          ****END OF INPUT****
================================================================================


                 $$$$$$$$$$$$$$$$$$$$$$$$$$$$$$$$$$$$$$$$$$$$$$ 
                 $ THERE ARE  2 JOBS TO BE PROCESSED THIS RUN $
                 $$$$$$$$$$$$$$$$$$$$$$$$$$$$$$$$$$$$$$$$$$$$$$ 




                 $$$$$$$$$$$$$$$$  JOB NUMBER  1 $$$$$$$$$$$$$$


                       *****************************
                       * Geometry Optimization Run *
                       *****************************

Geometry optimization settings:
Update method            Update   .... BFGS
Choice of coordinates    CoordSys .... Z-matrix Internals
Initial Hessian          InHess   .... Almoef's Model

Convergence Tolerances:
Energy Change            TolE     ....  5.0000e-06 Eh
Max. Gradient            TolMAXG  ....  3.0000e-04 Eh/bohr
RMS Gradient             TolRMSG  ....  1.0000e-04 Eh/bohr
Max. Displacement        TolMAXD  ....  4.0000e-03 bohr
RMS Displacement         TolRMSD  ....  2.0000e-03 bohr
Strict Convergence                ....  False
------------------------------------------------------------------------------
                        ORCA OPTIMIZATION COORDINATE SETUP
------------------------------------------------------------------------------

The optimization will be done in new redundant internal coordinates
Making redundant internal coordinates   ...  (new redundants) done
Evaluating the initial hessian          ...  (Almloef) done
Evaluating the coordinates              ...  done
Calculating the B-matrix                .... done
Calculating the G-matrix                .... done
Diagonalizing the G-matrix              .... done
Small eigenvalue found = 1.104e-02
The first mode is                       ....   90
The number of degrees of freedom        ....   84

    -----------------------------------------------------------------
                    Redundant Internal Coordinates


    -----------------------------------------------------------------
         Definition                    Initial Value    Approx d2E/dq
    -----------------------------------------------------------------
      1. B(C   1,N   0)                  1.1464         1.369588   
      2. B(C   2,C   1)                  1.4081         0.584610   
      3. B(C   3,C   2)                  1.4020         0.597919   
      4. B(N   4,C   3)                  1.3553         0.635754   
      5. B(C   5,N   4)                  1.3139         0.739996   
      6. B(C   6,C   5)                  1.4073         0.586317   
      7. B(C   7,C   6)                  1.3637         0.688212   
      8. B(C   8,C   7)                  1.4160         0.567880   
      9. B(C   9,C   8)                  1.3584         0.701810   
     10. B(N  10,C   9)                  1.3530         0.641175   
     11. B(N  10,C   5)                  1.4027         0.534101   
     12. B(C  11,N  10)                  1.3671         0.608675   
     13. B(C  11,C   3)                  1.4332         0.533201   
     14. B(N  12,C  11)                  1.3229         0.715914   
     15. B(C  13,N  12)                  1.3230         0.715815   
     16. B(C  14,C  13)                  1.4332         0.533075   
     17. B(C  14,C   2)                  1.4020         0.597800   
     18. B(N  15,C  14)                  1.3552         0.635966   
     19. B(C  16,N  15)                  1.3139         0.740020   
     20. B(C  17,C  16)                  1.4074         0.586172   
     21. B(C  18,C  17)                  1.3636         0.688381   
     22. B(C  19,C  18)                  1.4160         0.567829   
     23. B(C  20,C  19)                  1.3583         0.702025   
     24. B(N  21,C  20)                  1.3529         0.641200   
     25. B(N  21,C  16)                  1.4027         0.534144   
     26. B(N  21,C  13)                  1.3671         0.608756   
     27. B(H  22,C   6)                  1.0767         0.378087   
     28. B(H  23,C   7)                  1.0788         0.375173   
     29. B(H  24,C   8)                  1.0772         0.377412   
     30. B(H  25,C   9)                  1.0790         0.374986   
     31. B(H  26,C  17)                  1.0767         0.378068   
     32. B(H  27,C  18)                  1.0789         0.375110   
     33. B(H  28,C  19)                  1.0773         0.377346   
     34. B(H  29,C  20)                  1.0790         0.374942   
     35. L(N   0,C   1,C   2,C   3, 2) 179.9997         0.493056   
     36. L(N   0,C   1,C   2,C   3, 1) 179.9830         0.493056   
     37. A(C   3,C   2,C  14)          114.4475         0.428432   
     38. A(C   1,C   2,C   3)          122.7819         0.426723   
     39. A(C   1,C   2,C  14)          122.7705         0.426707   
     40. A(C   2,C   3,C  11)          119.4237         0.419759   
     41. A(C   2,C   3,N   4)          130.4970         0.430362   
     42. A(N   4,C   3,C  11)          110.0792         0.421625   
     43. A(C   3,N   4,C   5)          105.9659         0.444290   
     44. A(N   4,C   5,N  10)          112.6904         0.430552   
     45. A(C   6,C   5,N  10)          117.8357         0.415711   
     46. A(N   4,C   5,C   6)          129.4738         0.440734   
     47. A(C   5,C   6,C   7)          119.1584         0.437876   
     48. A(C   7,C   6,H  22)          122.8187         0.362215   
     49. A(C   5,C   6,H  22)          118.0228         0.352484   
     50. A(C   8,C   7,H  23)          118.8850         0.350128   
     51. A(C   6,C   7,C   8)          120.9008         0.435362   
     52. A(C   6,C   7,H  23)          120.2142         0.361737   
     53. A(C   9,C   8,H  24)          119.9671         0.363317   
     54. A(C   7,C   8,H  24)          119.9805         0.350480   
     55. A(C   7,C   8,C   9)          120.0524         0.436900   
     56. A(C   8,C   9,N  10)          119.1639         0.443649   
     57. A(N  10,C   9,H  25)          116.2601         0.355163   
     58. A(C   8,C   9,H  25)          124.5760         0.362917   
     59. A(C   9,N  10,C  11)          131.2423         0.429576   
     60. A(C   5,N  10,C  11)          105.8690         0.415779   
     61. A(C   5,N  10,C   9)          122.8887         0.419649   
     62. A(N  10,C  11,N  12)          127.1042         0.438182   
     63. A(C   3,C  11,N  12)          127.5003         0.430686   
     64. A(C   3,C  11,N  10)          105.3955         0.418364   
     65. A(C  11,N  12,C  13)          111.7100         0.451235   
     66. A(N  12,C  13,C  14)          127.5000         0.430657   
     67. A(C  14,C  13,N  21)          105.3924         0.418356   
     68. A(N  12,C  13,N  21)          127.1075         0.438182   
     69. A(C   2,C  14,N  15)          130.5009         0.430373   
     70. A(C  13,C  14,N  15)          110.0807         0.421632   
     71. A(C   2,C  14,C  13)          119.4185         0.419727   
     72. A(C  14,N  15,C  16)          105.9658         0.444320   
     73. A(N  15,C  16,C  17)          129.4729         0.440717   
     74. A(C  17,C  16,N  21)          117.8357         0.415698   
     75. A(N  15,C  16,N  21)          112.6914         0.430561   
     76. A(C  16,C  17,C  18)          119.1618         0.437876   
     77. A(C  18,C  17,H  26)          122.8208         0.362228   
     78. A(C  16,C  17,H  26)          118.0174         0.352466   
     79. A(C  17,C  18,C  19)          120.8933         0.435375   
     80. A(C  19,C  18,H  27)          118.8900         0.350113   
     81. A(C  17,C  18,H  27)          120.2167         0.361742   
     82. A(C  20,C  19,H  28)          119.9650         0.363325   
     83. A(C  18,C  19,H  28)          119.9762         0.350464   
     84. A(C  18,C  19,C  20)          120.0588         0.436917   
     85. A(N  21,C  20,H  29)          116.2581         0.355159   
     86. A(C  19,C  20,H  29)          124.5764         0.362929   
     87. A(C  19,C  20,N  21)          119.1655         0.443676   
     88. A(C  16,N  21,C  20)          122.8849         0.419658   
     89. A(C  13,N  21,C  20)          131.2454         0.429589   
     90. A(C  13,N  21,C  16)          105.8697         0.415795   
     91. D(C  11,C   3,C   2,C   1)    179.9970         0.024637   
     92. D(N   4,C   3,C   2,C   1)     -0.0067         0.024637   
     93. D(C  11,C   3,C   2,C  14)     -0.0039         0.024637   
     94. D(N   4,C   3,C   2,C  14)    179.9924         0.024637   
     95. D(C   5,N   4,C   3,C  11)      0.0019         0.029766   
     96. D(C   5,N   4,C   3,C   2)   -179.9947         0.029766   
     97. D(C   6,C   5,N   4,C   3)    179.9928         0.041470   
     98. D(N  10,C   5,N   4,C   3)      0.0013         0.041470   
     99. D(C   7,C   6,C   5,N   4)   -179.9957         0.023642   
    100. D(H  22,C   6,C   5,N  10)    179.9972         0.023642   
    101. D(H  22,C   6,C   5,N   4)      0.0062         0.023642   
    102. D(C   7,C   6,C   5,N  10)     -0.0046         0.023642   
    103. D(C   8,C   7,C   6,H  22)   -180.0000         0.033264   
    104. D(H  23,C   7,C   6,C   5)   -179.9984         0.033264   
    105. D(C   8,C   7,C   6,C   5)      0.0020         0.033264   
    106. D(H  23,C   7,C   6,H  22)     -0.0003         0.033264   
    107. D(H  24,C   8,C   7,C   6)   -179.9974         0.022115   
    108. D(C   9,C   8,C   7,H  23)    179.9961         0.022115   
    109. D(H  24,C   8,C   7,H  23)      0.0029         0.022115   
    110. D(C   9,C   8,C   7,C   6)     -0.0042         0.022115   
    111. D(H  25,C   9,C   8,H  24)     -0.0059         0.034705   
    112. D(H  25,C   9,C   8,C   7)   -179.9991         0.034705   
    113. D(N  10,C   9,C   8,H  24)   -179.9976         0.034705   
    114. D(N  10,C   9,C   8,C   7)      0.0092         0.034705   
    115. D(C   5,N  10,C   9,H  25)    179.9953         0.033472   
    116. D(C   5,N  10,C   9,C   8)     -0.0123         0.033472   
    117. D(C  11,N  10,C   5,C   6)   -179.9966         0.022670   
    118. D(C  11,N  10,C   5,N   4)     -0.0041         0.022670   
    119. D(C   9,N  10,C   5,C   6)      0.0100         0.022670   
    120. D(C  11,N  10,C   9,C   8)    179.9962         0.033472   
    121. D(C   9,N  10,C   5,N   4)   -179.9975         0.022670   
    122. D(C  11,N  10,C   9,H  25)      0.0038         0.033472   
    123. D(N  12,C  11,N  10,C   9)     -0.0183         0.029916   
    124. D(C   3,C  11,N  10,C   9)    179.9974         0.029916   
    125. D(C   3,C  11,N  10,C   5)      0.0048         0.029916   
    126. D(N  12,C  11,C   3,N   4)   -179.9885         0.019412   
    127. D(N  12,C  11,C   3,C   2)      0.0086         0.019412   
    128. D(N  12,C  11,N  10,C   5)    179.9890         0.029916   
    129. D(N  10,C  11,C   3,N   4)     -0.0043         0.019412   
    130. D(N  10,C  11,C   3,C   2)    179.9927         0.019412   
    131. D(C  13,N  12,C  11,N  10)   -179.9902         0.038551   
    132. D(C  13,N  12,C  11,C   3)     -0.0094         0.038551   
    133. D(N  21,C  13,N  12,C  11)   -179.9990         0.038540   
    134. D(C  14,C  13,N  12,C  11)      0.0069         0.038540   
    135. D(N  15,C  14,C  13,N  21)     -0.0005         0.019403   
    136. D(N  15,C  14,C  13,N  12)    179.9945         0.019403   
    137. D(C   2,C  14,C  13,N  21)   -179.9988         0.019403   
    138. D(C   2,C  14,C  13,N  12)     -0.0037         0.019403   
    139. D(N  15,C  14,C   2,C   3)   -179.9960         0.024626   
    140. D(N  15,C  14,C   2,C   1)      0.0031         0.024626   
    141. D(C  13,C  14,C   2,C   3)      0.0019         0.024626   
    142. D(C  13,C  14,C   2,C   1)   -179.9991         0.024626   
    143. D(C  16,N  15,C  14,C  13)     -0.0037         0.029787   
    144. D(C  16,N  15,C  14,C   2)    179.9943         0.029787   
    145. D(N  21,C  16,N  15,C  14)      0.0067         0.041473   
    146. D(C  17,C  16,N  15,C  14)    179.9960         0.041473   
    147. D(H  26,C  17,C  16,N  21)    179.9951         0.023630   
    148. D(H  26,C  17,C  16,N  15)      0.0064         0.023630   
    149. D(C  18,C  17,C  16,N  21)     -0.0069         0.023630   
    150. D(C  18,C  17,C  16,N  15)   -179.9957         0.023630   
    151. D(H  27,C  18,C  17,C  16)   -179.9927         0.033282   
    152. D(C  19,C  18,C  17,H  26)   -179.9976         0.033282   
    153. D(C  19,C  18,C  17,C  16)      0.0046         0.033282   
    154. D(H  27,C  18,C  17,H  26)      0.0052         0.033282   
    155. D(H  28,C  19,C  18,H  27)     -0.0002         0.022111   
    156. D(H  28,C  19,C  18,C  17)   -179.9974         0.022111   
    157. D(C  20,C  19,C  18,H  27)    179.9920         0.022111   
    158. D(C  20,C  19,C  18,C  17)     -0.0053         0.022111   
    159. D(H  29,C  20,C  19,H  28)     -0.0119         0.034728   
    160. D(H  29,C  20,C  19,C  18)    179.9960         0.034728   
    161. D(N  21,C  20,C  19,H  28)   -179.9994         0.034728   
    162. D(N  21,C  20,C  19,C  18)      0.0085         0.034728   
    163. D(C  16,N  21,C  20,H  29)   -179.9999         0.033474   
    164. D(C  16,N  21,C  20,C  19)     -0.0114         0.033474   
    165. D(C  13,N  21,C  20,H  29)      0.0107         0.033474   
    166. D(C  13,N  21,C  20,C  19)    179.9993         0.033474   
    167. D(C  20,N  21,C  16,C  17)      0.0105         0.022673   
    168. D(C  20,N  21,C  16,N  15)   -179.9988         0.022673   
    169. D(C  13,N  21,C  16,C  17)   -179.9978         0.022673   
    170. D(C  13,N  21,C  16,N  15)     -0.0072         0.022673   
    171. D(C  20,N  21,C  13,C  14)    179.9950         0.029924   
    172. D(C  20,N  21,C  13,N  12)     -0.0001         0.029924   
    173. D(C  16,N  21,C  13,C  14)      0.0043         0.029924   
    174. D(C  16,N  21,C  13,N  12)   -179.9908         0.029924   
    -----------------------------------------------------------------

Number of atoms                         .... 30
Number of degrees of freedom            .... 174

         *************************************************************
         *                GEOMETRY OPTIMIZATION CYCLE   1            *
         *************************************************************
---------------------------------
CARTESIAN COORDINATES (ANGSTROEM)
---------------------------------
  N      0.686200   -1.763000    4.408600
  C      0.520700   -1.337200    3.357200
  C      0.317000   -0.814200    2.065800
  C     -0.959100   -0.594700    1.528300
  N     -2.187000   -0.808400    2.060600
  C     -3.049100   -0.435300    1.141900
  C     -4.455900   -0.447800    1.177400
  C     -5.151900   -0.007000    0.090700
  C     -4.478200    0.459500   -1.064100
  C     -3.120400    0.472600   -1.100800
  N     -2.427500    0.035700   -0.024000
  C     -1.083000   -0.058800    0.204900
  N     -0.107000    0.274900   -0.623500
  C      1.083800    0.057100   -0.089800
  C      1.373700   -0.469900    1.211100
  N      2.714300   -0.546100    1.394100
  C      3.256600   -0.097900    0.284400
  C      4.615400    0.037800   -0.056100
  C      4.946800    0.533600   -1.282400
  C      3.944800    0.910400   -2.209300
  C      2.632700    0.780400   -1.883100
  N      2.301200    0.288800   -0.667000
  H     -4.936200   -0.808800    2.070900
  H     -6.230700   -0.009100    0.099500
  H     -5.042800    0.804400   -1.914200
  H     -2.533800    0.811700   -1.940500
  H      5.351300   -0.258100    0.672100
  H      5.983100    0.644700   -1.561200
  H      4.223300    1.300400   -3.174100
  H      1.811500    1.044200   -2.531400

----------------------------
CARTESIAN COORDINATES (A.U.)
----------------------------
  NO LB      ZA    FRAG     MASS         X           Y           Z
   0 N     7.0000    0    14.007    1.296730   -3.331587    8.331047
   1 C     6.0000    0    12.011    0.983980   -2.526942    6.344189
   2 C     6.0000    0    12.011    0.599043   -1.538615    3.903796
   3 C     6.0000    0    12.011   -1.812436   -1.123820    2.888068
   4 N     7.0000    0    14.007   -4.132831   -1.527655    3.893970
   5 C     6.0000    0    12.011   -5.761964   -0.822598    2.157878
   6 C     6.0000    0    12.011   -8.420431   -0.846219    2.224964
   7 C     6.0000    0    12.011   -9.735680   -0.013228    0.171398
   8 C     6.0000    0    12.011   -8.462572    0.868329   -2.010858
   9 C     6.0000    0    12.011   -5.896701    0.893085   -2.080211
  10 N     7.0000    0    14.007   -4.587310    0.067463   -0.045353
  11 C     6.0000    0    12.011   -2.046573   -0.111116    0.387205
  12 N     7.0000    0    14.007   -0.202201    0.519486   -1.178244
  13 C     6.0000    0    12.011    2.048085    0.107903   -0.169697
  14 C     6.0000    0    12.011    2.595917   -0.887982    2.288647
  15 N     7.0000    0    14.007    5.129284   -1.031979    2.634467
  16 C     6.0000    0    12.011    6.154082   -0.185004    0.537438
  17 C     6.0000    0    12.011    8.721842    0.071432   -0.106014
  18 C     6.0000    0    12.011    9.348097    1.008358   -2.423385
  19 C     6.0000    0    12.011    7.454592    1.720407   -4.174972
  20 C     6.0000    0    12.011    4.975082    1.474742   -3.558543
  21 N     7.0000    0    14.007    4.348638    0.545753   -1.260447
  22 H     1.0000    0     1.008   -9.328066   -1.528410    3.913434
  23 H     1.0000    0     1.008  -11.774317   -0.017197    0.188028
  24 H     1.0000    0     1.008   -9.529511    1.520096   -3.617314
  25 H     1.0000    0     1.008   -4.788188    1.533891   -3.667014
  26 H     1.0000    0     1.008   10.112491   -0.487738    1.270085
  27 H     1.0000    0     1.008   11.306420    1.218306   -2.950240
  28 H     1.0000    0     1.008    7.980880    2.457400   -5.998180
  29 H     1.0000    0     1.008    3.423239    1.973252   -4.783653

--------------------------------
INTERNAL COORDINATES (ANGSTROEM)
--------------------------------
 N      0   0   0     0.000000000000     0.00000000     0.00000000
 C      1   0   0     1.146358517219     0.00000000     0.00000000
 C      2   1   0     1.408096818404   179.98302461     0.00000000
 C      3   2   1     1.401969225768   122.78193777   359.58797702
 N      4   3   2     1.355267276223   130.49704815     0.00000000
 C      5   4   3     1.313936722221   105.96585817   180.00526391
 C      6   5   4     1.407303357489   129.47380827   179.99280067
 C      7   6   5     1.363685275274   119.15842876   180.00431322
 C      8   7   6     1.416000346045   120.90075655     0.00000000
 C      9   8   7     1.358359061515   120.05242445     0.00000000
 N     10   9   8     1.352956119022   119.16390181     0.00000000
 C     11  10   9     1.367115836350   131.24230104   179.99615439
 N     12  11  10     1.322943025984   127.10416085     0.00000000
 C     13  12  11     1.322980411798   111.70996566   180.00981729
 C      3   2   1     1.402023348593   122.77054185   179.58898473
 N     15   3   2     1.355176667450   130.50086844     0.00000000
 C     16  15   3     1.313927935619   105.96580305   179.99427469
 C     17  16  15     1.407370661908   129.47291685   179.99599542
 C     18  17  16     1.363618454701   119.16176829   180.00428014
 C     19  18  17     1.416024664333   120.89330495     0.00000000
 C     20  19  18     1.358275689983   120.05882018     0.00000000
 N     21  20  19     1.352945682576   119.16551480     0.00000000
 H      7   6   5     1.076731786472   118.02282974     0.00000000
 H      8   7   6     1.078837935002   120.21421890   180.00161155
 H      9   8   7     1.077218260150   119.98046628   180.00256493
 H     10   9   8     1.078973799497   124.57595671   180.00087269
 H     18  17  16     1.076745494534   118.01744553     0.00000000
 H     19  18  17     1.078883839901   120.21666415   180.00734827
 H     20  19  18     1.077265654330   119.97618147   180.00256150
 H     21  20  19     1.079005454110   124.57638545   179.99599205

---------------------------
INTERNAL COORDINATES (A.U.)
---------------------------
 N      0   0   0     0.000000000000     0.00000000     0.00000000
 C      1   0   0     2.166303648832     0.00000000     0.00000000
 C      2   1   0     2.660917356830   179.98302461     0.00000000
 C      3   2   1     2.649337884887   122.78193777   359.58797702
 N      4   3   2     2.561083990326   130.49704815     0.00000000
 C      5   4   3     2.482980562299   105.96585817   180.00526391
 C      6   5   4     2.659417933002   129.47380827   179.99280067
 C      7   6   5     2.576991703129   119.15842876   180.00431322
 C      8   7   6     2.675852859563   120.90075655     0.00000000
 C      9   8   7     2.566926617794   120.05242445     0.00000000
 N     10   9   8     2.556716536165   119.16390181     0.00000000
 C     11  10   9     2.583474524049   131.24230104   179.99615439
 N     12  11  10     2.500000009891   127.10416085     0.00000000
 C     13  12  11     2.500070658840   111.70996566   180.00981729
 C      3   2   1     2.649440162204   122.77054185   179.58898473
 N     15   3   2     2.560912764560   130.50086844     0.00000000
 C     16  15   3     2.482963958028   105.96580305   179.99427469
 C     17  16  15     2.659545119922   129.47291685   179.99599542
 C     18  17  16     2.576865430545   119.16176829   180.00428014
 C     19  18  17     2.675898814468   120.89330495     0.00000000
 C     20  19  18     2.566769068432   120.05882018     0.00000000
 N     21  20  19     2.556696814139   119.16551480     0.00000000
 H      7   6   5     2.034728196121   118.02282974     0.00000000
 H      8   7   6     2.038708240039   120.21421890   180.00161155
 H      9   8   7     2.035647498142   119.98046628   180.00256493
 H     10   9   8     2.038964986725   124.57595671   180.00087269
 H     18  17  16     2.034754100604   118.01744553     0.00000000
 H     19  18  17     2.038794987727   120.21666415   180.00734827
 H     20  19  18     2.035737060164   119.97618147   180.00256150
 H     21  20  19     2.039024805276   124.57638545   179.99599205

---------------------
BASIS SET INFORMATION
---------------------
There are 3 groups of distinct atoms

 Group   1 Type N   : 19s6p3d2f contracted to 5s4p3d2f pattern {88111/3111/111/11}
 Group   2 Type C   : 19s6p3d2f contracted to 5s4p3d2f pattern {88111/3111/111/11}
 Group   3 Type H   : 5s2p1d contracted to 3s2p1d pattern {311/11/1}

Atom   0N    basis set group =>   1
Atom   1C    basis set group =>   2
Atom   2C    basis set group =>   2
Atom   3C    basis set group =>   2
Atom   4N    basis set group =>   1
Atom   5C    basis set group =>   2
Atom   6C    basis set group =>   2
Atom   7C    basis set group =>   2
Atom   8C    basis set group =>   2
Atom   9C    basis set group =>   2
Atom  10N    basis set group =>   1
Atom  11C    basis set group =>   2
Atom  12N    basis set group =>   1
Atom  13C    basis set group =>   2
Atom  14C    basis set group =>   2
Atom  15N    basis set group =>   1
Atom  16C    basis set group =>   2
Atom  17C    basis set group =>   2
Atom  18C    basis set group =>   2
Atom  19C    basis set group =>   2
Atom  20C    basis set group =>   2
Atom  21N    basis set group =>   1
Atom  22H    basis set group =>   3
Atom  23H    basis set group =>   3
Atom  24H    basis set group =>   3
Atom  25H    basis set group =>   3
Atom  26H    basis set group =>   3
Atom  27H    basis set group =>   3
Atom  28H    basis set group =>   3
Atom  29H    basis set group =>   3
---------------------------------
AUXILIARY/J BASIS SET INFORMATION
---------------------------------
There are 3 groups of distinct atoms

 Group   1 Type N   : 10s7p5d2f1g contracted to 10s7p5d2f1g pattern {1111111111/1111111/11111/11/1}
 Group   2 Type C   : 10s7p5d2f1g contracted to 10s7p5d2f1g pattern {1111111111/1111111/11111/11/1}
 Group   3 Type H   : 4s3p2d1f contracted to 4s3p2d1f pattern {1111/111/11/1}

Atom   0N    basis set group =>   1
Atom   1C    basis set group =>   2
Atom   2C    basis set group =>   2
Atom   3C    basis set group =>   2
Atom   4N    basis set group =>   1
Atom   5C    basis set group =>   2
Atom   6C    basis set group =>   2
Atom   7C    basis set group =>   2
Atom   8C    basis set group =>   2
Atom   9C    basis set group =>   2
Atom  10N    basis set group =>   1
Atom  11C    basis set group =>   2
Atom  12N    basis set group =>   1
Atom  13C    basis set group =>   2
Atom  14C    basis set group =>   2
Atom  15N    basis set group =>   1
Atom  16C    basis set group =>   2
Atom  17C    basis set group =>   2
Atom  18C    basis set group =>   2
Atom  19C    basis set group =>   2
Atom  20C    basis set group =>   2
Atom  21N    basis set group =>   1
Atom  22H    basis set group =>   3
Atom  23H    basis set group =>   3
Atom  24H    basis set group =>   3
Atom  25H    basis set group =>   3
Atom  26H    basis set group =>   3
Atom  27H    basis set group =>   3
Atom  28H    basis set group =>   3
Atom  29H    basis set group =>   3
---------------------------------
AUXILIARY/C BASIS SET INFORMATION
---------------------------------
There are 3 groups of distinct atoms

 Group   1 Type N   : 9s7p6d4f2g contracted to 9s7p6d4f2g pattern {111111111/1111111/111111/1111/11}
 Group   2 Type C   : 9s7p6d4f2g contracted to 9s7p6d4f2g pattern {111111111/1111111/111111/1111/11}
 Group   3 Type H   : 4s3p2d1f contracted to 4s3p2d1f pattern {1111/111/11/1}

Atom   0N    basis set group =>   1
Atom   1C    basis set group =>   2
Atom   2C    basis set group =>   2
Atom   3C    basis set group =>   2
Atom   4N    basis set group =>   1
Atom   5C    basis set group =>   2
Atom   6C    basis set group =>   2
Atom   7C    basis set group =>   2
Atom   8C    basis set group =>   2
Atom   9C    basis set group =>   2
Atom  10N    basis set group =>   1
Atom  11C    basis set group =>   2
Atom  12N    basis set group =>   1
Atom  13C    basis set group =>   2
Atom  14C    basis set group =>   2
Atom  15N    basis set group =>   1
Atom  16C    basis set group =>   2
Atom  17C    basis set group =>   2
Atom  18C    basis set group =>   2
Atom  19C    basis set group =>   2
Atom  20C    basis set group =>   2
Atom  21N    basis set group =>   1
Atom  22H    basis set group =>   3
Atom  23H    basis set group =>   3
Atom  24H    basis set group =>   3
Atom  25H    basis set group =>   3
Atom  26H    basis set group =>   3
Atom  27H    basis set group =>   3
Atom  28H    basis set group =>   3
Atom  29H    basis set group =>   3


           ************************************************************
           *        Program running with 4 parallel MPI-processes     *
           *              working on a common directory               *
           ************************************************************
------------------------------------------------------------------------------
                           ORCA GTO INTEGRAL CALCULATION
                           -- RI-GTO INTEGRALS CHOSEN --
------------------------------------------------------------------------------
------------------------------------------------------------------------------
                   ___                                                        
                  /   \      - P O W E R E D   B Y -                         
                 /     \                                                     
                 |  |  |   _    _      __       _____    __    __             
                 |  |  |  | |  | |    /  \     |  _  \  |  |  /  |          
                  \  \/   | |  | |   /    \    | | | |  |  | /  /          
                 / \  \   | |__| |  /  /\  \   | |_| |  |  |/  /          
                |  |  |   |  __  | /  /__\  \  |    /   |      \           
                |  |  |   | |  | | |   __   |  |    \   |  |\   \          
                \     /   | |  | | |  |  |  |  | |\  \  |  | \   \       
                 \___/    |_|  |_| |__|  |__|  |_| \__\ |__|  \__/        
                                                                              
                      - O R C A' S   B I G   F R I E N D -                    
                                      &                                       
                       - I N T E G R A L  F E E D E R -                       
                                                                              
 v1 FN, 2020, v2 2021                                                         
------------------------------------------------------------------------------


Reading SHARK input file optpbed3-b2plyp-test-601.SHARKINP.tmp ... ok
----------------------
SHARK INTEGRAL PACKAGE
----------------------

Number of atoms                             ...     30
Number of basis functions                   ...   1256
Number of shells                            ...    488
Maximum angular momentum                    ...      3
Integral batch strategy                     ... SHARK/LIBINT Hybrid
RI-J (if used) integral strategy            ... SPLIT-RIJ (Revised 2003 algorithm where possible)
Printlevel                                  ...      1
Contraction scheme used                     ... PARTIAL GENERAL contraction
Coulomb Range Separation                    ... NOT USED
Exchange Range Separation                   ... NOT USED
Finite Nucleus Model                        ... NOT USED
Auxiliary Coulomb fitting basis             ... AVAILABLE
   # of basis functions in Aux-J            ...   1978
   # of shells in Aux-J                     ...    630
   Maximum angular momentum in Aux-J        ...      4
Auxiliary J/K fitting basis                 ... NOT available
Auxiliary Correlation fitting basis         ... AVAILABLE
   # of basis functions in Aux-C            ...   2572
   # of shells in Aux-C                     ...    696
   Maximum angular momentum in Aux-C        ...      4
Auxiliary 'external' fitting basis          ... NOT available
Integral threshold                          ...     2.500000e-11
Primitive cut-off                           ...     2.500000e-12
Primitive pair pre-selection threshold      ...     2.500000e-12

Calculating pre-screening integrals         ... done (  0.3 sec) Dimension = 488
Calculating pre-screening integrals (ORCA)  ... done (  0.6 sec) Dimension = 356
Organizing shell pair data                  ... done (  1.3 sec)
Shell pair information
Total number of shell pairs                 ...    119316
Shell pairs after pre-screening             ...     77365
Total number of primitive shell pairs       ...    150516
Primitive shell pairs kept                  ...     89157
          la=0 lb=0:  16911 shell pairs
          la=1 lb=0:  19439 shell pairs
          la=1 lb=1:   4524 shell pairs
          la=2 lb=0:  13280 shell pairs
          la=2 lb=1:   6291 shell pairs
          la=2 lb=2:   2236 shell pairs
          la=3 lb=0:   7553 shell pairs
          la=3 lb=1:   3700 shell pairs
          la=3 lb=2:   2623 shell pairs
          la=3 lb=3:    808 shell pairs

Calculating one electron integrals          ... done (  0.2 sec)
Calculating RI/J V-Matrix + Cholesky decomp.... done (  0.5 sec)
Calculating RI/C V-Matrix + Cholesky decomp.... done (  0.5 sec)
Calculating Nuclear repulsion               ... done (  0.0 sec) ENN=   1594.505160866971 Eh

SHARK setup successfully completed in   5.0 seconds

Maximum memory used throughout the entire GTOINT-calculation: 120.9 MB


           ************************************************************
           *        Program running with 4 parallel MPI-processes     *
           *              working on a common directory               *
           ************************************************************
-------------------------------------------------------------------------------
                                 ORCA SCF
-------------------------------------------------------------------------------

------------
SCF SETTINGS
------------
Hamiltonian:
 Density Functional     Method          .... DFT(GTOs)
 Exchange Functional    Exchange        .... PBE
   PBE kappa parameter   XKappa         ....  0.804000
   PBE mue parameter    XMuePBE         ....  0.219520
 Correlation Functional Correlation     .... PBE
   PBE beta parameter  CBetaPBE         ....  0.066725
 LDA part of GGA corr.  LDAOpt          .... PW91-LDA
 Gradients option       PostSCFGGA      .... off
 Hybrid DFT is turned on
   Fraction HF Exchange ScalHFX         ....  0.250000
   Scaling of DF-GGA-X  ScalDFX         ....  0.750000
   Scaling of DF-GGA-C  ScalDFC         ....  1.000000
   Scaling of DF-LDA-C  ScalLDAC        ....  1.000000
   Perturbative correction              ....  0.000000
   Density functional embedding theory  .... OFF
   NL short-range parameter             ....  6.900000
 RI-approximation to the Coulomb term is turned on
   Number of AuxJ basis functions       .... 1978
   RIJ-COSX (HFX calculated with COS-X)).... on


General Settings:
 Integral files         IntName         .... optpbed3-b2plyp-test-601
 Hartree-Fock type      HFTyp           .... RHF
 Total Charge           Charge          ....    0
 Multiplicity           Mult            ....    1
 Number of Electrons    NEL             ....  146
 Basis Dimension        Dim             .... 1124
 Nuclear Repulsion      ENuc            ....   1594.5051608670 Eh

Convergence Acceleration:
 DIIS                   CNVDIIS         .... on
   Start iteration      DIISMaxIt       ....    12
   Startup error        DIISStart       ....  0.200000
   # of expansion vecs  DIISMaxEq       ....     5
   Bias factor          DIISBfac        ....   1.050
   Max. coefficient     DIISMaxC        ....  10.000
 Trust-Rad. Augm. Hess. CNVTRAH         .... auto
   Auto Start mean grad. ratio tolernc. ....  1.125000
   Auto Start start iteration           ....    20
   Auto Start num. interpolation iter.  ....    10
   Max. Number of Micro iterations      ....    16
   Max. Number of Macro iterations      .... Maxiter - #DIIS iter
   Number of Davidson start vectors     ....     2
   Converg. threshold I  (grad. norm)   ....   1.000e-05
   Converg. threshold II (energy diff.) ....   1.000e-08
   Grad. Scal. Fac. for Micro threshold ....   0.100
   Minimum threshold for Micro iter.    ....   0.010
   NR start threshold (gradient norm)   ....   0.001
   Initial trust radius                 ....   0.400
   Minimum AH scaling param. (alpha)    ....   1.000
   Maximum AH scaling param. (alpha)    .... 1000.000
   Orbital update algorithm             .... Taylor
   White noise on init. David. guess    .... on
   Maximum white noise                  ....   0.010
   Quad. conv. algorithm                .... NR
 SOSCF                  CNVSOSCF        .... on
   Start iteration      SOSCFMaxIt      ....   150
   Startup grad/error   SOSCFStart      ....  0.003300
 Level Shifting         CNVShift        .... on
   Level shift para.    LevelShift      ....    0.2500
   Turn off err/grad.   ShiftErr        ....    0.0010
 Zerner damping         CNVZerner       .... off
 Static damping         CNVDamp         .... on
   Fraction old density DampFac         ....    0.7000
   Max. Damping (<1)    DampMax         ....    0.9800
   Min. Damping (>=0)   DampMin         ....    0.0000
   Turn off err/grad.   DampErr         ....    0.1000
 Fernandez-Rico         CNVRico         .... off

SCF Procedure:
 Maximum # iterations   MaxIter         ....   125
 SCF integral mode      SCFMode         .... Direct
   Integral package                     .... SHARK and LIBINT hybrid scheme
 Reset frequency        DirectResetFreq ....    20
 Integral Threshold     Thresh          ....  2.500e-11 Eh
 Primitive CutOff       TCut            ....  2.500e-12 Eh

Convergence Tolerance:
 Convergence Check Mode ConvCheckMode   .... Total+1el-Energy
 Convergence forced     ConvForced      .... 0
 Energy Change          TolE            ....  1.000e-08 Eh
 1-El. energy change                    ....  1.000e-05 Eh
 Orbital Gradient       TolG            ....  1.000e-05
 Orbital Rotation angle TolX            ....  1.000e-05
 DIIS Error             TolErr          ....  5.000e-07


Diagonalization of the overlap matrix:
Smallest eigenvalue                        ... 1.093e-07
Time for diagonalization                   ...    0.278 sec
Threshold for overlap eigenvalues          ... 1.000e-08
Number of eigenvalues below threshold      ... 0
Time for construction of square roots      ...    0.183 sec
Total time needed                          ...    0.470 sec

Time for model grid setup =    0.749 sec

------------------------------
INITIAL GUESS: MODEL POTENTIAL
------------------------------
Loading Hartree-Fock densities                     ... done
Calculating cut-offs                               ... done
Initializing the effective Hamiltonian             ... done
Setting up the integral package (SHARK)            ... done
Starting the Coulomb interaction                   ... done (   2.8 sec)
Reading the grid                                   ... done
Mapping shells                                     ... done
Starting the XC term evaluation                    ... done (   2.5 sec)
  promolecular density results
     # of electrons  =    145.996316469
     EX              =   -123.581609366
     EC              =     -4.969051302
     EX+EC           =   -128.550660668
Transforming the Hamiltonian                       ... done (   0.1 sec)
Diagonalizing the Hamiltonian                      ... done (   0.3 sec)
Back transforming the eigenvectors                 ... done (   0.1 sec)
Now organizing SCF variables                       ... done
                      ------------------
                      INITIAL GUESS DONE (   6.5 sec)
                      ------------------
-------------------
DFT GRID GENERATION
-------------------

General Integration Accuracy     IntAcc      ... 4.388
Radial Grid Type                 RadialGrid  ... OptM3 with GC (2021)
Angular Grid (max. ang.)         AngularGrid ... 4 (Lebedev-302)
Angular grid pruning method      GridPruning ... 4 (adaptive)
Weight generation scheme         WeightScheme... Becke
Basis function cutoff            BFCut       ... 1.0000e-11
Integration weight cutoff        WCut        ... 1.0000e-14
Angular grids for H and He will be reduced by one unit
Partially contracted basis set               ... off
Rotationally invariant grid construction     ... off

Total number of grid points                  ...   162733
Total number of batches                      ...     2557
Average number of points per batch           ...       63
Average number of grid points per atom       ...     5424
Time for grid setup =    2.421 sec

--------------------
COSX GRID GENERATION
--------------------

GRIDX 1
-------
General Integration Accuracy     IntAcc      ... 3.816
Radial Grid Type                 RadialGrid  ... OptM3 with GC (2021)
Angular Grid (max. ang.)         AngularGrid ... 1 (Lebedev-50)
Angular grid pruning method      GridPruning ... 4 (adaptive)
Weight generation scheme         WeightScheme... Becke
Basis function cutoff            BFCut       ... 1.0000e-11
Integration weight cutoff        WCut        ... 1.0000e-14
Angular grids for H and He will be reduced by one unit
Partially contracted basis set               ... on
Rotationally invariant grid construction     ... off

Total number of grid points                  ...    20659
Total number of batches                      ...      338
Average number of points per batch           ...       61
Average number of grid points per atom       ...      689
UseSFitting                                  ... on

GRIDX 2
-------
General Integration Accuracy     IntAcc      ... 4.020
Radial Grid Type                 RadialGrid  ... OptM3 with GC (2021)
Angular Grid (max. ang.)         AngularGrid ... 2 (Lebedev-110)
Angular grid pruning method      GridPruning ... 4 (adaptive)
Weight generation scheme         WeightScheme... Becke
Basis function cutoff            BFCut       ... 1.0000e-11
Integration weight cutoff        WCut        ... 1.0000e-14
Angular grids for H and He will be reduced by one unit
Partially contracted basis set               ... on
Rotationally invariant grid construction     ... off

Total number of grid points                  ...    50956
Total number of batches                      ...      813
Average number of points per batch           ...       62
Average number of grid points per atom       ...     1699
UseSFitting                                  ... on

GRIDX 3
-------
General Integration Accuracy     IntAcc      ... 4.338
Radial Grid Type                 RadialGrid  ... OptM3 with GC (2021)
Angular Grid (max. ang.)         AngularGrid ... 3 (Lebedev-194)
Angular grid pruning method      GridPruning ... 4 (adaptive)
Weight generation scheme         WeightScheme... Becke
Basis function cutoff            BFCut       ... 1.0000e-11
Integration weight cutoff        WCut        ... 1.0000e-14
Angular grids for H and He will be reduced by one unit
Partially contracted basis set               ... on
Rotationally invariant grid construction     ... off

Total number of grid points                  ...   110212
Total number of batches                      ...     1735
Average number of points per batch           ...       63
Average number of grid points per atom       ...     3674
UseSFitting                                  ... on

Time for X-Grid setup             =    6.168 sec


--------------------
CPCM SOLVATION MODEL
--------------------
CPCM parameters:
  Epsilon                                         ...       2.0165
  Refrac                                          ...       1.4266
  Rsolv                                           ...       1.3000
  Surface type                                    ... GAUSSIAN VDW
  Epsilon function type                           ...         CPCM
Solvent:                                     ... CYCLOHEXANE
SMD-CDS solvent descriptors:
  Soln                                       ...    1.4266
  Soln25                                     ...    1.4235
  Sola                                       ...    0.0000
  Solb                                       ...    0.0000
  Solg                                       ...   35.4800
  Solc                                       ...    0.0000
  Solh                                       ...    0.0000
Radii:
 Radius for N  used is    3.5716 Bohr (=   1.8900 Ang.)
 Radius for C  used is    3.4960 Bohr (=   1.8500 Ang.)
 Radius for H  used is    2.2677 Bohr (=   1.2000 Ang.)
Calculating surface                               ...        done! (  0.0s)
GEPOL surface points                              ...         1709
GEPOL Volume                                      ...    1866.1811
GEPOL Surface-area                                ...    1018.5120
Calculating surface distance matrix               ...        done! (  0.1s)
Performing Cholesky decomposition & store         ...        done! (  0.1s)
Overall time for CPCM initialization              ...                 0.2s
 re-compute Schwartz prescreening matrix in partically contracted basis (1) ...done (   0.248 sec)
--------------
SCF ITERATIONS
--------------
ITER       Energy         Delta-E        Max-DP      RMS-DP      [F,P]     Damp
               ***  Starting incremental Fock matrix formation  ***
  0   -941.8642381556   0.000000000000 0.41284869  0.00202529  0.2457487 0.7000
  1   -942.0562202950  -0.191982139457 0.29417479  0.00149168  0.1079527 0.7000
                               ***Turning on DIIS***
  2   -942.1351164532  -0.078896158203 0.55497341  0.00307264  0.0395338 0.0000
  3   -942.2624993395  -0.127382886282 0.18940652  0.00081730  0.0517864 0.0000
  4   -942.2863274736  -0.023828134092 0.03672381  0.00022476  0.0223755 0.0000
  5   -942.2884801723  -0.002152698666 0.09228561  0.00033295  0.0053018 0.0000
                      *** Initiating the SOSCF procedure ***
                           *** Shutting down DIIS ***
                      *** Re-Reading the Fockian *** 
                      *** Removing any level shift *** 
ITER      Energy       Delta-E        Grad      Rot      Max-DP    RMS-DP
  6   -942.28856815  -0.0000879742  0.000443  0.000443  0.064547  0.000232
               *** Restarting incremental Fock matrix formation ***
  7   -942.28860041  -0.0000322647  0.000261  0.002001  0.168497  0.000653
  8   -942.28860395  -0.0000035351  0.000159  0.000941  0.114681  0.000461
  9   -942.28860504  -0.0000010972  0.000177  0.000469  0.079933  0.000358
 10   -942.28860568  -0.0000006365  0.000112  0.000272  0.083734  0.000372
 11   -942.28860577  -0.0000000864  0.000072  0.000197  0.070109  0.000277
 12   -942.28860588  -0.0000001135  0.000018  0.000063  0.063005  0.000329
 13   -942.28860587   0.0000000105  0.000012  0.000060  0.080044  0.000324
 14   -942.28860589  -0.0000000161  0.000005  0.000023  0.211426  0.000990
 15   -942.28860584   0.0000000498  0.000009  0.000016  0.175803  0.000591
 16   -942.28860583   0.0000000060  0.000006  0.000037  0.410681  0.001206
 17   -942.28860579   0.0000000417  0.000013  0.000018  0.197599  0.000582
 18   -942.28860584  -0.0000000509  0.000005  0.000020  0.148190  0.000605
 19   -942.28860583   0.0000000140  0.000011  0.000007  0.142666  0.000542
 20   -942.28860585  -0.0000000248  0.000008  0.000015  0.243659  0.001043

 WARNING: the maximum gradient error descreased on average only by a factor   1.1
          during the last 20 iterations

                      *** Initiating the TRAH-SCF procedure ***

              ***Rediagonalizing the Fockian in SOSCF/NRSCF***

TRAH GRIDX
----------

General Integration Accuracy     IntAcc      ... 3.067
Radial Grid Type                 RadialGrid  ... OptM3 with GC (2021)
Angular Grid (max. ang.)         AngularGrid ... 1 (Lebedev-50)
Angular grid pruning method      GridPruning ... 4 (adaptive)
Weight generation scheme         WeightScheme... Becke
Basis function cutoff            BFCut       ... 1.0000e-11
Integration weight cutoff        WCut        ... 1.0000e-14
Angular grids for H and He will be reduced by one unit
Partially contracted basis set               ... on
Rotationally invariant grid construction     ... off

Total number of grid points                  ...    11109
Total number of batches                      ...      190
Average number of points per batch           ...       58
Average number of grid points per atom       ...      370


TRAH GRID
---------

General Integration Accuracy     IntAcc      ... 3.467
Radial Grid Type                 RadialGrid  ... OptM3 with GC (2021)
Angular Grid (max. ang.)         AngularGrid ... 1 (Lebedev-50)
Angular grid pruning method      GridPruning ... 4 (adaptive)
Weight generation scheme         WeightScheme... Becke
Basis function cutoff            BFCut       ... 1.0000e-11
Integration weight cutoff        WCut        ... 1.0000e-14
Angular grids for H and He will be reduced by one unit
Partially contracted basis set               ... off
Rotationally invariant grid construction     ... off

Total number of grid points                  ...    24982
Total number of batches                      ...      405
Average number of points per batch           ...       61
Average number of grid points per atom       ...      833

 --------------------------------------------------------------------------------------------
   Iter.        energy            ||Error||_2        Shift      TRadius  Mac/Mic        Rej.
 --------------------------------------------------------------------------------------------
    0       -942.288605778624     1.125158e-03                     0.400 (TRAH MAcro)   No
    0     dE    -6.786552e-08     1.451283e-03    -1.3574e-07      0.000 (TRAH MIcro)
    0     dE    -1.275810e-07     2.735934e-05    -2.5516e-07      0.000 (TRAH MIcro)
    1       -942.288605902869     2.752128e-05                           (NR   MAcro)
    1     dE    -2.530949e-11     1.131380e-05                           (NR   MIcro)
    1     dE    -3.030196e-11     3.374685e-06                           (NR   MIcro)
    1     dE    -3.095298e-11     8.550084e-07                           (NR   MIcro)
    2       -942.288605903020     8.610778e-07                           (NR   MAcro)

               *****************************************************
               *                     SUCCESS                       *
               *           SCF CONVERGED AFTER  29 CYCLES          *
               *****************************************************

Old exchange energy                            =    -31.393408474 Eh
New exchange energy                            =    -31.393449075 Eh
Exchange energy change after final integration =     -0.000040601 Eh
Total energy after final integration           =   -942.288646504 Eh
Final COS-X integration done in                =   155.610 sec

SMD CDS free energy correction energy :                -9.41921     Kcal/mol
Total Energy after SMD CDS correction =              -942.303656964 Eh

----------------
TOTAL SCF ENERGY
----------------

Total Energy       :         -942.30365696 Eh          -25641.38609 eV

Components:
Nuclear Repulsion  :         1594.50516087 Eh           43388.69127 eV
Electronic Energy  :        -2536.80881783 Eh          -69030.07735 eV
One Electron Energy:        -4442.00709350 Eh         -120873.15809 eV
Two Electron Energy:         1905.19827567 Eh           51843.08073 eV
Max COSX asymmetry :            0.00007681 Eh               0.00209 eV
CPCM Dielectric    :           -0.01579596 Eh              -0.42983 eV
SMD CDS (Gcds)     :           -0.01501046 Eh              -0.40846 eV

Virial components:
Potential Energy   :        -1879.50616601 Eh          -51143.96289 eV
Kinetic Energy     :          937.20250905 Eh           25502.57680 eV
Virial Ratio       :            2.00544295


DFT components:
N(Alpha)           :       73.000038534283 electrons
N(Beta)            :       73.000038534283 electrons
N(Total)           :      146.000077068566 electrons
E(X)               :      -94.040986895530 Eh       
E(C)               :       -4.969024721629 Eh       
E(XC)              :      -99.010011617159 Eh       
DFET-embed. en.    :        0.000000000000 Eh       
CPCM Solvation Model Properties:
Surface-charge          :           -0.05139416
Charge-correction       :           -0.00003648 Eh              -0.00099 eV
Free-energy (cav+disp)  :           -0.01501046 Eh              -0.40846 eV

---------------
SCF CONVERGENCE
---------------

  Last Energy change         ...   -1.5041e-10  Tolerance :   1.0000e-08
  Last Orbital Gradient      ...    8.6108e-07  Tolerance :   1.0000e-05
  Last Orbital Rotation      ...    3.7904e-06

             **** THE GBW FILE WAS UPDATED (optpbed3-b2plyp-test-601.gbw) ****
             **** DENSITY optpbed3-b2plyp-test-601.scfp WAS UPDATED ****
             **** ENERGY FILE WAS UPDATED (optpbed3-b2plyp-test-601.en.tmp) ****
             **** THE GBW FILE WAS UPDATED (optpbed3-b2plyp-test-601.gbw) ****
             **** DENSITY optpbed3-b2plyp-test-601.scfp WAS UPDATED ****
----------------
ORBITAL ENERGIES
----------------

  NO   OCC          E(Eh)            E(eV) 
   0   2.0000     -14.486216      -394.1900 
   1   2.0000     -14.486154      -394.1883 
   2   2.0000     -14.424899      -392.5214 
   3   2.0000     -14.382892      -391.3784 
   4   2.0000     -14.382440      -391.3661 
   5   2.0000     -14.382408      -391.3652 
   6   2.0000     -10.316186      -280.7177 
   7   2.0000     -10.316169      -280.7172 
   8   2.0000     -10.315549      -280.7003 
   9   2.0000     -10.315519      -280.6995 
  10   2.0000     -10.296054      -280.1699 
  11   2.0000     -10.296039      -280.1695 
  12   2.0000     -10.287101      -279.9262 
  13   2.0000     -10.287056      -279.9250 
  14   2.0000     -10.282927      -279.8127 
  15   2.0000     -10.264692      -279.3165 
  16   2.0000     -10.259714      -279.1810 
  17   2.0000     -10.259693      -279.1804 
  18   2.0000     -10.251885      -278.9680 
  19   2.0000     -10.251847      -278.9669 
  20   2.0000     -10.251524      -278.9582 
  21   2.0000     -10.251503      -278.9576 
  22   2.0000      -1.102604       -30.0034 
  23   2.0000      -1.093201       -29.7475 
  24   2.0000      -0.998568       -27.1724 
  25   2.0000      -0.971921       -26.4473 
  26   2.0000      -0.963985       -26.2314 
  27   2.0000      -0.938305       -25.5326 
  28   2.0000      -0.883979       -24.0543 
  29   2.0000      -0.870538       -23.6886 
  30   2.0000      -0.855190       -23.2709 
  31   2.0000      -0.803958       -21.8768 
  32   2.0000      -0.792690       -21.5702 
  33   2.0000      -0.783333       -21.3156 
  34   2.0000      -0.744496       -20.2588 
  35   2.0000      -0.693276       -18.8650 
  36   2.0000      -0.679565       -18.4919 
  37   2.0000      -0.676278       -18.4025 
  38   2.0000      -0.668290       -18.1851 
  39   2.0000      -0.645839       -17.5742 
  40   2.0000      -0.625158       -17.0114 
  41   2.0000      -0.582823       -15.8594 
  42   2.0000      -0.569129       -15.4868 
  43   2.0000      -0.538763       -14.6605 
  44   2.0000      -0.533979       -14.5303 
  45   2.0000      -0.526528       -14.3275 
  46   2.0000      -0.515419       -14.0253 
  47   2.0000      -0.513044       -13.9606 
  48   2.0000      -0.506177       -13.7738 
  49   2.0000      -0.504906       -13.7392 
  50   2.0000      -0.496040       -13.4979 
  51   2.0000      -0.486839       -13.2476 
  52   2.0000      -0.482735       -13.1359 
  53   2.0000      -0.459762       -12.5108 
  54   2.0000      -0.429687       -11.6924 
  55   2.0000      -0.420932       -11.4541 
  56   2.0000      -0.414924       -11.2907 
  57   2.0000      -0.406201       -11.0533 
  58   2.0000      -0.403188       -10.9713 
  59   2.0000      -0.397587       -10.8189 
  60   2.0000      -0.385128       -10.4799 
  61   2.0000      -0.382543       -10.4095 
  62   2.0000      -0.370616       -10.0850 
  63   2.0000      -0.359830        -9.7915 
  64   2.0000      -0.359796        -9.7906 
  65   2.0000      -0.353678        -9.6241 
  66   2.0000      -0.334094        -9.0912 
  67   2.0000      -0.312154        -8.4941 
  68   2.0000      -0.308661        -8.3991 
  69   2.0000      -0.291890        -7.9427 
  70   2.0000      -0.274801        -7.4777 
  71   2.0000      -0.237072        -6.4511 
  72   2.0000      -0.230109        -6.2616 
  73   0.0000      -0.099552        -2.7089 
  74   0.0000      -0.047823        -1.3013 
  75   0.0000      -0.031739        -0.8637 
  76   0.0000      -0.017819        -0.4849 
  77   0.0000      -0.004293        -0.1168 
  78   0.0000      -0.002156        -0.0587 
  79   0.0000       0.003450         0.0939 
  80   0.0000       0.014680         0.3995 
  81   0.0000       0.016595         0.4516 
  82   0.0000       0.024343         0.6624 
  83   0.0000       0.027489         0.7480 
  84   0.0000       0.033773         0.9190 
  85   0.0000       0.034116         0.9284 
  86   0.0000       0.036581         0.9954 
  87   0.0000       0.036797         1.0013 
  88   0.0000       0.039307         1.0696 
  89   0.0000       0.044947         1.2231 
  90   0.0000       0.047907         1.3036 
  91   0.0000       0.053010         1.4425 
  92   0.0000       0.055685         1.5153 
[...]
              <<< Entering MO-section for Build Sigma(Double) >>>
   Forming the XC and CPCM contribution:
   Time for densities:            0.219
   Time for XC-Integration:      18.960
   Time for LR-CPCM terms:       11.038
   Time for Sigma-Completion:     0.165
   Time for building 10 sigma-vectors
   Data Preparation Phase         ...     0.01 sec
   Transformed RI Coulomb         ...     0.66 sec
   Transformed RI-exchange        ...   424.29 sec
   (ab|v) reading and digestion   ...   397.74 sec
   Final sigma-completion         ...     0.01 sec
   Done building sigma-vectors             Size of expansion space: 50
   Lowest Energy          :     0.126260458742
   Maximum Energy change  :     0.002546937906 (vector 6)
   Maximum residual norm  :     0.000334798201

                       ****Iteration    3****
              <<< Entering MO-section for Build Sigma(Double) >>>
   Forming the XC and CPCM contribution:
   Time for densities:            0.220
   Time for XC-Integration:      19.358
   Time for LR-CPCM terms:       11.039
   Time for Sigma-Completion:     0.162
   Time for building 10 sigma-vectors
   Data Preparation Phase         ...     0.01 sec
   Transformed RI Coulomb         ...     0.66 sec
   Transformed RI-exchange        ...   428.32 sec
   (ab|v) reading and digestion   ...   412.28 sec
   Final sigma-completion         ...     0.01 sec
   Done building sigma-vectors             Size of expansion space: 60
   Lowest Energy          :     0.126159060848
   Maximum Energy change  :     0.000614695341 (vector 6)
   Maximum residual norm  :     0.000073340313

                       ****Iteration    4****
              <<< Entering MO-section for Build Sigma(Double) >>>
   Forming the XC and CPCM contribution:
   Time for densities:            0.222
   Time for XC-Integration:      19.513
   Time for LR-CPCM terms:       11.013
   Time for Sigma-Completion:     0.161
   Time for building 10 sigma-vectors
   Data Preparation Phase         ...     0.01 sec
   Transformed RI Coulomb         ...     0.66 sec
   Transformed RI-exchange        ...   435.12 sec
   (ab|v) reading and digestion   ...   414.76 sec
   Final sigma-completion         ...     0.01 sec
   Done building sigma-vectors             Size of expansion space: 70
   Lowest Energy          :     0.126152092272
   Maximum Energy change  :     0.000148488594 (vector 6)
   Maximum residual norm  :     0.000014080348
   Rebuilding the expansion space

                       ****Iteration    5****
              <<< Entering MO-section for Build Sigma(Double) >>>
   Forming the XC and CPCM contribution:
   Time for densities:            0.447
   Time for XC-Integration:      38.823
   Time for LR-CPCM terms:       17.376
   Time for Sigma-Completion:     0.331
   Time for building 20 sigma-vectors
   Data Preparation Phase         ...     0.02 sec
   Transformed RI Coulomb         ...     1.09 sec
   Transformed RI-exchange        ...   878.47 sec
   (ab|v) reading and digestion   ...   847.44 sec
   Final sigma-completion         ...     0.01 sec
   Done building sigma-vectors             Size of expansion space: 20
   Lowest Energy          :     0.126151399115
   Maximum Energy change  :     0.000020556033 (vector 6)
   Maximum residual norm  :     0.000002726819

                       ****Iteration    6****
              <<< Entering MO-section for Build Sigma(Double) >>>
   Forming the XC and CPCM contribution:
   Time for densities:            0.214
   Time for XC-Integration:      19.042
   Time for LR-CPCM terms:       11.018
   Time for Sigma-Completion:     0.164
   Time for building 10 sigma-vectors
   Data Preparation Phase         ...     0.01 sec
   Transformed RI Coulomb         ...     0.67 sec
   Transformed RI-exchange        ...   427.32 sec
   (ab|v) reading and digestion   ...   403.49 sec
   Final sigma-completion         ...     0.01 sec
   Done building sigma-vectors             Size of expansion space: 30
   Lowest Energy          :     0.126151247641
   Maximum Energy change  :     0.000006089381 (vector 6)
   Maximum residual norm  :     0.000001305333

                       ****Iteration    7****
              <<< Entering MO-section for Build Sigma(Double) >>>
   Forming the XC and CPCM contribution:
   Time for densities:            0.220
   Time for XC-Integration:      19.295
   Time for LR-CPCM terms:       11.029
   Time for Sigma-Completion:     0.166
   Time for building 10 sigma-vectors
   Data Preparation Phase         ...     0.01 sec
   Transformed RI Coulomb         ...     0.66 sec
   Transformed RI-exchange        ...   429.53 sec
   (ab|v) reading and digestion   ...   412.70 sec
   Final sigma-completion         ...     0.01 sec
   Done building sigma-vectors             Size of expansion space: 40
   Lowest Energy          :     0.126151233262
   Maximum Energy change  :     0.000002280193 (vector 6)
   Maximum residual norm  :     0.000000904558

      *** CONVERGENCE OF RESIDUAL NORM REACHED ***

Storing the converged CI vectors               ... optpbed3-b2plyp-test-601_job2.cis1

                 *** DAVIDSON DONE ***

Total time for solving the CIS problem:  3833.273sec

------------------
DOUBLES CORRECTION (Double precision version)
------------------

The (D) correction will be scaled by  0.2700
Doing v(i,a)*T(i,a) terms (RI)                    ... ok
Doing u(i,j,a,b) terms for state   0              ... ok
Doing u(i,j,a,b) terms for state   1              ... ok
Doing u(i,j,a,b) terms for state   2              ... ok
Doing u(i,j,a,b) terms for state   3              ... ok
Doing u(i,j,a,b) terms for state   4              ... ok
Doing u(i,j,a,b) terms for state   5              ... ok
Doing u(i,j,a,b) terms for state   6              ... ok
Doing u(i,j,a,b) terms for state   7              ... ok
Doing u(i,j,a,b) terms for state   8              ... ok
Doing u(i,j,a,b) terms for state   9              ... ok

Contributions to the (D) correction(s) (in eV)

STATE  Final   Init.   Total   v(ext)   v(int)  v(3)    u
       omega   omega     (D)                             
-----------------------------------------------------------------------------
   0   2.926   3.433  -0.507   0.715   1.071  -0.061  -2.233
   1   3.184   3.483  -0.299   0.712   1.098  -0.065  -2.044
   2   4.044   4.545  -0.500   0.699   1.000  -0.046  -2.153
   3   4.403   4.868  -0.465   0.526   1.085  -0.043  -2.032
   4   4.363   4.977  -0.614   0.538   1.066  -0.046  -2.174
   5   4.104   5.105  -1.001   0.756   0.786  -0.020  -2.523
   6   4.924   5.388  -0.465   0.577   1.045  -0.054  -2.033
   7   5.341   5.470  -0.129   0.049   1.084  -0.002  -1.261
   8   4.819   5.472  -0.653   0.529   1.088  -0.022  -2.248
   9   5.235   5.478  -0.243   0.041   1.063  -0.001  -1.346

(D)-timings
 V(i,a)*T(i,a) terms           ...   569.110 sec
 U(i,j,a,b) 3-internal         ...    13.679 sec
 U(i,j,a,b) 3-external         ...   329.901 sec
 U(i,j,a,b) pair terms         ...   293.195 sec
 Total measured time           ...  2640.736 sec

 Time for (ab|v) I/O           ...    75.999 sec


------------------------------------
TD-DFT/TDA EXCITED STATES (SINGLETS)
------------------------------------

the weight of the individual excitations are printed if larger than 1.0e-02

STATE  1:  E=   0.107512 au      2.926 eV    23596.2 cm**-1 <S**2> =   0.000000
    70a ->  74a  :     0.011573 (c=  0.10757583)
    71a ->  79a  :     0.021144 (c=  0.14540959)
    72a ->  73a  :     0.939262 (c= -0.96915528)

STATE  2:  E=   0.117012 au      3.184 eV    25681.1 cm**-1 <S**2> =   0.000000
    71a ->  73a  :     0.941660 (c= -0.97039164)
    72a ->  74a  :     0.024633 (c=  0.15695006)

STATE  3:  E=   0.148623 au      4.044 eV    32619.0 cm**-1 <S**2> =   0.000000
    70a ->  73a  :     0.846798 (c= -0.92021648)
    71a ->  83a  :     0.013322 (c=  0.11541999)
    72a ->  74a  :     0.035642 (c=  0.18879158)
    72a ->  79a  :     0.046679 (c=  0.21605369)

STATE  4:  E=   0.161810 au      4.403 eV    35513.3 cm**-1 <S**2> =   0.000000
    70a ->  79a  :     0.020624 (c=  0.14360930)
    71a ->  74a  :     0.728813 (c= -0.85370528)
    72a ->  77a  :     0.185441 (c=  0.43062816)
    72a ->  83a  :     0.021636 (c=  0.14709163)

STATE  5:  E=   0.160322 au      4.363 eV    35186.7 cm**-1 <S**2> =   0.000000
    70a ->  73a  :     0.012823 (c=  0.11323720)
    70a ->  77a  :     0.027318 (c= -0.16528108)
    71a ->  73a  :     0.015754 (c=  0.12551627)
    71a ->  77a  :     0.174408 (c= -0.41762221)
    72a ->  74a  :     0.694549 (c=  0.83339590)
    72a ->  79a  :     0.031523 (c= -0.17754622)

STATE  6:  E=   0.150808 au      4.104 eV    33098.5 cm**-1 <S**2> =   0.000000
    62a ->  73a  :     0.031294 (c= -0.17690057)
    68a ->  73a  :     0.890009 (c= -0.94340272)
    68a ->  77a  :     0.033043 (c=  0.18177814)

STATE  7:  E=   0.180943 au      4.924 eV    39712.4 cm**-1 <S**2> =   0.000000
    69a ->  73a  :     0.118833 (c=  0.34472100)
    70a ->  74a  :     0.146683 (c=  0.38299197)
    71a ->  74a  :     0.050139 (c= -0.22391745)
    71a ->  79a  :     0.134218 (c=  0.36635722)
    72a ->  77a  :     0.383645 (c= -0.61939059)
    72a ->  82a  :     0.040769 (c=  0.20191258)
    72a ->  83a  :     0.058906 (c=  0.24270616)

STATE  8:  E=   0.196275 au      5.341 eV    43077.3 cm**-1 <S**2> =   0.000000
    71a ->  75a  :     0.532756 (c= -0.72990106)
    71a ->  80a  :     0.173535 (c=  0.41657474)
    71a ->  85a  :     0.025494 (c= -0.15966883)
    72a ->  76a  :     0.167100 (c=  0.40877856)
    72a ->  84a  :     0.024177 (c=  0.15549028)

STATE  9:  E=   0.177082 au      4.819 eV    38865.0 cm**-1 <S**2> =   0.000000
    70a ->  73a  :     0.058135 (c= -0.24111208)
    70a ->  77a  :     0.027073 (c=  0.16453952)
    70a ->  83a  :     0.016244 (c= -0.12745370)
    71a ->  77a  :     0.562628 (c= -0.75008514)
    71a ->  83a  :     0.018182 (c= -0.13483935)
    72a ->  74a  :     0.144310 (c= -0.37988201)
    72a ->  79a  :     0.100736 (c= -0.31738859)

STATE 10:  E=   0.192383 au      5.235 eV    42223.2 cm**-1 <S**2> =   0.000000
    70a ->  76a  :     0.025484 (c=  0.15963856)
    71a ->  76a  :     0.133378 (c=  0.36520886)
    71a ->  84a  :     0.019382 (c=  0.13921910)
    72a ->  75a  :     0.588845 (c= -0.76736256)
    72a ->  80a  :     0.154925 (c=  0.39360552)
    72a ->  85a  :     0.017241 (c= -0.13130572)


-----------------------------
TD-DFT/TDA-EXCITATION SPECTRA
-----------------------------

Center of mass = (  0.1149, -0.2967,  0.8320)
Calculating the Dipole integrals                  ... done
Transforming integrals                            ... done
Calculating the Linear Momentum integrals         ... done
Transforming integrals                            ... done
Calculating angular momentum integrals            ... done
Transforming integrals                            ... done

-----------------------------------------------------------------------------
         ABSORPTION SPECTRUM VIA TRANSITION ELECTRIC DIPOLE MOMENTS
-----------------------------------------------------------------------------
State   Energy    Wavelength  fosc         T2        TX        TY        TZ  
        (cm-1)      (nm)                 (au**2)    (au)      (au)      (au) 
-----------------------------------------------------------------------------
   1   23596.2    423.8   0.243182065   3.39286  -0.31502   0.68035  -1.68248
   2   25681.1    389.4   0.701921599   8.99808   2.96378   0.17104  -0.42991
   3   32619.0    306.6   0.166836497   1.68382  -1.28412  -0.06878   0.17361
   4   35513.3    281.6   0.063942582   0.59275   0.10014  -0.28643   0.70759
   5   35186.7    284.2   0.534870597   5.00433  -2.21402  -0.11720   0.29787
   6   33098.5    302.1   0.000579058   0.00576   0.00674  -0.06959  -0.02952
   7   39712.4    251.8   0.057587007   0.47739   0.10105  -0.25704   0.63333
   8   43077.3    232.1   0.000946249   0.00723  -0.08306   0.00698   0.01685
   9   38865.0    257.3   0.073496451   0.62256  -0.78051  -0.04635   0.10589
  10   42223.2    236.8   0.002677425   0.02088   0.01018  -0.13172  -0.05850

-----------------------------------------------------------------------------
         ABSORPTION SPECTRUM VIA TRANSITION VELOCITY DIPOLE MOMENTS
-----------------------------------------------------------------------------
State   Energy    Wavelength   fosc        P2         PX        PY        PZ  
        (cm-1)      (nm)                 (au**2)     (au)      (au)      (au) 
-----------------------------------------------------------------------------
   1   23596.2    423.8   0.003835220   0.00062   0.00030   0.00932  -0.02305
   2   25681.1    389.4   0.329647304   0.05786  -0.23808  -0.01220   0.03208
   3   32619.0    306.6   0.032128991   0.00716   0.08374   0.00456  -0.01135
   4   35513.3    281.6   0.001729593   0.00042   0.00402  -0.00748   0.01864
   5   35186.7    284.2   0.191031630   0.04594   0.21206   0.01147  -0.02896
   6   33098.5    302.1   0.001516779   0.00034  -0.00065   0.01706   0.00719
   7   39712.4    251.8   0.031506830   0.00855  -0.01367   0.03462  -0.08465
   8   43077.3    232.1   0.000476669   0.00014   0.01139  -0.00180  -0.00270
   9   38865.0    257.3   0.043908587   0.01166   0.10684   0.00641  -0.01437
  10   42223.2    236.8   0.003218002   0.00093  -0.00149   0.02794   0.01207

-------------------------------------------------------------------
                             CD SPECTRUM
-------------------------------------------------------------------
State  Energy     Wavelength     R         MX        MY        MZ   
       (cm-1)       (nm)     (1e40*cgs)   (au)      (au)      (au)  
-------------------------------------------------------------------
   1   23596.2    423.8      0.67483  -0.00146  -0.00745  -0.00359
   2   25681.1    389.4      0.97035   0.00139   0.45493   0.18575
   3   32619.0    306.6     -0.43790   0.00101   0.41956   0.16835
   4   35513.3    281.6      0.19447   0.00175   0.00112   0.00079
   5   35186.7    284.2     -0.65868   0.00079   0.25835   0.10279
   6   33098.5    302.1     -0.79685  -0.25535  -0.01501   0.03433
   7   39712.4    251.8      0.39227  -0.00151  -0.00192   0.00078
   8   43077.3    232.1     -0.65138   0.02819  -0.02026   0.06535
   9   38865.0    257.3      1.55498  -0.00557   0.03152   0.00390
  10   42223.2    236.8     -1.04458  -0.20117  -0.01352   0.03331

-------------------------------------------------------------------
         CD SPECTRUM VIA TRANSITION VELOCITY DIPOLE MOMENTS        
-------------------------------------------------------------------
State  Energy     Wavelength     R         MX        MY        MZ   
       (cm-1)       (nm)     (1e40*cgs)   (au)      (au)      (au)  
-------------------------------------------------------------------
   1   23596.2    423.8      0.05632  -0.00146  -0.00745  -0.00359
   2   25681.1    389.4      0.31689   0.00139   0.45493   0.18575
   3   32619.0    306.6      0.28082   0.00101   0.41956   0.16835
   4   35513.3    281.6      0.03893   0.00175   0.00112   0.00079
   5   35186.7    284.2      0.44741   0.00079   0.25835   0.10279
   6   33098.5    302.1      0.48611  -0.25535  -0.01501   0.03433
   7   39712.4    251.8     -0.29048  -0.00151  -0.00192   0.00078
   8   43077.3    232.1      0.43440   0.02819  -0.02026   0.06535
   9   38865.0    257.3     -1.19569  -0.00557   0.03152   0.00390
  10   42223.2    236.8      0.79298  -0.20117  -0.01352   0.03331

Total run time:     6481.103 sec

           *** ORCA-CIS/TD-DFT FINISHED WITHOUT ERROR ***

Maximum memory used throughout the entire CIS-calculation: 1453.4 MB

-----------------------
CIS/TD-DFT TOTAL ENERGY
-----------------------

    E(SCF)  =   -941.435107816 Eh
    DE(CIS) =      0.107512138 Eh (Root  1)
    ----------------------------- ---------
    E(tot)  =   -941.327595678 Eh



-------------------------------------------------------------------------------
                          DFT DISPERSION CORRECTION                            
                                                                               
                              DFTD3 V3.1  Rev 1                                
                          USING Becke-Johnson damping                          
-------------------------------------------------------------------------------
The B2PLYP functional is recognized
Active option DFTDOPT                   ...         4   

molecular C6(AA) [au] = 13809.762635 


            DFT-D V3
 parameters
 s6 scaling factor         :     0.6400 
 a1 scaling factor         :     0.3065 
 s8 scaling factor         :     0.9147 
 a2 scaling factor         :     5.0570 
 ad hoc parameters k1-k3   :    16.0000     1.3333    -4.0000 

 Edisp/kcal,au: -21.447539454860  -0.034178826063 
 E6   /kcal   : -11.864127416 
 E8   /kcal   :  -9.583412039 
 % E8         :  44.683037225 

-------------------------   ----------------
Dispersion correction           -0.034178826
-------------------------   ----------------


-------------------------   --------------------
FINAL SINGLE POINT ENERGY      -941.361774504501
-------------------------   --------------------


                            ***************************************
                            *     ORCA property calculations      *
                            ***************************************


  WARNING: The energy has been calculated at the MP2 level but the densities
           used in the property calculations are still SCF densities
           MP2 response densities have not been calculated 
           use %mp2 Density relaxed end
           or  %mp2 Density unrelaxed end

                                    ---------------------
                                    Active property flags
                                    ---------------------
   (+) Dipole Moment


------------------------------------------------------------------------------
                       ORCA ELECTRIC PROPERTIES CALCULATION
------------------------------------------------------------------------------

Dipole Moment Calculation                       ... on
Quadrupole Moment Calculation                   ... off
Polarizability Calculation                      ... off
GBWName                                         ... optpbed3-b2plyp-test-601_job2.gbw
Electron density                                ... optpbed3-b2plyp-test-601_job2.scfp
The origin for moment calculation is the CENTER OF MASS  = ( 0.114919, -0.296711  0.831983)

-------------
DIPOLE MOMENT
-------------
                                X             Y             Z
Electronic contribution:      1.05419      -2.72704       6.66602
Nuclear contribution   :     -1.75789       4.53779     -11.13726
                        -----------------------------------------
Total Dipole Moment    :     -0.70370       1.81076      -4.47123
                        -----------------------------------------
Magnitude (a.u.)       :      4.87504
Magnitude (Debye)      :     12.39135



--------------------
Rotational spectrum 
--------------------
 
Rotational constants in cm-1:     0.019672     0.006526     0.004901 
Rotational constants in MHz :   589.758646   195.657557   146.916993 

 Dipole components along the rotational axes: 
x,y,z [a.u.] :     0.002007     4.875035     0.000910 
x,y,z [Debye]:     0.005102    12.391353     0.002313 

 

Timings for individual modules:

Sum of individual times         ...     8962.222 sec (= 149.370 min)
GTO integral calculation        ...        5.256 sec (=   0.088 min)   0.1 %
SCF iterations                  ...     1503.923 sec (=  25.065 min)  16.8 %
MP2 module                      ...      969.689 sec (=  16.161 min)  10.8 %
CIS module                      ...     6483.354 sec (= 108.056 min)  72.3 %



                             ****ORCA TERMINATED NORMALLY****
TOTAL RUN TIME: 0 days 5 hours 48 minutes 13 seconds 549 msec
