
                                 *****************
                                 * O   R   C   A *
                                 *****************

                                            #,                                       
                                            ###                                      
                                            ####                                     
                                            #####                                    
                                            ######                                   
                                           ########,                                 
                                     ,,################,,,,,                         
                               ,,#################################,,                 
                          ,,##########################################,,             
                       ,#########################################, ''#####,          
                    ,#############################################,,   '####,        
                  ,##################################################,,,,####,       
                ,###########''''           ''''###############################       
              ,#####''   ,,,,##########,,,,          '''####'''          '####       
            ,##' ,,,,###########################,,,                        '##       
           ' ,,###''''                  '''############,,,                           
         ,,##''                                '''############,,,,        ,,,,,,###''
      ,#''                                            '''#######################'''  
     '                                                          ''''####''''         
             ,#######,   #######,   ,#######,      ##                                
            ,#'     '#,  ##    ##  ,#'     '#,    #''#        ######   ,####,        
            ##       ##  ##   ,#'  ##            #'  '#       #        #'  '#        
            ##       ##  #######   ##           ,######,      #####,   #    #        
            '#,     ,#'  ##    ##  '#,     ,#' ,#      #,         ##   #,  ,#        
             '#######'   ##     ##  '#######'  #'      '#     #####' # '####'        



                  #######################################################
                  #                        -***-                        #
                  #          Department of theory and spectroscopy      #
                  #    Directorship and core code : Frank Neese         #
                  #        Max Planck Institute fuer Kohlenforschung    #
                  #                Kaiser Wilhelm Platz 1               #
                  #                 D-45470 Muelheim/Ruhr               #
                  #                      Germany                        #
                  #                                                     #
                  #                  All rights reserved                #
                  #                        -***-                        #
                  #######################################################


                         Program Version 5.0.2 -  RELEASE  -


 With contributions from (in alphabetic order):
   Daniel Aravena         : Magnetic Suceptibility
   Michael Atanasov       : Ab Initio Ligand Field Theory (pilot matlab implementation)
   Alexander A. Auer      : GIAO ZORA, VPT2 properties, NMR spectrum
   Ute Becker             : Parallelization
   Giovanni Bistoni       : ED, misc. LED, open-shell LED, HFLD
   Martin Brehm           : Molecular dynamics
   Dmytro Bykov           : SCF Hessian
   Vijay G. Chilkuri      : MRCI spin determinant printing, contributions to CSF-ICE
   Dipayan Datta          : RHF DLPNO-CCSD density
   Achintya Kumar Dutta   : EOM-CC, STEOM-CC
   Dmitry Ganyushin       : Spin-Orbit,Spin-Spin,Magnetic field MRCI
   Miquel Garcia          : C-PCM and meta-GGA Hessian, CC/C-PCM, Gaussian charge scheme
   Yang Guo               : DLPNO-NEVPT2, F12-NEVPT2, CIM, IAO-localization
   Andreas Hansen         : Spin unrestricted coupled pair/coupled cluster methods
   Benjamin Helmich-Paris : MC-RPA, TRAH-SCF, COSX integrals
   Lee Huntington         : MR-EOM, pCC
   Robert Izsak           : Overlap fitted RIJCOSX, COSX-SCS-MP3, EOM
   Marcus Kettner         : VPT2
   Christian Kollmar      : KDIIS, OOCD, Brueckner-CCSD(T), CCSD density, CASPT2, CASPT2-K
   Simone Kossmann        : Meta GGA functionals, TD-DFT gradient, OOMP2, MP2 Hessian
   Martin Krupicka        : Initial AUTO-CI
   Lucas Lang             : DCDCAS
   Marvin Lechner         : AUTO-CI (C++ implementation), FIC-MRCC
   Dagmar Lenk            : GEPOL surface, SMD
   Dimitrios Liakos       : Extrapolation schemes; Compound Job, initial MDCI parallelization
   Dimitrios Manganas     : Further ROCIS development; embedding schemes
   Dimitrios Pantazis     : SARC Basis sets
   Anastasios Papadopoulos: AUTO-CI, single reference methods and gradients
   Taras Petrenko         : DFT Hessian,TD-DFT gradient, ASA, ECA, R-Raman, ABS, FL, XAS/XES, NRVS
   Peter Pinski           : DLPNO-MP2, DLPNO-MP2 Gradient
   Christoph Reimann      : Effective Core Potentials
   Marius Retegan         : Local ZFS, SOC
   Christoph Riplinger    : Optimizer, TS searches, QM/MM, DLPNO-CCSD(T), (RO)-DLPNO pert. Triples
   Tobias Risthaus        : Range-separated hybrids, TD-DFT gradient, RPA, STAB
   Michael Roemelt        : Original ROCIS implementation
   Masaaki Saitow         : Open-shell DLPNO-CCSD energy and density
   Barbara Sandhoefer     : DKH picture change effects
   Avijit Sen             : IP-ROCIS
   Kantharuban Sivalingam : CASSCF convergence, NEVPT2, FIC-MRCI
   Bernardo de Souza      : ESD, SOC TD-DFT
   Georgi Stoychev        : AutoAux, RI-MP2 NMR, DLPNO-MP2 response
   Willem Van den Heuvel  : Paramagnetic NMR
   Boris Wezisla          : Elementary symmetry handling
   Frank Wennmohs         : Technical directorship


 We gratefully acknowledge several colleagues who have allowed us to
 interface, adapt or use parts of their codes:
   Stefan Grimme, W. Hujo, H. Kruse, P. Pracht,  : VdW corrections, initial TS optimization,
                  C. Bannwarth, S. Ehlert          DFT functionals, gCP, sTDA/sTD-DF
   Ed Valeev, F. Pavosevic, A. Kumar             : LibInt (2-el integral package), F12 methods
   Garnet Chan, S. Sharma, J. Yang, R. Olivares  : DMRG
   Ulf Ekstrom                                   : XCFun DFT Library
   Mihaly Kallay                                 : mrcc  (arbitrary order and MRCC methods)
   Jiri Pittner, Ondrej Demel                    : Mk-CCSD
   Frank Weinhold                                : gennbo (NPA and NBO analysis)
   Christopher J. Cramer and Donald G. Truhlar   : smd solvation model
   Lars Goerigk                                  : TD-DFT with DH, B97 family of functionals
   V. Asgeirsson, H. Jonsson                     : NEB implementation
   FAccTs GmbH                                   : IRC, NEB, NEB-TS, DLPNO-Multilevel, CI-OPT
                                                   MM, QMMM, 2- and 3-layer-ONIOM, Crystal-QMMM,
                                                   LR-CPCM, SF, NACMEs, symmetry and pop. for TD-DFT,
                                                   nearIR, NL-DFT gradient (VV10), updates on ESD,
                                                   ML-optimized integration grids
   S Lehtola, MJT Oliveira, MAL Marques          : LibXC Library
   Liviu Ungur et al                             : ANISO software


 Your calculation uses the libint2 library for the computation of 2-el integrals
 For citations please refer to: http://libint.valeyev.net

 Your ORCA version has been built with support for libXC version: 5.1.0
 For citations please refer to: https://tddft.org/programs/libxc/

 This ORCA versions uses:
   CBLAS   interface :  Fast vector & matrix operations
   LAPACKE interface :  Fast linear algebra routines
   SCALAPACK package :  Parallel linear algebra routines
   Shared memory     :  Shared parallel matrices
   BLAS/LAPACK       :  OpenBLAS 0.3.15  USE64BITINT DYNAMIC_ARCH NO_AFFINITY Sandybridge SINGLE_THREADED
        Core in use  :  Sandybridge
   Copyright (c) 2011-2014, The OpenBLAS Project


Your calculation utilizes the atom-pairwise dispersion correction
with the Becke-Johnson damping scheme (D3BJ)
Cite in your paper:
S.Grimme, S.Ehrlich, L.Goerigk, J Comput Chem, (2011), 32, 1456–1465 
S.Grimme, J.Antony, S.Ehrlich and H.Krieg, J.Chem.Phys., 132, (2010), 154104 
   

Your calculation utilizes the SMD solvation module
Please cite in your paper:
A.V. Marenich, C.J. Cramer, D.G. Truhlar J. Phys. Chem. B, 113, (2009), 6378 

================================================================================

----- Orbital basis set information -----
Your calculation utilizes the basis: aug-cc-pVTZ 
    H, B-Ne : Obtained from the ccRepo (grant-hill.group.shef.ac.uk/ccrepo) Feb. 2017
              R. A. Kendall, T. H. Dunning, Jr., R. J. Harrison, J. Chem. Phys. 96, 6796 (1992)
         He : Obtained from the ccRepo (grant-hill.group.shef.ac.uk/ccrepo) Feb. 2017
              D. E. Woon, T. H. Dunning, Jr., J. Chem. Phys. 100, 2975 (1994)
  Li-Be, Na : Obtained from the ccRepo (grant-hill.group.shef.ac.uk/ccrepo) Feb. 2017
              B. P. Prascher, D. E. Woon, K. A. Peterson, T. H. Dunning, Jr., A. K. Wilson, Theor. Chem. Acc. 128, 69 (2011)
         Mg : Obtained from the Peterson Research Group Website (tyr0.chem.wsu.edu/~kipeters) Feb. 2017
              B. P. Prascher, D. E. Woon, K. A. Peterson, T. H. Dunning, Jr., A. K. Wilson, Theor. Chem. Acc. 128, 69 (2011)
      Al-Ar : Obtained from the ccRepo (grant-hill.group.shef.ac.uk/ccrepo) Feb. 2017
              D. E. Woon, T. H. Dunning, Jr., J. Chem. Phys. 98, 1358 (1993)
      Sc-Zn : Obtained from the ccRepo (grant-hill.group.shef.ac.uk/ccrepo) Feb. 2017
              N. B. Balabanov, K. A. Peterson, J. Chem. Phys. 123, 064107 (2005)
              N. B. Balabanov, K. A. Peterson, J. Chem. Phys. 125, 074110 (2006)
      Ga-Kr : Obtained from the ccRepo (grant-hill.group.shef.ac.uk/ccrepo) Feb. 2017
              A. K. Wilson, D. E. Woon, K. A. Peterson, T. H. Dunning, Jr., J. Chem. Phys. 110, 7667 (1999)
     Ag, Au : Obtained from the Peterson Research Group Website (tyr0.chem.wsu.edu/~kipeters) Feb. 2017
              K. A. Peterson, C. Puzzarini, Theor. Chem. Acc. 114, 283 (2005)

The basis set includes element-specific modifications.

Your calculation utilizes the basis: cc-pVTZ 
       H, B-Ne : Obtained from the ccRepo (grant-hill.group.shef.ac.uk/ccrepo) Feb. 2017
                 T. H. Dunning, Jr., J. Chem. Phys. 90, 1007 (1989)
            He : Obtained from the ccRepo (grant-hill.group.shef.ac.uk/ccrepo) Feb. 2017
                 D. E. Woon, T. H. Dunning, Jr., J. Chem. Phys. 100, 2975 (1994)
  Li-Be, Na-Mg : Obtained from the ccRepo (grant-hill.group.shef.ac.uk/ccrepo) Feb. 2017
                 B. P. Prascher, D. E. Woon, K. A. Peterson, T. H. Dunning, Jr., A. K. Wilson, Theor. Chem. Acc. 128, 69 (2011)
         Al-Ar : Obtained from the ccRepo (grant-hill.group.shef.ac.uk/ccrepo) Feb. 2017
                 D. E. Woon, T. H. Dunning, Jr., J. Chem. Phys. 98, 1358 (1993)
            Ca : Obtained from the Peterson Research Group Website (tyr0.chem.wsu.edu/~kipeters) Feb. 2017
                 J. Koput, K. A. Peterson, J. Phys. Chem. 106, 9595 (2002)
         Sc-Zn : Obtained from the ccRepo (grant-hill.group.shef.ac.uk/ccrepo) Feb. 2017
                 N. B. Balabanov, K. A. Peterson, J. Chem. Phys. 123, 064107 (2005)
                 N. B. Balabanov, K. A. Peterson, J. Chem. Phys. 125, 074110 (2006)
         Ga-Kr : Obtained from the ccRepo (grant-hill.group.shef.ac.uk/ccrepo) Feb. 2017
                 A. K. Wilson, D. E. Woon, K. A. Peterson, T. H. Dunning, Jr., J. Chem. Phys. 110, 7667 (1999)
             Y : Obtained from the ccRepo (grant-hill.group.shef.ac.uk/ccrepo) Feb. 2017
                 K. A. Peterson, D. Figgen, M. Dolg, H. Stoll, J. Chem. Phys. 126, 124101 (2007)
        Ag, Au : Obtained from the Peterson Research Group Website (tyr0.chem.wsu.edu/~kipeters) Feb. 2017
                 K. A. Peterson, C. Puzzarini, Theor. Chem. Acc. 114, 283 (2005)

----- AuxJ basis set information -----
Your calculation utilizes the auxiliary basis: aug-cc-pVTZ/JK 
  H, B-F, Al-Cl, Ga-Br : Obtained from the TURBOMOLE 7.0 basis set library

The basis set includes element-specific modifications.

Your calculation utilizes the auxiliary basis: cc-pVTZ/JK 
  H, B-F, Al-Cl, Ga-Br : Obtained from the TURBOMOLE 7.0 basis set library

----- AuxC basis set information -----
Your calculation utilizes the auxiliary basis: aug-cc-pVTZ/C 
  H-He, B-F, Al-Ar, Ga-Kr : Obtained from the EMSL Basis Set Exchange (bse.pnl.gov) Feb. 2017
                            F. Weigend, A. Kohn, C. Hattig, J. Chem. Phys. 116, 3175 (2002)
                   Be, Mg : Obtained from the TURBOMOLE 7.0 basis set library
                            C. Haettig, Phys. Chem. Chem. Phys. 7, 59 (2005)
                       Ne : Obtained from the EMSL Basis Set Exchange (bse.pnl.gov) Feb. 2017
                            C. Haettig, Phys. Chem. Chem. Phys. 7, 59 (2005)
                            F. Weigend, A. Kohn, C. Hattig, J. Chem. Phys. 116, 3175 (2002)
                    Sc-Zn : Obtained from the EMSL Basis Set Exchange (bse.pnl.gov) Feb. 2017
                            J. G. Hill, J. A. Platts, J. Chem. Phys. 128, 044104 (2008)

The basis set includes element-specific modifications.

Your calculation utilizes the auxiliary basis: cc-pVTZ/C 
  Obtained from the EMSL Basis Set Exchange (bse.pnl.gov) Feb. 2017
  H-He, B-F, Al-Ar, Ga-Kr : F. Weigend, A. Kohn, C. Hattig, J. Chem. Phys. 116, 3175 (2002)
             Li-Be, Na-Mg : C. Haettig, Phys. Chem. Chem. Phys. 7, 59 (2005)
                       Ne : C. Haettig, Phys. Chem. Chem. Phys. 7, 59 (2005)
                            F. Weigend, A. Kohn, C. Hattig, J. Chem. Phys. 116, 3175 (2002)
                    Sc-Zn : J. G. Hill, J. A. Platts, J. Chem. Phys. 128, 044104 (2008)

================================================================================
                                        WARNINGS
                       Please study these warnings very carefully!
================================================================================


WARNING: Geometry Optimization
  ===> : Switching off AutoStart
         For restart on a previous wavefunction, please use MOREAD

INFO   : the flag for use of the SHARK integral package has been found!



***************************************
The coordinates will be read from file: 
***************************************


Your calculation utilizes the atom-pairwise dispersion correction
with the Becke-Johnson damping scheme (D3BJ)
Cite in your paper:
S.Grimme, S.Ehrlich, L.Goerigk, J Comput Chem, (2011), 32, 1456–1465 
S.Grimme, J.Antony, S.Ehrlich and H.Krieg, J.Chem.Phys., 132, (2010), 154104 
   

Your calculation utilizes the SMD solvation module
Please cite in your paper:
A.V. Marenich, C.J. Cramer, D.G. Truhlar J. Phys. Chem. B, 113, (2009), 6378 

================================================================================

----- Orbital basis set information -----
Your calculation utilizes the basis: aug-cc-pVTZ 
    H, B-Ne : Obtained from the ccRepo (grant-hill.group.shef.ac.uk/ccrepo) Feb. 2017
              R. A. Kendall, T. H. Dunning, Jr., R. J. Harrison, J. Chem. Phys. 96, 6796 (1992)
         He : Obtained from the ccRepo (grant-hill.group.shef.ac.uk/ccrepo) Feb. 2017
              D. E. Woon, T. H. Dunning, Jr., J. Chem. Phys. 100, 2975 (1994)
  Li-Be, Na : Obtained from the ccRepo (grant-hill.group.shef.ac.uk/ccrepo) Feb. 2017
              B. P. Prascher, D. E. Woon, K. A. Peterson, T. H. Dunning, Jr., A. K. Wilson, Theor. Chem. Acc. 128, 69 (2011)
         Mg : Obtained from the Peterson Research Group Website (tyr0.chem.wsu.edu/~kipeters) Feb. 2017
              B. P. Prascher, D. E. Woon, K. A. Peterson, T. H. Dunning, Jr., A. K. Wilson, Theor. Chem. Acc. 128, 69 (2011)
      Al-Ar : Obtained from the ccRepo (grant-hill.group.shef.ac.uk/ccrepo) Feb. 2017
              D. E. Woon, T. H. Dunning, Jr., J. Chem. Phys. 98, 1358 (1993)
      Sc-Zn : Obtained from the ccRepo (grant-hill.group.shef.ac.uk/ccrepo) Feb. 2017
              N. B. Balabanov, K. A. Peterson, J. Chem. Phys. 123, 064107 (2005)
              N. B. Balabanov, K. A. Peterson, J. Chem. Phys. 125, 074110 (2006)
      Ga-Kr : Obtained from the ccRepo (grant-hill.group.shef.ac.uk/ccrepo) Feb. 2017
              A. K. Wilson, D. E. Woon, K. A. Peterson, T. H. Dunning, Jr., J. Chem. Phys. 110, 7667 (1999)
     Ag, Au : Obtained from the Peterson Research Group Website (tyr0.chem.wsu.edu/~kipeters) Feb. 2017
              K. A. Peterson, C. Puzzarini, Theor. Chem. Acc. 114, 283 (2005)

The basis set includes element-specific modifications.

Your calculation utilizes the basis: cc-pVTZ 
       H, B-Ne : Obtained from the ccRepo (grant-hill.group.shef.ac.uk/ccrepo) Feb. 2017
                 T. H. Dunning, Jr., J. Chem. Phys. 90, 1007 (1989)
            He : Obtained from the ccRepo (grant-hill.group.shef.ac.uk/ccrepo) Feb. 2017
                 D. E. Woon, T. H. Dunning, Jr., J. Chem. Phys. 100, 2975 (1994)
  Li-Be, Na-Mg : Obtained from the ccRepo (grant-hill.group.shef.ac.uk/ccrepo) Feb. 2017
                 B. P. Prascher, D. E. Woon, K. A. Peterson, T. H. Dunning, Jr., A. K. Wilson, Theor. Chem. Acc. 128, 69 (2011)
         Al-Ar : Obtained from the ccRepo (grant-hill.group.shef.ac.uk/ccrepo) Feb. 2017
                 D. E. Woon, T. H. Dunning, Jr., J. Chem. Phys. 98, 1358 (1993)
            Ca : Obtained from the Peterson Research Group Website (tyr0.chem.wsu.edu/~kipeters) Feb. 2017
                 J. Koput, K. A. Peterson, J. Phys. Chem. 106, 9595 (2002)
         Sc-Zn : Obtained from the ccRepo (grant-hill.group.shef.ac.uk/ccrepo) Feb. 2017
                 N. B. Balabanov, K. A. Peterson, J. Chem. Phys. 123, 064107 (2005)
                 N. B. Balabanov, K. A. Peterson, J. Chem. Phys. 125, 074110 (2006)
         Ga-Kr : Obtained from the ccRepo (grant-hill.group.shef.ac.uk/ccrepo) Feb. 2017
                 A. K. Wilson, D. E. Woon, K. A. Peterson, T. H. Dunning, Jr., J. Chem. Phys. 110, 7667 (1999)
             Y : Obtained from the ccRepo (grant-hill.group.shef.ac.uk/ccrepo) Feb. 2017
                 K. A. Peterson, D. Figgen, M. Dolg, H. Stoll, J. Chem. Phys. 126, 124101 (2007)
        Ag, Au : Obtained from the Peterson Research Group Website (tyr0.chem.wsu.edu/~kipeters) Feb. 2017
                 K. A. Peterson, C. Puzzarini, Theor. Chem. Acc. 114, 283 (2005)

----- AuxJ basis set information -----
Your calculation utilizes the auxiliary basis: aug-cc-pVTZ/JK 
  H, B-F, Al-Cl, Ga-Br : Obtained from the TURBOMOLE 7.0 basis set library

The basis set includes element-specific modifications.

Your calculation utilizes the auxiliary basis: cc-pVTZ/JK 
  H, B-F, Al-Cl, Ga-Br : Obtained from the TURBOMOLE 7.0 basis set library

----- AuxC basis set information -----
Your calculation utilizes the auxiliary basis: aug-cc-pVTZ/C 
  H-He, B-F, Al-Ar, Ga-Kr : Obtained from the EMSL Basis Set Exchange (bse.pnl.gov) Feb. 2017
                            F. Weigend, A. Kohn, C. Hattig, J. Chem. Phys. 116, 3175 (2002)
                   Be, Mg : Obtained from the TURBOMOLE 7.0 basis set library
                            C. Haettig, Phys. Chem. Chem. Phys. 7, 59 (2005)
                       Ne : Obtained from the EMSL Basis Set Exchange (bse.pnl.gov) Feb. 2017
                            C. Haettig, Phys. Chem. Chem. Phys. 7, 59 (2005)
                            F. Weigend, A. Kohn, C. Hattig, J. Chem. Phys. 116, 3175 (2002)
                    Sc-Zn : Obtained from the EMSL Basis Set Exchange (bse.pnl.gov) Feb. 2017
                            J. G. Hill, J. A. Platts, J. Chem. Phys. 128, 044104 (2008)

The basis set includes element-specific modifications.

Your calculation utilizes the auxiliary basis: cc-pVTZ/C 
  Obtained from the EMSL Basis Set Exchange (bse.pnl.gov) Feb. 2017
  H-He, B-F, Al-Ar, Ga-Kr : F. Weigend, A. Kohn, C. Hattig, J. Chem. Phys. 116, 3175 (2002)
             Li-Be, Na-Mg : C. Haettig, Phys. Chem. Chem. Phys. 7, 59 (2005)
                       Ne : C. Haettig, Phys. Chem. Chem. Phys. 7, 59 (2005)
                            F. Weigend, A. Kohn, C. Hattig, J. Chem. Phys. 116, 3175 (2002)
                    Sc-Zn : J. G. Hill, J. A. Platts, J. Chem. Phys. 128, 044104 (2008)

================================================================================
                                        WARNINGS
                       Please study these warnings very carefully!
================================================================================

INFO   : Checking CIS options ...
  ===> : (D) CORRECTION FOUND - SETTING MODE=3
  ===> : JK MODE FOUND - ACTIVATING RI-MP2 CODE
  ===> : MP2 AND CIS FOUND - CHECKING
WARNING: CIS(D) and MP2 runs must have the same orbital window
  ===> : adjusting orbital windows

WARNING: No MP2 level density has been requested!
         To caclulate MP2 level properties use
         %mp2 Density relaxed end
         or
         %mp2 Density unrelaxed end
         Otherwise for double-hybrid DFT only the energy is correct!

WARNING: The frozen-core approximation is turned on by default for 
         the MP2 part of double-hybrid DFT.

INFO   : the flag for use of the SHARK integral package has been found!

================================================================================
                                       INPUT FILE
================================================================================
NAME = optpbed3-b2plyp-test-596.inp
|  1> ! pbe0 d3bj aug-cc-PVTZ RIJCOSX Opt
|  2> %maxcore 4000
|  3> %basis
|  4>  AuxJ "aug-cc-PVTZ/JK"
|  5>  AuxC "aug-cc-PVTZ/C"
|  6>  newGTO H "cc-PVTZ" end
|  7>  newAuxJGTO H "cc-PVTZ/JK" end
|  8>  newAuxCGTO H "cc-PVTZ/C" end
|  9> end
| 10> %cpcm
| 11>  SMD true
| 12>  SMDsolvent "acetonitrile"
| 13> end
| 14> %pal nprocs 4 end
| 15> * xyz 0 1
| 16> C          0.26690       -3.85550        0.13410
| 17> N         -0.00260       -2.44740        0.14590
| 18> N         -1.25830       -1.97320        0.21090
| 19> C         -1.23210       -0.65720        0.21560
| 20> C         -2.43120        0.15250        0.27620
| 21> C         -3.68680       -0.45460        0.33620
| 22> C         -4.82830        0.31940        0.39290
| 23> C         -4.73330        1.70290        0.39040
| 24> C         -3.48930        2.31050        0.33110
| 25> C         -2.34060        1.54450        0.27420
| 26> C          0.13440       -0.21520        0.15140
| 27> N          0.72210        0.95920        0.13040
| 28> C          2.06470        0.92650        0.06480
| 29> C          2.76370        2.15370        0.04140
| 30> C          4.12660        2.15340       -0.02650
| 31> Cl         4.99340        3.64670       -0.05440
| 32> C          4.86350        0.95160       -0.07550
| 33> C          4.21620       -0.24690       -0.05380
| 34> C          2.80560       -0.30330        0.01780
| 35> N          2.20340       -1.50510        0.04030
| 36> C          0.89120       -1.44000        0.10770
| 37> H         -0.05820       -4.31020        1.07200
| 38> H          1.34020       -3.98610        0.01100
| 39> H         -0.26690       -4.33000       -0.69070
| 40> H         -3.74170       -1.53190        0.33720
| 41> H         -5.79820       -0.15420        0.43920
| 42> H         -5.62850        2.30600        0.43460
| 43> H         -3.41600        3.38830        0.32910
| 44> H         -1.36800        2.00900        0.22770
| 45> H          2.19260        3.06730        0.07880
| 46> H          5.93990        0.99960       -0.12980
| 47> H          4.75520       -1.18050       -0.08970
| 48> *
| 49> 
| 50> 
| 51> $new_job
| 52> ! b2plyp aug-cc-PVTZ RIJCOSX SP
| 53> %maxcore 4000
| 54> %basis
| 55>  AuxJ "aug-cc-PVTZ/JK"
| 56>  AuxC "aug-cc-PVTZ/C"
| 57>  newGTO H "cc-PVTZ" end
| 58>  newAuxJGTO H "cc-PVTZ/JK" end
| 59>  newAuxCGTO H "cc-PVTZ/C" end
| 60> end
| 61> %cpcm
| 62>  SMD true
| 63>  SMDsolvent "acetonitrile"
| 64> end
| 65> %pal nprocs 4 end
| 66> %tddft
| 67>  nroots 10
| 68>  maxdim 7
| 69> end
| 70> * xyzfile 0 1
| 71> 
| 72>                          ****END OF INPUT****
================================================================================


                 $$$$$$$$$$$$$$$$$$$$$$$$$$$$$$$$$$$$$$$$$$$$$$ 
                 $ THERE ARE  2 JOBS TO BE PROCESSED THIS RUN $
                 $$$$$$$$$$$$$$$$$$$$$$$$$$$$$$$$$$$$$$$$$$$$$$ 




                 $$$$$$$$$$$$$$$$  JOB NUMBER  1 $$$$$$$$$$$$$$


                       *****************************
                       * Geometry Optimization Run *
                       *****************************

Geometry optimization settings:
Update method            Update   .... BFGS
Choice of coordinates    CoordSys .... Z-matrix Internals
Initial Hessian          InHess   .... Almoef's Model

Convergence Tolerances:
Energy Change            TolE     ....  5.0000e-06 Eh
Max. Gradient            TolMAXG  ....  3.0000e-04 Eh/bohr
RMS Gradient             TolRMSG  ....  1.0000e-04 Eh/bohr
Max. Displacement        TolMAXD  ....  4.0000e-03 bohr
RMS Displacement         TolRMSD  ....  2.0000e-03 bohr
Strict Convergence                ....  False
------------------------------------------------------------------------------
                        ORCA OPTIMIZATION COORDINATE SETUP
------------------------------------------------------------------------------

The optimization will be done in new redundant internal coordinates
Making redundant internal coordinates   ...  (new redundants) done
Evaluating the initial hessian          ...  (Almloef) done
Evaluating the coordinates              ...  done
Calculating the B-matrix                .... done
Calculating the G-matrix                .... done
Diagonalizing the G-matrix              .... done
Small eigenvalue found = 4.541e-03
Small eigenvalue found = 2.225e-02
The first mode is                       ....   84
The number of degrees of freedom        ....   90

    -----------------------------------------------------------------
                    Redundant Internal Coordinates


    -----------------------------------------------------------------
         Definition                    Initial Value    Approx d2E/dq
    -----------------------------------------------------------------
      1. B(N   1,C   0)                  1.4337         0.476589   
      2. B(N   2,N   1)                  1.3438         0.593851   
      3. B(C   3,N   2)                  1.3163         0.733683   
      4. B(C   4,C   3)                  1.4481         0.504627   
      5. B(C   5,C   4)                  1.3960         0.611267   
      6. B(C   6,C   5)                  1.3803         0.647389   
      7. B(C   7,C   6)                  1.3868         0.632277   
      8. B(C   8,C   7)                  1.3857         0.634689   
      9. B(C   9,C   8)                  1.3818         0.643789   
     10. B(C   9,C   4)                  1.3949         0.613545   
     11. B(C  10,C   3)                  1.4376         0.524484   
     12. B(N  11,C  10)                  1.3134         0.741428   
     13. B(C  12,N  11)                  1.3446         0.661164   
     14. B(C  13,C  12)                  1.4125         0.575221   
     15. B(C  14,C  13)                  1.3646         0.685927   
     16. B(Cl 15,C  14)                  1.7269         0.406712   
     17. B(C  16,C  14)                  1.4106         0.579294   
     18. B(C  17,C  16)                  1.3623         0.691714   
     19. B(C  18,C  17)                  1.4135         0.573033   
     20. B(C  18,C  12)                  1.4365         0.526673   
     21. B(N  19,C  18)                  1.3444         0.661592   
     22. B(C  20,N  19)                  1.3155         0.735646   
     23. B(C  20,C  10)                  1.4404         0.519167   
     24. B(C  20,N   1)                  1.3473         0.654659   
     25. B(H  21,C   0)                  1.0918         0.357684   
     26. B(H  22,C   0)                  1.0882         0.362487   
     27. B(H  23,C   0)                  1.0910         0.358715   
     28. B(H  24,C   5)                  1.0787         0.375365   
     29. B(H  25,C   6)                  1.0803         0.373101   
     30. B(H  26,C   7)                  1.0803         0.373152   
     31. B(H  27,C   8)                  1.0803         0.373175   
     32. B(H  28,C   9)                  1.0788         0.375184   
     33. B(H  29,C  13)                  1.0781         0.376243   
     34. B(H  30,C  16)                  1.0788         0.375174   
     35. B(H  31,C  17)                  1.0786         0.375475   
     36. A(N   1,C   0,H  22)          107.7102         0.335977   
     37. A(H  21,C   0,H  22)          109.9300         0.290834   
     38. A(N   1,C   0,H  21)          110.2415         0.335233   
     39. A(N   1,C   0,H  23)          109.9616         0.335393   
     40. A(H  22,C   0,H  23)          110.1722         0.290965   
     41. A(H  21,C   0,H  23)          108.8198         0.290356   
     42. A(C   0,N   1,C  20)          127.5484         0.412753   
     43. A(N   2,N   1,C  20)          110.9418         0.426424   
     44. A(C   0,N   1,N   2)          121.5078         0.403030   
     45. A(N   1,N   2,C   3)          109.5345         0.435241   
     46. A(N   2,C   3,C  10)          109.0350         0.431308   
     47. A(C   4,C   3,C  10)          128.0986         0.406115   
     48. A(N   2,C   3,C   4)          122.8664         0.428331   
     49. A(C   3,C   4,C   5)          120.2254         0.417298   
     50. A(C   3,C   4,C   9)          120.2722         0.417575   
     51. A(C   5,C   4,C   9)          119.5024         0.432146   
     52. A(C   4,C   5,C   6)          120.1144         0.436342   
     53. A(C   6,C   5,H  24)          121.1903         0.358020   
     54. A(C   4,C   5,H  24)          118.6953         0.354547   
     55. A(C   5,C   6,H  25)          119.8928         0.357652   
     56. A(C   5,C   6,C   7)          120.1782         0.439009   
     57. A(C   7,C   6,H  25)          119.9290         0.356219   
     58. A(C   6,C   7,H  26)          120.0075         0.356228   
     59. A(C   8,C   7,H  26)          120.0575         0.356458   
     60. A(C   6,C   7,C   8)          119.9349         0.437443   
     61. A(C   9,C   8,H  27)          119.7734         0.357325   
     62. A(C   7,C   8,H  27)          119.8976         0.356462   
     63. A(C   7,C   8,C   9)          120.3290         0.438869   
     64. A(C   8,C   9,H  28)          120.8323         0.357651   
     65. A(C   4,C   9,H  28)          119.2266         0.354741   
     66. A(C   4,C   9,C   8)          119.9411         0.436196   
     67. A(N  11,C  10,C  20)          121.6502         0.431332   
     68. A(C   3,C  10,C  20)          103.8472         0.408161   
     69. A(C   3,C  10,N  11)          134.5026         0.432123   
     70. A(C  10,N  11,C  12)          115.2032         0.447613   
     71. A(C  13,C  12,C  18)          119.2103         0.415962   
     72. A(N  11,C  12,C  18)          122.5078         0.423654   
     73. A(N  11,C  12,C  13)          118.2818         0.430400   
     74. A(C  12,C  13,H  29)          118.2645         0.351057   
     75. A(C  14,C  13,H  29)          122.0732         0.361708   
     76. A(C  12,C  13,C  14)          119.6622         0.436109   
     77. A(Cl 15,C  14,C  16)          118.2923         0.415693   
     78. A(C  13,C  14,C  16)          121.5792         0.436664   
     79. A(C  13,C  14,Cl 15)          120.1286         0.428429   
     80. A(C  14,C  16,H  30)          119.0170         0.351307   
     81. A(C  14,C  16,C  17)          120.0509         0.437326   
     82. A(C  17,C  16,H  30)          120.9321         0.362051   
     83. A(C  18,C  17,H  31)          117.7635         0.350710   
     84. A(C  16,C  17,H  31)          121.5679         0.362101   
     85. A(C  16,C  17,C  18)          120.6686         0.436470   
     86. A(C  17,C  18,N  19)          118.9147         0.430156   
     87. A(C  12,C  18,N  19)          122.2567         0.423703   
     88. A(C  12,C  18,C  17)          118.8286         0.415680   
     89. A(C  18,N  19,C  20)          113.7914         0.447030   
     90. A(C  10,C  20,N  19)          124.5902         0.430726   
     91. A(N   1,C  20,N  19)          128.7682         0.446178   
     92. A(N   1,C  20,C  10)          106.6414         0.421823   
     93. D(C  20,N   1,C   0,H  21)    115.6867         0.019420   
     94. D(N   2,N   1,C   0,H  23)     56.2200         0.019420   
     95. D(N   2,N   1,C   0,H  22)    176.2944         0.019420   
     96. D(C  20,N   1,C   0,H  23)   -124.3306         0.019420   
     97. D(N   2,N   1,C   0,H  21)    -63.7626         0.019420   
     98. D(C  20,N   1,C   0,H  22)     -4.2563         0.019420   
     99. D(C   3,N   2,N   1,C   0)    179.6200         0.030170   
    100. D(C   3,N   2,N   1,C  20)      0.0875         0.030170   
    101. D(C  10,C   3,N   2,N   1)     -0.0909         0.040692   
    102. D(C   4,C   3,N   2,N   1)    179.8541         0.040692   
    103. D(C   9,C   4,C   3,C  10)      0.1233         0.017349   
    104. D(C   5,C   4,C   3,C  10)   -179.9181         0.017349   
    105. D(C   5,C   4,C   3,N   2)      0.1479         0.017349   
    106. D(C   9,C   4,C   3,N   2)   -179.8107         0.017349   
    107. D(C   6,C   5,C   4,C   3)   -179.9522         0.025812   
    108. D(H  24,C   5,C   4,C   9)   -179.9884         0.025812   
    109. D(H  24,C   5,C   4,C   3)      0.0527         0.025812   
    110. D(C   6,C   5,C   4,C   9)      0.0066         0.025812   
    111. D(H  25,C   6,C   5,H  24)     -0.0075         0.029165   
    112. D(H  25,C   6,C   5,C   4)    179.9976         0.029165   
    113. D(C   7,C   6,C   5,C   4)      0.0063         0.029165   
    114. D(C   7,C   6,C   5,H  24)   -179.9988         0.029165   
    115. D(H  26,C   7,C   6,H  25)     -0.0072         0.027731   
    116. D(H  26,C   7,C   6,C   5)    179.9841         0.027731   
    117. D(C   8,C   7,C   6,H  25)    179.9960         0.027731   
    118. D(C   8,C   7,C   6,C   5)     -0.0128         0.027731   
    119. D(H  27,C   8,C   7,H  26)     -0.0022         0.027957   
    120. D(H  27,C   8,C   7,C   6)    179.9947         0.027957   
    121. D(C   9,C   8,C   7,H  26)   -179.9906         0.027957   
    122. D(C   9,C   8,C   7,C   6)      0.0062         0.027957   
    123. D(C   8,C   9,C   4,C   3)    179.9457         0.026016   
    124. D(H  28,C   9,C   8,H  27)      0.0041         0.028820   
    125. D(H  28,C   9,C   8,C   7)    179.9926         0.028820   
    126. D(C   4,C   9,C   8,H  27)   -179.9818         0.028820   
    127. D(H  28,C   9,C   4,C   5)   -179.9992         0.026016   
    128. D(H  28,C   9,C   4,C   3)     -0.0403         0.026016   
    129. D(C   8,C   9,C   4,C   5)     -0.0131         0.026016   
    130. D(C   4,C   9,C   8,C   7)      0.0067         0.028820   
    131. D(C  20,C  10,C   3,C   4)   -179.8809         0.018767   
    132. D(C  20,C  10,C   3,N   2)      0.0605         0.018767   
    133. D(N  11,C  10,C   3,C   4)      0.1897         0.018767   
    134. D(N  11,C  10,C   3,N   2)   -179.8689         0.018767   
    135. D(C  12,N  11,C  10,C  20)      0.0517         0.041648   
    136. D(C  12,N  11,C  10,C   3)    179.9711         0.041648   
    137. D(C  18,C  12,N  11,C  10)      0.1386         0.032399   
    138. D(C  13,C  12,N  11,C  10)   -179.8768         0.032399   
    139. D(H  29,C  13,C  12,C  18)   -179.9112         0.022715   
    140. D(H  29,C  13,C  12,N  11)      0.1037         0.022715   
    141. D(C  14,C  13,C  12,C  18)      0.0619         0.022715   
    142. D(C  14,C  13,C  12,N  11)   -179.9231         0.022715   
    143. D(C  16,C  14,C  13,H  29)   -179.9754         0.033026   
    144. D(C  16,C  14,C  13,C  12)      0.0525         0.033026   
    145. D(Cl 15,C  14,C  13,H  29)      0.0251         0.033026   
    146. D(Cl 15,C  14,C  13,C  12)   -179.9470         0.033026   
    147. D(H  30,C  16,C  14,Cl 15)     -0.0712         0.023053   
    148. D(H  30,C  16,C  14,C  13)    179.9292         0.023053   
    149. D(C  17,C  16,C  14,Cl 15)    179.9166         0.023053   
    150. D(C  17,C  16,C  14,C  13)     -0.0829         0.023053   
    151. D(H  31,C  17,C  16,H  30)      0.0161         0.033632   
    152. D(H  31,C  17,C  16,C  14)   -179.9715         0.033632   
    153. D(C  18,C  17,C  16,H  30)    179.9821         0.033632   
    154. D(C  18,C  17,C  16,C  14)     -0.0055         0.033632   
    155. D(C  17,C  18,C  12,N  11)    179.8389         0.018928   
    156. D(N  19,C  18,C  17,H  31)      0.1198         0.022535   
    157. D(N  19,C  18,C  17,C  16)   -179.8474         0.022535   
    158. D(C  12,C  18,C  17,H  31)   -179.9150         0.022535   
    159. D(C  12,C  18,C  17,C  16)      0.1177         0.022535   
    160. D(N  19,C  18,C  12,C  13)    179.8184         0.018928   
    161. D(N  19,C  18,C  12,N  11)     -0.1972         0.018928   
    162. D(C  17,C  18,C  12,C  13)     -0.1455         0.018928   
    163. D(C  20,N  19,C  18,C  17)   -179.9995         0.032444   
    164. D(C  20,N  19,C  18,C  12)      0.0366         0.032444   
    165. D(C  10,C  20,N  19,C  18)      0.1592         0.040933   
    166. D(N   1,C  20,N  19,C  18)    179.9722         0.040933   
    167. D(N  19,C  20,C  10,N  11)     -0.2197         0.018380   
    168. D(N  19,C  20,C  10,C   3)    179.8395         0.018380   
    169. D(N   1,C  20,C  10,N  11)    179.9325         0.018380   
    170. D(N   1,C  20,C  10,C   3)     -0.0084         0.018380   
    171. D(N  19,C  20,N   1,N   2)   -179.8852         0.035020   
    172. D(N  19,C  20,N   1,C   0)      0.6175         0.035020   
    173. D(C  10,C  20,N   1,N   2)     -0.0459         0.035020   
    174. D(C  10,C  20,N   1,C   0)   -179.5432         0.035020   
    -----------------------------------------------------------------

Number of atoms                         .... 32
Number of degrees of freedom            .... 174

         *************************************************************
         *                GEOMETRY OPTIMIZATION CYCLE   1            *
         *************************************************************
---------------------------------
CARTESIAN COORDINATES (ANGSTROEM)
---------------------------------
  C      0.266900   -3.855500    0.134100
  N     -0.002600   -2.447400    0.145900
  N     -1.258300   -1.973200    0.210900
  C     -1.232100   -0.657200    0.215600
  C     -2.431200    0.152500    0.276200
  C     -3.686800   -0.454600    0.336200
  C     -4.828300    0.319400    0.392900
  C     -4.733300    1.702900    0.390400
  C     -3.489300    2.310500    0.331100
  C     -2.340600    1.544500    0.274200
  C      0.134400   -0.215200    0.151400
  N      0.722100    0.959200    0.130400
  C      2.064700    0.926500    0.064800
  C      2.763700    2.153700    0.041400
  C      4.126600    2.153400   -0.026500
  Cl     4.993400    3.646700   -0.054400
  C      4.863500    0.951600   -0.075500
  C      4.216200   -0.246900   -0.053800
  C      2.805600   -0.303300    0.017800
  N      2.203400   -1.505100    0.040300
  C      0.891200   -1.440000    0.107700
  H     -0.058200   -4.310200    1.072000
  H      1.340200   -3.986100    0.011000
  H     -0.266900   -4.330000   -0.690700
  H     -3.741700   -1.531900    0.337200
  H     -5.798200   -0.154200    0.439200
  H     -5.628500    2.306000    0.434600
  H     -3.416000    3.388300    0.329100
  H     -1.368000    2.009000    0.227700
  H      2.192600    3.067300    0.078800
  H      5.939900    0.999600   -0.129800
  H      4.755200   -1.180500   -0.089700

----------------------------
CARTESIAN COORDINATES (A.U.)
----------------------------
  NO LB      ZA    FRAG     MASS         X           Y           Z
   0 C     6.0000    0    12.011    0.504368   -7.285839    0.253412
   1 N     7.0000    0    14.007   -0.004913   -4.624916    0.275711
   2 N     7.0000    0    14.007   -2.377842   -3.728808    0.398543
   3 C     6.0000    0    12.011   -2.328332   -1.241928    0.407425
   4 C     6.0000    0    12.011   -4.594302    0.288183    0.521942
   5 C     6.0000    0    12.011   -6.967042   -0.859070    0.635326
   6 C     6.0000    0    12.011   -9.124165    0.603579    0.742473
   7 C     6.0000    0    12.011   -8.944641    3.218015    0.737749
   8 C     6.0000    0    12.011   -6.593821    4.366212    0.625688
   9 C     6.0000    0    12.011   -4.423093    2.918682    0.518163
  10 C     6.0000    0    12.011    0.253979   -0.406669    0.286105
  11 N     7.0000    0    14.007    1.364571    1.812625    0.246420
  12 C     6.0000    0    12.011    3.901718    1.750831    0.122454
  13 C     6.0000    0    12.011    5.222636    4.069903    0.078235
  14 C     6.0000    0    12.011    7.798144    4.069336   -0.050078
  15 Cl   17.0000    0    35.453    9.436158    6.891264   -0.102801
  16 C     6.0000    0    12.011    9.190683    1.798263   -0.142674
  17 C     6.0000    0    12.011    7.967463   -0.466573   -0.101667
  18 C     6.0000    0    12.011    5.301816   -0.573154    0.033637
  19 N     7.0000    0    14.007    4.163823   -2.844227    0.076156
  20 C     6.0000    0    12.011    1.684124   -2.721206    0.203524
  21 H     1.0000    0     1.008   -0.109982   -8.145098    2.025786
  22 H     1.0000    0     1.008    2.532611   -7.532637    0.020787
  23 H     1.0000    0     1.008   -0.504368   -8.182514   -1.305234
  24 H     1.0000    0     1.008   -7.070788   -2.894871    0.637216
  25 H     1.0000    0     1.008  -10.957010   -0.291396    0.829968
  26 H     1.0000    0     1.008  -10.636324    4.357708    0.821275
  27 H     1.0000    0     1.008   -6.455304    6.402959    0.621909
  28 H     1.0000    0     1.008   -2.585145    3.796460    0.430291
  29 H     1.0000    0     1.008    4.143414    5.796357    0.148910
  30 H     1.0000    0     1.008   11.224784    1.888970   -0.245286
  31 H     1.0000    0     1.008    8.986026   -2.230822   -0.169508

--------------------------------
INTERNAL COORDINATES (ANGSTROEM)
--------------------------------
 C      0   0   0     0.000000000000     0.00000000     0.00000000
 N      1   0   0     1.433706769183     0.00000000     0.00000000
 N      2   1   0     1.343827790306   121.50783737     0.00000000
 C      3   2   1     1.316269170801   109.53446051   179.61998907
 C      4   3   2     1.448146145940   122.86641000   179.85414861
 C      5   4   3     1.395959086077   120.22544185     0.14786753
 C      6   5   4     1.380330808176   120.11444715   180.04776535
 C      7   6   5     1.386760072976   120.17819003     0.00000000
 C      8   7   6     1.385723727877   119.93494108     0.00000000
 C      9   8   7     1.381848508339   120.32895814     0.00000000
 C      4   3   2     1.437639694082   109.03500983   359.90907374
 N     11   4   3     1.313410693576   134.50256215   180.13111243
 C     12  11   4     1.344599349249   115.20321841   179.97114401
 C     13  12  11     1.412504300878   118.28183711   180.12319915
 C     14  13  12     1.364590381763   119.66223645   180.07685151
 Cl    15  14  13     1.726865814127   120.12855511   180.05297100
 C     15  14  13     1.410583514011   121.57919373     0.05249821
 C     17  15  14     1.362303354617   120.05087454   359.91710678
 C     18  17  15     1.413541608868   120.66858731     0.00000000
 N     19  18  17     1.344423419165   118.91469755   180.15256088
 C     20  19  18     1.315541565288   113.79142609   180.00050501
 H      1   2   3     1.091832638274   110.24145193   296.23741576
 H      1   2   3     1.088201663296   107.71017471   176.29437819
 H      1   2   3     1.091048912744   109.96156972    56.22003905
 H      6   5   4     1.078698428663   118.69530064     0.05273903
 H      7   6   5     1.080345620623   119.89280353   179.99755406
 H      8   7   6     1.080308423553   120.00751019   179.98409827
 H      9   8   7     1.080291502327   119.89762154   179.99470136
 H     10   9   8     1.078829578757   120.83229718   179.99256854
 H     14  13  12     1.078062581671   118.26451515     0.10366564
 H     17  15  14     1.078837082233   119.01701052   179.92923219
 H     18  17  15     1.078618917876   121.56785605   180.02846442

---------------------------
INTERNAL COORDINATES (A.U.)
---------------------------
 C      0   0   0     0.000000000000     0.00000000     0.00000000
 N      1   0   0     2.709313150104     0.00000000     0.00000000
 N      2   1   0     2.539466494832   121.50783737     0.00000000
 C      3   2   1     2.487388251337   109.53446051   179.61998907
 C      4   3   2     2.736599617720   122.86641000   179.85414861
 C      5   4   3     2.637980366844   120.22544185     0.14786753
 C      6   5   4     2.608447201667   120.11444715   180.04776535
 C      7   6   5     2.620596751381   120.17819003     0.00000000
 C      8   7   6     2.618638342963   119.93494108     0.00000000
 C      9   8   7     2.611315239329   120.32895814     0.00000000
 C      4   3   2     2.716745301069   109.03500983   359.90907374
 N     11   4   3     2.481986512222   134.50256215   180.13111243
 C     12  11   4     2.540924529929   115.20321841   179.97114401
 C     13  12  11     2.669246291646   118.28183711   180.12319915
 C     14  13  12     2.578702106515   119.66223645   180.07685151
 Cl    15  14  13     3.263303458731   120.12855511   180.05297100
 C     15  14  13     2.665616530505   121.57919373     0.05249821
 C     17  15  14     2.574380251548   120.05087454   359.91710678
 C     18  17  15     2.671206519662   120.66858731     0.00000000
 N     19  18  17     2.540592070252   118.91469755   180.15256088
 C     20  19  18     2.486013276184   113.79142609   180.00050501
 H      1   2   3     2.063264670414   110.24145193   296.23741576
 H      1   2   3     2.056403122107   107.71017471   176.29437819
 H      1   2   3     2.061783643799   109.96156972    56.22003905
 H      6   5   4     2.038444611264   118.69530064     0.05273903
 H      7   6   5     2.041557352959   119.89280353   179.99755406
 H      8   7   6     2.041487060684   120.00751019   179.98409827
 H      9   8   7     2.041455084200   119.89762154   179.99470136
 H     10   9   8     2.038692449023   120.83229718   179.99256854
 H     14  13  12     2.037243034587   118.26451515     0.10366564
 H     17  15  14     2.038706628538   119.01701052   179.92923219
 H     18  17  15     2.038294357652   121.56785605   180.02846442

---------------------
BASIS SET INFORMATION
---------------------
There are 4 groups of distinct atoms

 Group   1 Type C   : 19s6p3d2f contracted to 5s4p3d2f pattern {88111/3111/111/11}
 Group   2 Type N   : 19s6p3d2f contracted to 5s4p3d2f pattern {88111/3111/111/11}
 Group   3 Type Cl  : 42s17p3d2f contracted to 6s5p3d2f pattern {131313111/77111/111/11}
 Group   4 Type H   : 5s2p1d contracted to 3s2p1d pattern {311/11/1}

Atom   0C    basis set group =>   1
Atom   1N    basis set group =>   2
Atom   2N    basis set group =>   2
Atom   3C    basis set group =>   1
Atom   4C    basis set group =>   1
Atom   5C    basis set group =>   1
Atom   6C    basis set group =>   1
Atom   7C    basis set group =>   1
Atom   8C    basis set group =>   1
Atom   9C    basis set group =>   1
Atom  10C    basis set group =>   1
Atom  11N    basis set group =>   2
Atom  12C    basis set group =>   1
Atom  13C    basis set group =>   1
Atom  14C    basis set group =>   1
Atom  15Cl   basis set group =>   3
Atom  16C    basis set group =>   1
Atom  17C    basis set group =>   1
Atom  18C    basis set group =>   1
Atom  19N    basis set group =>   2
Atom  20C    basis set group =>   1
Atom  21H    basis set group =>   4
Atom  22H    basis set group =>   4
Atom  23H    basis set group =>   4
Atom  24H    basis set group =>   4
Atom  25H    basis set group =>   4
Atom  26H    basis set group =>   4
Atom  27H    basis set group =>   4
Atom  28H    basis set group =>   4
Atom  29H    basis set group =>   4
Atom  30H    basis set group =>   4
Atom  31H    basis set group =>   4
---------------------------------
AUXILIARY/J BASIS SET INFORMATION
---------------------------------
There are 4 groups of distinct atoms

 Group   1 Type C   : 10s7p5d2f1g contracted to 10s7p5d2f1g pattern {1111111111/1111111/11111/11/1}
 Group   2 Type N   : 10s7p5d2f1g contracted to 10s7p5d2f1g pattern {1111111111/1111111/11111/11/1}
 Group   3 Type Cl  : 13s11p9d3f1g contracted to 13s11p9d3f1g pattern {1111111111111/11111111111/111111111/111/1}
 Group   4 Type H   : 4s3p2d1f contracted to 4s3p2d1f pattern {1111/111/11/1}

Atom   0C    basis set group =>   1
Atom   1N    basis set group =>   2
Atom   2N    basis set group =>   2
Atom   3C    basis set group =>   1
Atom   4C    basis set group =>   1
Atom   5C    basis set group =>   1
Atom   6C    basis set group =>   1
Atom   7C    basis set group =>   1
Atom   8C    basis set group =>   1
Atom   9C    basis set group =>   1
Atom  10C    basis set group =>   1
Atom  11N    basis set group =>   2
Atom  12C    basis set group =>   1
Atom  13C    basis set group =>   1
Atom  14C    basis set group =>   1
Atom  15Cl   basis set group =>   3
Atom  16C    basis set group =>   1
Atom  17C    basis set group =>   1
Atom  18C    basis set group =>   1
Atom  19N    basis set group =>   2
Atom  20C    basis set group =>   1
Atom  21H    basis set group =>   4
Atom  22H    basis set group =>   4
Atom  23H    basis set group =>   4
Atom  24H    basis set group =>   4
Atom  25H    basis set group =>   4
Atom  26H    basis set group =>   4
Atom  27H    basis set group =>   4
Atom  28H    basis set group =>   4
Atom  29H    basis set group =>   4
Atom  30H    basis set group =>   4
Atom  31H    basis set group =>   4
---------------------------------
AUXILIARY/C BASIS SET INFORMATION
---------------------------------
There are 4 groups of distinct atoms

 Group   1 Type C   : 9s7p6d4f2g contracted to 9s7p6d4f2g pattern {111111111/1111111/111111/1111/11}
 Group   2 Type N   : 9s7p6d4f2g contracted to 9s7p6d4f2g pattern {111111111/1111111/111111/1111/11}
 Group   3 Type Cl  : 11s9p8d6f3g contracted to 11s9p8d6f3g pattern {11111111111/111111111/11111111/111111/111}
 Group   4 Type H   : 4s3p2d1f contracted to 4s3p2d1f pattern {1111/111/11/1}

Atom   0C    basis set group =>   1
Atom   1N    basis set group =>   2
Atom   2N    basis set group =>   2
Atom   3C    basis set group =>   1
Atom   4C    basis set group =>   1
Atom   5C    basis set group =>   1
Atom   6C    basis set group =>   1
Atom   7C    basis set group =>   1
Atom   8C    basis set group =>   1
Atom   9C    basis set group =>   1
Atom  10C    basis set group =>   1
Atom  11N    basis set group =>   2
Atom  12C    basis set group =>   1
Atom  13C    basis set group =>   1
Atom  14C    basis set group =>   1
Atom  15Cl   basis set group =>   3
Atom  16C    basis set group =>   1
Atom  17C    basis set group =>   1
Atom  18C    basis set group =>   1
Atom  19N    basis set group =>   2
Atom  20C    basis set group =>   1
Atom  21H    basis set group =>   4
Atom  22H    basis set group =>   4
Atom  23H    basis set group =>   4
Atom  24H    basis set group =>   4
Atom  25H    basis set group =>   4
Atom  26H    basis set group =>   4
Atom  27H    basis set group =>   4
Atom  28H    basis set group =>   4
Atom  29H    basis set group =>   4
Atom  30H    basis set group =>   4
Atom  31H    basis set group =>   4


           ************************************************************
           *        Program running with 4 parallel MPI-processes     *
           *              working on a common directory               *
           ************************************************************
------------------------------------------------------------------------------
                           ORCA GTO INTEGRAL CALCULATION
                           -- RI-GTO INTEGRALS CHOSEN --
------------------------------------------------------------------------------
------------------------------------------------------------------------------
                   ___                                                        
                  /   \      - P O W E R E D   B Y -                         
                 /     \                                                     
                 |  |  |   _    _      __       _____    __    __             
                 |  |  |  | |  | |    /  \     |  _  \  |  |  /  |          
                  \  \/   | |  | |   /    \    | | | |  |  | /  /          
                 / \  \   | |__| |  /  /\  \   | |_| |  |  |/  /          
                |  |  |   |  __  | /  /__\  \  |    /   |      \           
                |  |  |   | |  | | |   __   |  |    \   |  |\   \          
                \     /   | |  | | |  |  |  |  | |\  \  |  | \   \       
                 \___/    |_|  |_| |__|  |__|  |_| \__\ |__|  \__/        
                                                                              
                      - O R C A' S   B I G   F R I E N D -                    
                                      &                                       
                       - I N T E G R A L  F E E D E R -                       
                                                                              
 v1 FN, 2020, v2 2021                                                         
------------------------------------------------------------------------------


Reading SHARK input file optpbed3-b2plyp-test-596.SHARKINP.tmp ... ok
----------------------
SHARK INTEGRAL PACKAGE
----------------------

Number of atoms                             ...     32
Number of basis functions                   ...   1269
Number of shells                            ...    497
Maximum angular momentum                    ...      3
Integral batch strategy                     ... SHARK/LIBINT Hybrid
RI-J (if used) integral strategy            ... SPLIT-RIJ (Revised 2003 algorithm where possible)
Printlevel                                  ...      1
Contraction scheme used                     ... PARTIAL GENERAL contraction
Coulomb Range Separation                    ... NOT USED
Exchange Range Separation                   ... NOT USED
Finite Nucleus Model                        ... NOT USED
Auxiliary Coulomb fitting basis             ... AVAILABLE
   # of basis functions in Aux-J            ...   2031
   # of shells in Aux-J                     ...    647
   Maximum angular momentum in Aux-J        ...      4
Auxiliary J/K fitting basis                 ... NOT available
Auxiliary Correlation fitting basis         ... AVAILABLE
   # of basis functions in Aux-C            ...   2597
   # of shells in Aux-C                     ...    707
   Maximum angular momentum in Aux-C        ...      4
Auxiliary 'external' fitting basis          ... NOT available
Integral threshold                          ...     2.500000e-11
Primitive cut-off                           ...     2.500000e-12
Primitive pair pre-selection threshold      ...     2.500000e-12

Calculating pre-screening integrals         ... done (  0.3 sec) Dimension = 497
Calculating pre-screening integrals (ORCA)  ... done (  0.7 sec) Dimension = 362
Organizing shell pair data                  ... done (  2.7 sec)
Shell pair information
Total number of shell pairs                 ...    123753
Shell pairs after pre-screening             ...     78160
Total number of primitive shell pairs       ...    156613
Primitive shell pairs kept                  ...     90342
          la=0 lb=0:  17388 shell pairs
          la=1 lb=0:  19978 shell pairs
          la=1 lb=1:   4917 shell pairs
          la=2 lb=0:  13144 shell pairs
          la=2 lb=1:   6431 shell pairs
          la=2 lb=2:   2194 shell pairs
          la=3 lb=0:   7282 shell pairs
          la=3 lb=1:   3634 shell pairs
          la=3 lb=2:   2460 shell pairs
          la=3 lb=3:    732 shell pairs

Calculating one electron integrals          ... done (  0.3 sec)
Calculating RI/J V-Matrix + Cholesky decomp.... done (  0.4 sec)
Calculating RI/C V-Matrix + Cholesky decomp.... done (  0.7 sec)
Calculating Nuclear repulsion               ... done (  0.0 sec) ENN=   1613.802149315401 Eh

SHARK setup successfully completed in   6.5 seconds

Maximum memory used throughout the entire GTOINT-calculation: 122.2 MB


           ************************************************************
           *        Program running with 4 parallel MPI-processes     *
           *              working on a common directory               *
           ************************************************************
-------------------------------------------------------------------------------
                                 ORCA SCF
-------------------------------------------------------------------------------

------------
SCF SETTINGS
------------
Hamiltonian:
 Density Functional     Method          .... DFT(GTOs)
 Exchange Functional    Exchange        .... PBE
   PBE kappa parameter   XKappa         ....  0.804000
   PBE mue parameter    XMuePBE         ....  0.219520
 Correlation Functional Correlation     .... PBE
   PBE beta parameter  CBetaPBE         ....  0.066725
 LDA part of GGA corr.  LDAOpt          .... PW91-LDA
 Gradients option       PostSCFGGA      .... off
 Hybrid DFT is turned on
   Fraction HF Exchange ScalHFX         ....  0.250000
   Scaling of DF-GGA-X  ScalDFX         ....  0.750000
   Scaling of DF-GGA-C  ScalDFC         ....  1.000000
   Scaling of DF-LDA-C  ScalLDAC        ....  1.000000
   Perturbative correction              ....  0.000000
   Density functional embedding theory  .... OFF
   NL short-range parameter             ....  6.900000
 RI-approximation to the Coulomb term is turned on
   Number of AuxJ basis functions       .... 2031
   RIJ-COSX (HFX calculated with COS-X)).... on


General Settings:
 Integral files         IntName         .... optpbed3-b2plyp-test-596
 Hartree-Fock type      HFTyp           .... RHF
 Total Charge           Charge          ....    0
 Multiplicity           Mult            ....    1
 Number of Electrons    NEL             ....  152
 Basis Dimension        Dim             .... 1124
 Nuclear Repulsion      ENuc            ....   1613.8021493154 Eh

Convergence Acceleration:
 DIIS                   CNVDIIS         .... on
   Start iteration      DIISMaxIt       ....    12
   Startup error        DIISStart       ....  0.200000
   # of expansion vecs  DIISMaxEq       ....     5
   Bias factor          DIISBfac        ....   1.050
   Max. coefficient     DIISMaxC        ....  10.000
 Trust-Rad. Augm. Hess. CNVTRAH         .... auto
   Auto Start mean grad. ratio tolernc. ....  1.125000
   Auto Start start iteration           ....    20
   Auto Start num. interpolation iter.  ....    10
   Max. Number of Micro iterations      ....    16
   Max. Number of Macro iterations      .... Maxiter - #DIIS iter
   Number of Davidson start vectors     ....     2
   Converg. threshold I  (grad. norm)   ....   1.000e-05
   Converg. threshold II (energy diff.) ....   1.000e-08
   Grad. Scal. Fac. for Micro threshold ....   0.100
   Minimum threshold for Micro iter.    ....   0.010
   NR start threshold (gradient norm)   ....   0.001
   Initial trust radius                 ....   0.400
   Minimum AH scaling param. (alpha)    ....   1.000
   Maximum AH scaling param. (alpha)    .... 1000.000
   Orbital update algorithm             .... Taylor
   White noise on init. David. guess    .... on
   Maximum white noise                  ....   0.010
   Quad. conv. algorithm                .... NR
 SOSCF                  CNVSOSCF        .... on
   Start iteration      SOSCFMaxIt      ....   150
   Startup grad/error   SOSCFStart      ....  0.003300
 Level Shifting         CNVShift        .... on
   Level shift para.    LevelShift      ....    0.2500
   Turn off err/grad.   ShiftErr        ....    0.0010
 Zerner damping         CNVZerner       .... off
 Static damping         CNVDamp         .... on
   Fraction old density DampFac         ....    0.7000
   Max. Damping (<1)    DampMax         ....    0.9800
   Min. Damping (>=0)   DampMin         ....    0.0000
   Turn off err/grad.   DampErr         ....    0.1000
 Fernandez-Rico         CNVRico         .... off

SCF Procedure:
 Maximum # iterations   MaxIter         ....   125
 SCF integral mode      SCFMode         .... Direct
   Integral package                     .... SHARK and LIBINT hybrid scheme
 Reset frequency        DirectResetFreq ....    20
 Integral Threshold     Thresh          ....  2.500e-11 Eh
 Primitive CutOff       TCut            ....  2.500e-12 Eh

Convergence Tolerance:
 Convergence Check Mode ConvCheckMode   .... Total+1el-Energy
 Convergence forced     ConvForced      .... 0
 Energy Change          TolE            ....  1.000e-08 Eh
 1-El. energy change                    ....  1.000e-05 Eh
 Orbital Gradient       TolG            ....  1.000e-05
 Orbital Rotation angle TolX            ....  1.000e-05
 DIIS Error             TolErr          ....  5.000e-07


Diagonalization of the overlap matrix:
Smallest eigenvalue                        ... 3.272e-07
Time for diagonalization                   ...    0.364 sec
Threshold for overlap eigenvalues          ... 1.000e-08
Number of eigenvalues below threshold      ... 0
Time for construction of square roots      ...    0.247 sec
Total time needed                          ...    0.619 sec

Time for model grid setup =    1.026 sec

------------------------------
INITIAL GUESS: MODEL POTENTIAL
------------------------------
Loading Hartree-Fock densities                     ... done
Calculating cut-offs                               ... done
Initializing the effective Hamiltonian             ... done
Setting up the integral package (SHARK)            ... done
Starting the Coulomb interaction                   ... done (   3.3 sec)
Reading the grid                                   ... done
Mapping shells                                     ... done
Starting the XC term evaluation                    ... done (   2.9 sec)
  promolecular density results
     # of electrons  =    151.993232640
     EX              =   -138.756894097
     EC              =     -5.243457506
     EX+EC           =   -144.000351603
Transforming the Hamiltonian                       ... done (   0.2 sec)
Diagonalizing the Hamiltonian                      ... done (   0.4 sec)
Back transforming the eigenvectors                 ... done (   0.1 sec)
Now organizing SCF variables                       ... done
                      ------------------
                      INITIAL GUESS DONE (   7.9 sec)
                      ------------------
-------------------
DFT GRID GENERATION
-------------------

General Integration Accuracy     IntAcc      ... 4.388
Radial Grid Type                 RadialGrid  ... OptM3 with GC (2021)
Angular Grid (max. ang.)         AngularGrid ... 4 (Lebedev-302)
Angular grid pruning method      GridPruning ... 4 (adaptive)
Weight generation scheme         WeightScheme... Becke
Basis function cutoff            BFCut       ... 1.0000e-11
Integration weight cutoff        WCut        ... 1.0000e-14
Angular grids for H and He will be reduced by one unit
Partially contracted basis set               ... off
Rotationally invariant grid construction     ... off

Total number of grid points                  ...   167051
Total number of batches                      ...     2624
Average number of points per batch           ...       63
Average number of grid points per atom       ...     5220
Time for grid setup =    3.462 sec

--------------------
COSX GRID GENERATION
--------------------

GRIDX 1
-------
General Integration Accuracy     IntAcc      ... 3.816
Radial Grid Type                 RadialGrid  ... OptM3 with GC (2021)
Angular Grid (max. ang.)         AngularGrid ... 1 (Lebedev-50)
Angular grid pruning method      GridPruning ... 4 (adaptive)
Weight generation scheme         WeightScheme... Becke
Basis function cutoff            BFCut       ... 1.0000e-11
Integration weight cutoff        WCut        ... 1.0000e-14
Angular grids for H and He will be reduced by one unit
Partially contracted basis set               ... on
Rotationally invariant grid construction     ... off

Total number of grid points                  ...    21130
Total number of batches                      ...      348
Average number of points per batch           ...       60
Average number of grid points per atom       ...      660
UseSFitting                                  ... on

GRIDX 2
-------
General Integration Accuracy     IntAcc      ... 4.020
Radial Grid Type                 RadialGrid  ... OptM3 with GC (2021)
Angular Grid (max. ang.)         AngularGrid ... 2 (Lebedev-110)
Angular grid pruning method      GridPruning ... 4 (adaptive)
Weight generation scheme         WeightScheme... Becke
Basis function cutoff            BFCut       ... 1.0000e-11
Integration weight cutoff        WCut        ... 1.0000e-14
Angular grids for H and He will be reduced by one unit
Partially contracted basis set               ... on
Rotationally invariant grid construction     ... off

Total number of grid points                  ...    50836
Total number of batches                      ...      810
Average number of points per batch           ...       62
Average number of grid points per atom       ...     1589
UseSFitting                                  ... on

GRIDX 3
-------
General Integration Accuracy     IntAcc      ... 4.338
Radial Grid Type                 RadialGrid  ... OptM3 with GC (2021)
Angular Grid (max. ang.)         AngularGrid ... 3 (Lebedev-194)
Angular grid pruning method      GridPruning ... 4 (adaptive)
Weight generation scheme         WeightScheme... Becke
Basis function cutoff            BFCut       ... 1.0000e-11
Integration weight cutoff        WCut        ... 1.0000e-14
Angular grids for H and He will be reduced by one unit
Partially contracted basis set               ... on
Rotationally invariant grid construction     ... off

Total number of grid points                  ...   110706
Total number of batches                      ...     1745
Average number of points per batch           ...       63
Average number of grid points per atom       ...     3460
UseSFitting                                  ... on

Time for X-Grid setup             =    8.828 sec


--------------------
CPCM SOLVATION MODEL
--------------------
CPCM parameters:
  Epsilon                                         ...      35.6880
  Refrac                                          ...       1.3442
  Rsolv                                           ...       1.3000
  Surface type                                    ... GAUSSIAN VDW
  Epsilon function type                           ...         CPCM
Solvent:                                     ... ACETONITRILE
SMD-CDS solvent descriptors:
  Soln                                       ...    1.3442
  Soln25                                     ...    1.3416
  Sola                                       ...    0.0700
  Solb                                       ...    0.3200
  Solg                                       ...   41.2500
  Solc                                       ...    0.0000
  Solh                                       ...    0.0000
Radii:
 Radius for C  used is    3.4960 Bohr (=   1.8500 Ang.)
 Radius for N  used is    3.5716 Bohr (=   1.8900 Ang.)
 Radius for Cl used is    4.4975 Bohr (=   2.3800 Ang.)
 Radius for H  used is    2.2677 Bohr (=   1.2000 Ang.)
Calculating surface                               ...        done! (  0.0s)
GEPOL surface points                              ...         1764
GEPOL Volume                                      ...    2026.1803
GEPOL Surface-area                                ...    1089.0951
Calculating surface distance matrix               ...        done! (  0.1s)
Performing Cholesky decomposition & store         ...        done! (  0.2s)
Overall time for CPCM initialization              ...                 0.3s
 re-compute Schwartz prescreening matrix in partically contracted basis (1) ...done (   0.275 sec)
--------------
SCF ITERATIONS
--------------
ITER       Energy         Delta-E        Max-DP      RMS-DP      [F,P]     Damp
               ***  Starting incremental Fock matrix formation  ***
  0  -1294.3842377895   0.000000000000 0.26912698  0.00150467  0.1775922 0.7000
  1  -1294.5332088446  -0.148971055029 0.22668950  0.00114180  0.0931788 0.7000
                               ***Turning on DIIS***
  2  -1294.6034390776  -0.070230233051 0.55006640  0.00250626  0.0401149 0.0000
  3  -1294.7098283253  -0.106389247628 0.09021670  0.00054040  0.0382914 0.0000
  4  -1294.7314905947  -0.021662269470 0.03306673  0.00018375  0.0080342 0.0000
  5  -1294.7324092543  -0.000918659611 0.01409321  0.00007649  0.0034312 0.0000
                      *** Initiating the SOSCF procedure ***
                           *** Shutting down DIIS ***
                      *** Re-Reading the Fockian *** 
                      *** Removing any level shift *** 
ITER      Energy       Delta-E        Grad      Rot      Max-DP    RMS-DP
  6  -1294.73249831  -0.0000890507  0.000447  0.000447  0.026869  0.000091
               *** Restarting incremental Fock matrix formation ***
  7  -1294.73249608   0.0000022281  0.000157  0.000952  0.097955  0.000730
  8  -1294.73249330   0.0000027725  0.000359  0.000855  0.022625  0.000090
  9  -1294.73250125  -0.0000079409  0.000025  0.000071  0.026614  0.000142
 10  -1294.73250116   0.0000000895  0.000051  0.000174  0.032800  0.000089
 11  -1294.73250129  -0.0000001381  0.000009  0.000025  0.122138  0.000281
 12  -1294.73250125   0.0000000436  0.000011  0.000031  0.136549  0.000293
 13  -1294.73250124   0.0000000121  0.000003  0.000019  0.257451  0.000591
 14  -1294.73250121   0.0000000300  0.000005  0.000014  0.049591  0.000140
 15  -1294.73250123  -0.0000000203  0.000003  0.000056  0.449469  0.000908
 16  -1294.73250126  -0.0000000316  0.000008  0.000043  0.304543  0.000649
                  ***Gradient check signals convergence***
              ***Rediagonalizing the Fockian in SOSCF/NRSCF***

               *****************************************************
               *                     SUCCESS                       *
               *           SCF CONVERGED AFTER  17 CYCLES          *
               *****************************************************

Old exchange energy                            =    -35.236183363 Eh
New exchange energy                            =    -35.236228142 Eh
Exchange energy change after final integration =     -0.000044778 Eh
Total energy after final integration           =  -1294.732546022 Eh
Final COS-X integration done in                =   162.719 sec

SMD CDS free energy correction energy :                -4.57468     Kcal/mol
Total Energy after SMD CDS correction =             -1294.739836237 Eh

----------------
TOTAL SCF ENERGY
----------------

Total Energy       :        -1294.73983624 Eh          -35231.66209 eV

Components:
Nuclear Repulsion  :         1613.80214932 Eh           43913.78902 eV
Electronic Energy  :        -2908.54198555 Eh          -79145.45110 eV
One Electron Energy:        -4972.26062049 Eh         -135302.09011 eV
Two Electron Energy:         2063.71863493 Eh           56156.63900 eV
Max COSX asymmetry :            0.00003844 Eh               0.00105 eV
CPCM Dielectric    :           -0.01684829 Eh              -0.45847 eV
SMD CDS (Gcds)     :           -0.00729022 Eh              -0.19838 eV

Virial components:
Potential Energy   :        -2583.76834316 Eh          -70307.91100 eV
Kinetic Energy     :         1289.02850692 Eh           35076.24892 eV
Virial Ratio       :            2.00443072


DFT components:
N(Alpha)           :       76.000041163823 electrons
N(Beta)            :       76.000041163823 electrons
N(Total)           :      152.000082327647 electrons
E(X)               :     -105.419101312708 Eh       
E(C)               :       -5.240898945352 Eh       
E(XC)              :     -110.660000258060 Eh       
DFET-embed. en.    :        0.000000000000 Eh       
CPCM Solvation Model Properties:
Surface-charge          :           -0.05014760
Charge-correction       :            0.00017691 Eh               0.00481 eV
Free-energy (cav+disp)  :           -0.00729022 Eh              -0.19838 eV

---------------
SCF CONVERGENCE
---------------

  Last Energy change         ...    1.6153e-08  Tolerance :   1.0000e-08
  Last MAX-Density change    ...    4.8850e-15  Tolerance :   1.0000e-07
  Last RMS-Density change    ...    1.9099e-17  Tolerance :   5.0000e-09
  Last Orbital Gradient      ...    1.8867e-06  Tolerance :   1.0000e-05
  Last Orbital Rotation      ...    8.0026e-06  Tolerance :   1.0000e-05

             **** THE GBW FILE WAS UPDATED (optpbed3-b2plyp-test-596.gbw) ****
             **** DENSITY optpbed3-b2plyp-test-596.scfp WAS UPDATED ****
             **** ENERGY FILE WAS UPDATED (optpbed3-b2plyp-test-596.en.tmp) ****
             **** THE GBW FILE WAS UPDATED (optpbed3-b2plyp-test-596.gbw) ****
             **** DENSITY optpbed3-b2plyp-test-596.scfp WAS UPDATED ****
----------------
ORBITAL ENERGIES
----------------

  NO   OCC          E(Eh)            E(eV) 
   0   2.0000    -101.749199     -2768.7365 
   1   2.0000     -14.475365      -393.8947 
   2   2.0000     -14.433265      -392.7491 
   3   2.0000     -14.416254      -392.2862 
   4   2.0000     -14.412860      -392.1938 
   5   2.0000     -10.309254      -280.5291 
   6   2.0000     -10.302593      -280.3478 
   7   2.0000     -10.286998      -279.9234 
   8   2.0000     -10.284846      -279.8649 
   9   2.0000     -10.282693      -279.8063 
  10   2.0000     -10.274151      -279.5739 
  11   2.0000     -10.255842      -279.0757 
  12   2.0000     -10.249748      -278.9098 
  13   2.0000     -10.245885      -278.8047 
  14   2.0000     -10.245594      -278.7968 
  15   2.0000     -10.243062      -278.7279 
  16   2.0000     -10.229024      -278.3459 
  17   2.0000     -10.228338      -278.3272 
  18   2.0000     -10.228064      -278.3198 
  19   2.0000     -10.227618      -278.3076 
  20   2.0000     -10.227188      -278.2959 
  21   2.0000      -9.551487      -259.9092 
  22   2.0000      -7.286704      -198.2813 
  23   2.0000      -7.278495      -198.0579 
  24   2.0000      -7.277967      -198.0435 
  25   2.0000      -1.110703       -30.2238 
  26   2.0000      -1.023045       -27.8385 
  27   2.0000      -0.966762       -26.3069 
  28   2.0000      -0.929179       -25.2842 
  29   2.0000      -0.906149       -24.6576 
  30   2.0000      -0.879398       -23.9296 
  31   2.0000      -0.868130       -23.6230 
  32   2.0000      -0.806223       -21.9384 
  33   2.0000      -0.792063       -21.5531 
  34   2.0000      -0.787320       -21.4241 
  35   2.0000      -0.774917       -21.0866 
  36   2.0000      -0.732112       -19.9218 
  37   2.0000      -0.717628       -19.5277 
  38   2.0000      -0.678192       -18.4545 
  39   2.0000      -0.648050       -17.6343 
  40   2.0000      -0.636229       -17.3127 
  41   2.0000      -0.627677       -17.0800 
  42   2.0000      -0.597424       -16.2567 
  43   2.0000      -0.586009       -15.9461 
  44   2.0000      -0.572122       -15.5682 
  45   2.0000      -0.538892       -14.6640 
  46   2.0000      -0.519607       -14.1392 
  47   2.0000      -0.519351       -14.1322 
  48   2.0000      -0.509257       -13.8576 
  49   2.0000      -0.488216       -13.2850 
  50   2.0000      -0.486355       -13.2344 
  51   2.0000      -0.474147       -12.9022 
  52   2.0000      -0.460977       -12.5438 
  53   2.0000      -0.460385       -12.5277 
  54   2.0000      -0.457121       -12.4389 
  55   2.0000      -0.440934       -11.9984 
  56   2.0000      -0.434821       -11.8321 
  57   2.0000      -0.426042       -11.5932 
  58   2.0000      -0.418250       -11.3812 
  59   2.0000      -0.408440       -11.1142 
  60   2.0000      -0.407206       -11.0806 
  61   2.0000      -0.396345       -10.7851 
  62   2.0000      -0.387905       -10.5554 
  63   2.0000      -0.381271       -10.3749 
  64   2.0000      -0.367478        -9.9996 
  65   2.0000      -0.358582        -9.7575 
  66   2.0000      -0.346594        -9.4313 
  67   2.0000      -0.339757        -9.2452 
  68   2.0000      -0.337906        -9.1949 
  69   2.0000      -0.330460        -8.9923 
  70   2.0000      -0.307649        -8.3716 
  71   2.0000      -0.276967        -7.5366 
  72   2.0000      -0.275928        -7.5084 
  73   2.0000      -0.272005        -7.4016 
  74   2.0000      -0.263448        -7.1688 
  75   2.0000      -0.229041        -6.2325 
  76   0.0000      -0.098617        -2.6835 
  77   0.0000      -0.033487        -0.9112 
  78   0.0000      -0.023742        -0.6460 
  79   0.0000      -0.011849        -0.3224 
  80   0.0000      -0.005865        -0.1596 
  81   0.0000       0.005705         0.1552 
  82   0.0000       0.012061         0.3282 
  83   0.0000       0.013918         0.3787 
  84   0.0000       0.018419         0.5012 
  85   0.0000       0.025183         0.6853 
  86   0.0000       0.031368         0.8536 
  87   0.0000       0.032257         0.8778 
  88   0.0000       0.033465         0.9106 
  89   0.0000       0.042749         1.1633 
  90   0.0000       0.043544         1.1849 
  91   0.0000       0.048073         1.3081 
  92   0.0000       0.048245         1.3128 
  93   0.0000       0.052239         1.4215 
  94   0.0000       0.058383         1.5887 
  95   0.0000       0.058930         1.6036 
  96   0.0000       0.063147         1.7183 
  97   0.0000       0.067560         1.8384 
  98   0.0000       0.068392         1.8611 
  99   0.0000       0.073295         1.9945 
 100   0.0000       0.081003         2.2042 
 101   0.0000       0.081351         2.2137 
 102   0.0000       0.086516         2.3542 
 103   0.0000       0.090311         2.4575 
 104   0.0000       0.091266         2.4835 
 105   0.0000       0.091829         2.4988 
 106   0.0000       0.098958         2.6928 
 107   0.0000       0.100314         2.7297 
 108   0.0000       0.106348         2.8939 
 109   0.0000       0.108992         2.9658 
 110   0.0000       0.109411         2.9772 
 111   0.0000       0.116356         3.1662 
 112   0.0000       0.119995         3.2652 
 113   0.0000       0.123093         3.3495 
 114   0.0000       0.126518         3.4427 
 115   0.0000       0.127488         3.4691 
 116   0.0000       0.129147         3.5143 
 117   0.0000       0.131535         3.5793 
 118   0.0000       0.131866         3.5883 
 119   0.0000       0.134483         3.6595 
 120   0.0000       0.134601         3.6627 
 121   0.0000       0.134841         3.6692 
 122   0.0000       0.143359         3.9010 
 123   0.0000       0.143790         3.9127 
 124   0.0000       0.145411         3.9568 
 125   0.0000       0.148923         4.0524 
 126   0.0000       0.150108         4.0846 
 127   0.0000       0.151562         4.1242 
 128   0.0000       0.152807         4.1581 
 129   0.0000       0.154734         4.2105 
[...]
   (ab|v) reading and digestion   ...   632.55 sec
   Final sigma-completion         ...     0.03 sec
   Done building sigma-vectors             Size of expansion space: 70
   Lowest Energy          :     0.123306378869
   Maximum Energy change  :     0.000921157448 (vector 9)
   Maximum residual norm  :     0.000078648866
   Rebuilding the expansion space

                       ****Iteration    5****
              <<< Entering MO-section for Build Sigma(Double) >>>
   Forming the XC and CPCM contribution:
   Time for densities:            0.711
   Time for XC-Integration:      63.159
   Time for LR-CPCM terms:       20.756
   Time for Sigma-Completion:     0.668
   Time for building 20 sigma-vectors
   Data Preparation Phase         ...     0.02 sec
   Transformed RI Coulomb         ...     2.07 sec
   Transformed RI-exchange        ...  1401.85 sec
   (ab|v) reading and digestion   ...  1347.22 sec
   Final sigma-completion         ...     0.05 sec
   Done building sigma-vectors             Size of expansion space: 20
   Lowest Energy          :     0.123306183776
   Maximum Energy change  :     0.000126081572 (vector 9)
   Maximum residual norm  :     0.000019872739

                       ****Iteration    6****
              <<< Entering MO-section for Build Sigma(Double) >>>
   Forming the XC and CPCM contribution:
   Time for densities:            0.363
   Time for XC-Integration:      32.777
   Time for LR-CPCM terms:       13.372
   Time for Sigma-Completion:     0.336
   Time for building 10 sigma-vectors
   Data Preparation Phase         ...     0.01 sec
   Transformed RI Coulomb         ...     1.22 sec
   Transformed RI-exchange        ...   696.11 sec
   (ab|v) reading and digestion   ...   667.99 sec
   Final sigma-completion         ...     0.03 sec
   Done building sigma-vectors             Size of expansion space: 30
   Lowest Energy          :     0.123306160512
   Maximum Energy change  :     0.000044517421 (vector 9)
   Maximum residual norm  :     0.000005526907

                       ****Iteration    7****
              <<< Entering MO-section for Build Sigma(Double) >>>
   Forming the XC and CPCM contribution:
   Time for densities:            0.364
   Time for XC-Integration:      28.218
   Time for LR-CPCM terms:       12.412
   Time for Sigma-Completion:     0.281
   Time for building 10 sigma-vectors
   Data Preparation Phase         ...     0.01 sec
   Transformed RI Coulomb         ...     1.24 sec
   Transformed RI-exchange        ...   729.26 sec
   (ab|v) reading and digestion   ...   701.46 sec
   Final sigma-completion         ...     0.02 sec
   Done building sigma-vectors             Size of expansion space: 40
   Lowest Energy          :     0.123306158633
   Maximum Energy change  :     0.000013225036 (vector 9)
   Maximum residual norm  :     0.000001876541

                       ****Iteration    8****
              <<< Entering MO-section for Build Sigma(Double) >>>
   Forming the XC and CPCM contribution:
   Time for densities:            0.312
   Time for XC-Integration:      26.130
   Time for LR-CPCM terms:       12.592
   Time for Sigma-Completion:     0.269
   Time for building 10 sigma-vectors
   Data Preparation Phase         ...     0.01 sec
   Transformed RI Coulomb         ...     0.85 sec
   Transformed RI-exchange        ...   548.43 sec
   (ab|v) reading and digestion   ...   527.94 sec
   Final sigma-completion         ...     0.02 sec
   Done building sigma-vectors             Size of expansion space: 50
   Lowest Energy          :     0.123306158507
   Maximum Energy change  :     0.000003947997 (vector 9)
   Maximum residual norm  :     0.000000576056

      *** CONVERGENCE OF RESIDUAL NORM REACHED ***

Storing the converged CI vectors               ... optpbed3-b2plyp-test-596_job2.cis1

                 *** DAVIDSON DONE ***

Total time for solving the CIS problem:  6258.993sec

------------------
DOUBLES CORRECTION (Double precision version)
------------------

The (D) correction will be scaled by  0.2700
Doing v(i,a)*T(i,a) terms (RI)                    ... ok
Doing u(i,j,a,b) terms for state   0              ... ok
Doing u(i,j,a,b) terms for state   1              ... ok
Doing u(i,j,a,b) terms for state   2              ... ok
Doing u(i,j,a,b) terms for state   3              ... ok
Doing u(i,j,a,b) terms for state   4              ... ok
Doing u(i,j,a,b) terms for state   5              ... ok
Doing u(i,j,a,b) terms for state   6              ... ok
Doing u(i,j,a,b) terms for state   7              ... ok
Doing u(i,j,a,b) terms for state   8              ... ok
Doing u(i,j,a,b) terms for state   9              ... ok

Contributions to the (D) correction(s) (in eV)

STATE  Final   Init.   Total   v(ext)   v(int)  v(3)    u
       omega   omega     (D)                             
-----------------------------------------------------------------------------
   0   2.902   3.355  -0.453   0.819   1.060  -0.064  -2.269
   1   3.516   4.079  -0.564   0.843   0.801  -0.030  -2.177
   2   3.937   4.302  -0.365   0.785   1.063  -0.073  -2.140
   3   4.064   4.499  -0.435   0.810   0.948  -0.045  -2.148
   4   4.334   4.940  -0.606   0.754   0.896  -0.017  -2.240
   5   4.696   5.178  -0.482   0.551   1.042  -0.040  -2.035
   6   4.887   5.473  -0.586   0.555   0.980  -0.035  -2.086
   7   5.392   5.652  -0.260   0.043   1.062  -0.001  -1.363
   8   5.005   5.704  -0.698   0.772   0.899  -0.029  -2.339
   9   5.224   5.779  -0.555   0.507   1.030  -0.058  -2.034

(D)-timings
 V(i,a)*T(i,a) terms           ...  1070.166 sec
 U(i,j,a,b) 3-internal         ...    14.033 sec
 U(i,j,a,b) 3-external         ...   374.271 sec
 U(i,j,a,b) pair terms         ...   500.207 sec
 Total measured time           ...  4481.472 sec

 Time for (ab|v) I/O           ...   105.966 sec


------------------------------------
TD-DFT/TDA EXCITED STATES (SINGLETS)
------------------------------------

the weight of the individual excitations are printed if larger than 1.0e-02

STATE  1:  E=   0.106655 au      2.902 eV    23408.0 cm**-1 <S**2> =   0.000000
    70a ->  76a  :     0.011289 (c= -0.10624830)
    75a ->  76a  :     0.941722 (c=  0.97042384)

STATE  2:  E=   0.129194 au      3.516 eV    28354.9 cm**-1 <S**2> =   0.000000
    71a ->  76a  :     0.914998 (c= -0.95655531)
    71a ->  82a  :     0.016142 (c= -0.12705288)
    71a ->  85a  :     0.014018 (c= -0.11839709)

STATE  3:  E=   0.144678 au      3.937 eV    31753.1 cm**-1 <S**2> =   0.000000
    72a ->  76a  :     0.049120 (c=  0.22162993)
    73a ->  76a  :     0.044048 (c= -0.20987662)
    73a ->  79a  :     0.012551 (c= -0.11203272)
    74a ->  76a  :     0.738031 (c= -0.85908717)
    74a ->  77a  :     0.010905 (c= -0.10442535)
    75a ->  79a  :     0.060947 (c=  0.24687535)
    75a ->  85a  :     0.016718 (c=  0.12929809)

STATE  4:  E=   0.149351 au      4.064 eV    32778.8 cm**-1 <S**2> =   0.000000
    70a ->  76a  :     0.025664 (c=  0.16020132)
    72a ->  76a  :     0.207033 (c=  0.45500878)
    73a ->  76a  :     0.595329 (c= -0.77157560)
    74a ->  76a  :     0.104472 (c=  0.32322139)
    74a ->  79a  :     0.010739 (c=  0.10363145)
    75a ->  77a  :     0.011829 (c=  0.10876141)
    75a ->  79a  :     0.010758 (c=  0.10372112)

STATE  5:  E=   0.159278 au      4.334 eV    34957.4 cm**-1 <S**2> =   0.000000
    72a ->  76a  :     0.547306 (c=  0.73980108)
    72a ->  77a  :     0.057057 (c= -0.23886616)
    73a ->  76a  :     0.216164 (c=  0.46493478)
    73a ->  77a  :     0.036616 (c= -0.19135197)
    75a ->  82a  :     0.033979 (c= -0.18433347)
    75a ->  85a  :     0.034778 (c=  0.18648891)

STATE  6:  E=   0.172593 au      4.696 eV    37879.7 cm**-1 <S**2> =   0.000000
    70a ->  76a  :     0.015991 (c=  0.12645501)
    73a ->  77a  :     0.016950 (c= -0.13019349)
    73a ->  85a  :     0.011584 (c= -0.10762676)
    74a ->  76a  :     0.011768 (c=  0.10848253)
    74a ->  77a  :     0.023171 (c=  0.15222031)
    75a ->  77a  :     0.803063 (c= -0.89613783)
    75a ->  79a  :     0.021363 (c=  0.14616096)
    75a ->  82a  :     0.021625 (c= -0.14705564)

STATE  7:  E=   0.179592 au      4.887 eV    39415.8 cm**-1 <S**2> =   0.000000
    70a ->  76a  :     0.020959 (c= -0.14477147)
    72a ->  76a  :     0.071864 (c=  0.26807457)
    72a ->  77a  :     0.061113 (c=  0.24721040)
    72a ->  85a  :     0.022007 (c=  0.14834906)
    73a ->  76a  :     0.081072 (c=  0.28473060)
    73a ->  77a  :     0.059077 (c=  0.24305711)
    73a ->  82a  :     0.021232 (c=  0.14571057)
    74a ->  76a  :     0.027825 (c=  0.16680790)
    74a ->  82a  :     0.015712 (c= -0.12534572)
    74a ->  85a  :     0.033087 (c=  0.18189963)
    75a ->  79a  :     0.289029 (c=  0.53761384)
    75a ->  82a  :     0.202579 (c=  0.45008797)
    75a ->  85a  :     0.046153 (c= -0.21483327)

STATE  8:  E=   0.198160 au      5.392 eV    43491.2 cm**-1 <S**2> =   0.000000
    74a ->  80a  :     0.017008 (c=  0.13041642)
    75a ->  78a  :     0.677439 (c= -0.82306710)
    75a ->  80a  :     0.028930 (c= -0.17008918)
    75a ->  81a  :     0.040845 (c= -0.20210129)
    75a ->  83a  :     0.042981 (c=  0.20731765)
    75a ->  86a  :     0.102466 (c=  0.32010289)
    75a ->  88a  :     0.023760 (c= -0.15414210)
    75a ->  89a  :     0.011284 (c=  0.10622748)

STATE  9:  E=   0.183948 au      5.005 eV    40371.9 cm**-1 <S**2> =   0.000000
    70a ->  76a  :     0.756013 (c= -0.86948985)
    72a ->  77a  :     0.010528 (c= -0.10260506)
    73a ->  76a  :     0.022734 (c= -0.15077785)
    74a ->  76a  :     0.018890 (c=  0.13744099)
    74a ->  77a  :     0.035530 (c= -0.18849453)
    75a ->  76a  :     0.012686 (c= -0.11263288)
    75a ->  77a  :     0.026641 (c= -0.16321988)
    75a ->  79a  :     0.014962 (c= -0.12231983)
    75a ->  85a  :     0.025497 (c=  0.15967852)

STATE 10:  E=   0.191962 au      5.224 eV    42130.9 cm**-1 <S**2> =   0.000000
    72a ->  76a  :     0.062172 (c= -0.24934392)
    72a ->  77a  :     0.020561 (c= -0.14339113)
    72a ->  82a  :     0.014167 (c= -0.11902616)
    73a ->  77a  :     0.046446 (c= -0.21551293)
    73a ->  79a  :     0.010908 (c= -0.10444051)
    74a ->  76a  :     0.015148 (c=  0.12307747)
    74a ->  79a  :     0.050601 (c=  0.22494601)
    75a ->  77a  :     0.041351 (c=  0.20334925)
    75a ->  79a  :     0.443117 (c=  0.66567010)
    75a ->  82a  :     0.194968 (c= -0.44155223)


-----------------------------
TD-DFT/TDA-EXCITATION SPECTRA
-----------------------------

Center of mass = (  1.2140,  0.7496,  0.2413)
Calculating the Dipole integrals                  ... done
Transforming integrals                            ... done
Calculating the Linear Momentum integrals         ... done
Transforming integrals                            ... done
Calculating angular momentum integrals            ... done
Transforming integrals                            ... done

-----------------------------------------------------------------------------
         ABSORPTION SPECTRUM VIA TRANSITION ELECTRIC DIPOLE MOMENTS
-----------------------------------------------------------------------------
State   Energy    Wavelength  fosc         T2        TX        TY        TZ  
        (cm-1)      (nm)                 (au**2)    (au)      (au)      (au) 
-----------------------------------------------------------------------------
   1   23408.0    427.2   0.230506829   3.24187  -1.61717   0.78748   0.08057
   2   28354.9    352.7   0.002249803   0.02612   0.00159  -0.00163  -0.16160
   3   31753.1    314.9   0.355678884   3.68763   1.64179   0.99336  -0.07352
   4   32778.8    305.1   0.071131406   0.71440   0.76326   0.36108  -0.03816
   5   34957.4    286.1   0.035367854   0.33308   0.45617   0.35292  -0.02079
   6   37879.7    264.0   0.643371976   5.59153  -2.32442   0.41940   0.11271
   7   39415.8    253.7   0.157936646   1.31913  -1.03636  -0.49236   0.05167
   8   43491.2    229.9   0.002532608   0.01917   0.03189   0.03654  -0.12969
   9   40371.9    247.7   0.005722693   0.04667   0.21001  -0.04910  -0.01235
  10   42130.9    237.4   0.780506214   6.09890  -1.90894  -1.56443   0.08594

-----------------------------------------------------------------------------
         ABSORPTION SPECTRUM VIA TRANSITION VELOCITY DIPOLE MOMENTS
-----------------------------------------------------------------------------
State   Energy    Wavelength   fosc        P2         PX        PY        PZ  
        (cm-1)      (nm)                 (au**2)     (au)      (au)      (au) 
-----------------------------------------------------------------------------
   1   23408.0    427.2   0.078736999   0.01260   0.07094   0.08691  -0.00319
   2   28354.9    352.7   0.006608688   0.00128  -0.00186  -0.00055  -0.03573
   3   31753.1    314.9   0.067349215   0.01462  -0.10376  -0.06185   0.00501
   4   32778.8    305.1   0.089580670   0.02007  -0.13657   0.03709   0.00636
   5   34957.4    286.1   0.008736175   0.00209  -0.04455  -0.00992   0.00205
   6   37879.7    264.0   0.450680071   0.11668   0.33676  -0.05484  -0.01609
   7   39415.8    253.7   0.113482782   0.03057   0.15400   0.08240  -0.00801
   8   43491.2    229.9   0.001761084   0.00052  -0.00386  -0.00412   0.02217
   9   40371.9    247.7   0.008104590   0.00224  -0.04555   0.01255   0.00199
  10   42130.9    237.4   0.339036594   0.09762   0.25517   0.17984  -0.01297

-------------------------------------------------------------------
                             CD SPECTRUM
-------------------------------------------------------------------
State  Energy     Wavelength     R         MX        MY        MZ   
       (cm-1)       (nm)     (1e40*cgs)   (au)      (au)      (au)  
-------------------------------------------------------------------
   1   23408.0    427.2      0.06826  -0.00691   0.00078  -0.14458
   2   28354.9    352.7     -0.28542  -0.08216  -0.07041   0.00365
   3   31753.1    314.9      1.87351   0.00996   0.00202   0.19571
   4   32778.8    305.1     -0.39272   0.00849  -0.00004   0.19121
   5   34957.4    286.1      0.06123  -0.00085   0.00047  -0.01680
   6   37879.7    264.0     -1.77725  -0.03263   0.00140  -0.71153
   7   39415.8    253.7     -0.43352  -0.03199   0.00347  -0.62631
   8   43491.2    229.9     -0.91153   0.11508  -0.16284  -0.00268
   9   40371.9    247.7      0.55077   0.00712   0.00105   0.02227
  10   42130.9    237.4      8.50341  -0.01418  -0.00758  -0.24306

-------------------------------------------------------------------
         CD SPECTRUM VIA TRANSITION VELOCITY DIPOLE MOMENTS        
-------------------------------------------------------------------
State  Energy     Wavelength     R         MX        MY        MZ   
       (cm-1)       (nm)     (1e40*cgs)   (au)      (au)      (au)  
-------------------------------------------------------------------
   1   23408.0    427.2      0.16839  -0.00691   0.00078  -0.14458
   2   28354.9    352.7      0.22381  -0.08216  -0.07041   0.00365
   3   31753.1    314.9     -0.58115   0.00996   0.00202   0.19571
   4   32778.8    305.1      0.17279   0.00849  -0.00004   0.19121
   5   34957.4    286.1     -0.00405  -0.00085   0.00047  -0.01680
   6   37879.7    264.0      1.05785  -0.03263   0.00140  -0.71153
   7   39415.8    253.7      0.99581  -0.03199   0.00347  -0.62631
   8   43491.2    229.9      0.39788   0.11508  -0.16284  -0.00268
   9   40371.9    247.7     -0.68370   0.00712   0.00105   0.02227
  10   42130.9    237.4     -4.49366  -0.01418  -0.00758  -0.24306

Total run time:    10749.579 sec

           *** ORCA-CIS/TD-DFT FINISHED WITHOUT ERROR ***

Maximum memory used throughout the entire CIS-calculation: 1459.3 MB

-----------------------
CIS/TD-DFT TOTAL ENERGY
-----------------------

    E(SCF)  =  -1293.893713767 Eh
    DE(CIS) =      0.106654710 Eh (Root  1)
    ----------------------------- ---------
    E(tot)  =  -1293.787059057 Eh



-------------------------------------------------------------------------------
                          DFT DISPERSION CORRECTION                            
                                                                               
                              DFTD3 V3.1  Rev 1                                
                          USING Becke-Johnson damping                          
-------------------------------------------------------------------------------
The B2PLYP functional is recognized
Active option DFTDOPT                   ...         4   

molecular C6(AA) [au] = 15403.469739 


            DFT-D V3
 parameters
 s6 scaling factor         :     0.6400 
 a1 scaling factor         :     0.3065 
 s8 scaling factor         :     0.9147 
 a2 scaling factor         :     5.0570 
 ad hoc parameters k1-k3   :    16.0000     1.3333    -4.0000 

 Edisp/kcal,au: -22.439508495984  -0.035759629185 
 E6   /kcal   : -12.414402886 
 E8   /kcal   : -10.025105610 
 % E8         :  44.676137234 

-------------------------   ----------------
Dispersion correction           -0.035759629
-------------------------   ----------------


-------------------------   --------------------
FINAL SINGLE POINT ENERGY     -1293.822818686121
-------------------------   --------------------


                            ***************************************
                            *     ORCA property calculations      *
                            ***************************************


  WARNING: The energy has been calculated at the MP2 level but the densities
           used in the property calculations are still SCF densities
           MP2 response densities have not been calculated 
           use %mp2 Density relaxed end
           or  %mp2 Density unrelaxed end

                                    ---------------------
                                    Active property flags
                                    ---------------------
   (+) Dipole Moment


------------------------------------------------------------------------------
                       ORCA ELECTRIC PROPERTIES CALCULATION
------------------------------------------------------------------------------

Dipole Moment Calculation                       ... on
Quadrupole Moment Calculation                   ... off
Polarizability Calculation                      ... off
GBWName                                         ... optpbed3-b2plyp-test-596_job2.gbw
Electron density                                ... optpbed3-b2plyp-test-596_job2.scfp
The origin for moment calculation is the CENTER OF MASS  = ( 1.214044,  0.749560  0.241348)

-------------
DIPOLE MOMENT
-------------
                                X             Y             Z
Electronic contribution:     18.50044      10.96216      -0.88275
Nuclear contribution   :    -18.32346     -12.01375       0.87076
                        -----------------------------------------
Total Dipole Moment    :      0.17698      -1.05159      -0.01199
                        -----------------------------------------
Magnitude (a.u.)       :      1.06644
Magnitude (Debye)      :      2.71069



--------------------
Rotational spectrum 
--------------------
 
Rotational constants in cm-1:     0.016391     0.005314     0.004016 
Rotational constants in MHz :   491.389738   159.312993   120.400326 

 Dipole components along the rotational axes: 
x,y,z [a.u.] :    -0.097262     1.062000    -0.000433 
x,y,z [Debye]:    -0.247220     2.699390    -0.001099 

 

Timings for individual modules:

Sum of individual times         ...    13253.222 sec (= 220.887 min)
GTO integral calculation        ...        6.125 sec (=   0.102 min)   0.0 %
SCF iterations                  ...     1213.866 sec (=  20.231 min)   9.2 %
MP2 module                      ...     1281.090 sec (=  21.352 min)   9.7 %
CIS module                      ...    10752.139 sec (= 179.202 min)  81.1 %



                             ****ORCA TERMINATED NORMALLY****
TOTAL RUN TIME: 0 days 6 hours 19 minutes 56 seconds 607 msec
