
                                 *****************
                                 * O   R   C   A *
                                 *****************

                                            #,                                       
                                            ###                                      
                                            ####                                     
                                            #####                                    
                                            ######                                   
                                           ########,                                 
                                     ,,################,,,,,                         
                               ,,#################################,,                 
                          ,,##########################################,,             
                       ,#########################################, ''#####,          
                    ,#############################################,,   '####,        
                  ,##################################################,,,,####,       
                ,###########''''           ''''###############################       
              ,#####''   ,,,,##########,,,,          '''####'''          '####       
            ,##' ,,,,###########################,,,                        '##       
           ' ,,###''''                  '''############,,,                           
         ,,##''                                '''############,,,,        ,,,,,,###''
      ,#''                                            '''#######################'''  
     '                                                          ''''####''''         
             ,#######,   #######,   ,#######,      ##                                
            ,#'     '#,  ##    ##  ,#'     '#,    #''#        ######   ,####,        
            ##       ##  ##   ,#'  ##            #'  '#       #        #'  '#        
            ##       ##  #######   ##           ,######,      #####,   #    #        
            '#,     ,#'  ##    ##  '#,     ,#' ,#      #,         ##   #,  ,#        
             '#######'   ##     ##  '#######'  #'      '#     #####' # '####'        



                  #######################################################
                  #                        -***-                        #
                  #          Department of theory and spectroscopy      #
                  #    Directorship and core code : Frank Neese         #
                  #        Max Planck Institute fuer Kohlenforschung    #
                  #                Kaiser Wilhelm Platz 1               #
                  #                 D-45470 Muelheim/Ruhr               #
                  #                      Germany                        #
                  #                                                     #
                  #                  All rights reserved                #
                  #                        -***-                        #
                  #######################################################


                         Program Version 5.0.2 -  RELEASE  -


 With contributions from (in alphabetic order):
   Daniel Aravena         : Magnetic Suceptibility
   Michael Atanasov       : Ab Initio Ligand Field Theory (pilot matlab implementation)
   Alexander A. Auer      : GIAO ZORA, VPT2 properties, NMR spectrum
   Ute Becker             : Parallelization
   Giovanni Bistoni       : ED, misc. LED, open-shell LED, HFLD
   Martin Brehm           : Molecular dynamics
   Dmytro Bykov           : SCF Hessian
   Vijay G. Chilkuri      : MRCI spin determinant printing, contributions to CSF-ICE
   Dipayan Datta          : RHF DLPNO-CCSD density
   Achintya Kumar Dutta   : EOM-CC, STEOM-CC
   Dmitry Ganyushin       : Spin-Orbit,Spin-Spin,Magnetic field MRCI
   Miquel Garcia          : C-PCM and meta-GGA Hessian, CC/C-PCM, Gaussian charge scheme
   Yang Guo               : DLPNO-NEVPT2, F12-NEVPT2, CIM, IAO-localization
   Andreas Hansen         : Spin unrestricted coupled pair/coupled cluster methods
   Benjamin Helmich-Paris : MC-RPA, TRAH-SCF, COSX integrals
   Lee Huntington         : MR-EOM, pCC
   Robert Izsak           : Overlap fitted RIJCOSX, COSX-SCS-MP3, EOM
   Marcus Kettner         : VPT2
   Christian Kollmar      : KDIIS, OOCD, Brueckner-CCSD(T), CCSD density, CASPT2, CASPT2-K
   Simone Kossmann        : Meta GGA functionals, TD-DFT gradient, OOMP2, MP2 Hessian
   Martin Krupicka        : Initial AUTO-CI
   Lucas Lang             : DCDCAS
   Marvin Lechner         : AUTO-CI (C++ implementation), FIC-MRCC
   Dagmar Lenk            : GEPOL surface, SMD
   Dimitrios Liakos       : Extrapolation schemes; Compound Job, initial MDCI parallelization
   Dimitrios Manganas     : Further ROCIS development; embedding schemes
   Dimitrios Pantazis     : SARC Basis sets
   Anastasios Papadopoulos: AUTO-CI, single reference methods and gradients
   Taras Petrenko         : DFT Hessian,TD-DFT gradient, ASA, ECA, R-Raman, ABS, FL, XAS/XES, NRVS
   Peter Pinski           : DLPNO-MP2, DLPNO-MP2 Gradient
   Christoph Reimann      : Effective Core Potentials
   Marius Retegan         : Local ZFS, SOC
   Christoph Riplinger    : Optimizer, TS searches, QM/MM, DLPNO-CCSD(T), (RO)-DLPNO pert. Triples
   Tobias Risthaus        : Range-separated hybrids, TD-DFT gradient, RPA, STAB
   Michael Roemelt        : Original ROCIS implementation
   Masaaki Saitow         : Open-shell DLPNO-CCSD energy and density
   Barbara Sandhoefer     : DKH picture change effects
   Avijit Sen             : IP-ROCIS
   Kantharuban Sivalingam : CASSCF convergence, NEVPT2, FIC-MRCI
   Bernardo de Souza      : ESD, SOC TD-DFT
   Georgi Stoychev        : AutoAux, RI-MP2 NMR, DLPNO-MP2 response
   Willem Van den Heuvel  : Paramagnetic NMR
   Boris Wezisla          : Elementary symmetry handling
   Frank Wennmohs         : Technical directorship


 We gratefully acknowledge several colleagues who have allowed us to
 interface, adapt or use parts of their codes:
   Stefan Grimme, W. Hujo, H. Kruse, P. Pracht,  : VdW corrections, initial TS optimization,
                  C. Bannwarth, S. Ehlert          DFT functionals, gCP, sTDA/sTD-DF
   Ed Valeev, F. Pavosevic, A. Kumar             : LibInt (2-el integral package), F12 methods
   Garnet Chan, S. Sharma, J. Yang, R. Olivares  : DMRG
   Ulf Ekstrom                                   : XCFun DFT Library
   Mihaly Kallay                                 : mrcc  (arbitrary order and MRCC methods)
   Jiri Pittner, Ondrej Demel                    : Mk-CCSD
   Frank Weinhold                                : gennbo (NPA and NBO analysis)
   Christopher J. Cramer and Donald G. Truhlar   : smd solvation model
   Lars Goerigk                                  : TD-DFT with DH, B97 family of functionals
   V. Asgeirsson, H. Jonsson                     : NEB implementation
   FAccTs GmbH                                   : IRC, NEB, NEB-TS, DLPNO-Multilevel, CI-OPT
                                                   MM, QMMM, 2- and 3-layer-ONIOM, Crystal-QMMM,
                                                   LR-CPCM, SF, NACMEs, symmetry and pop. for TD-DFT,
                                                   nearIR, NL-DFT gradient (VV10), updates on ESD,
                                                   ML-optimized integration grids
   S Lehtola, MJT Oliveira, MAL Marques          : LibXC Library
   Liviu Ungur et al                             : ANISO software


 Your calculation uses the libint2 library for the computation of 2-el integrals
 For citations please refer to: http://libint.valeyev.net

 Your ORCA version has been built with support for libXC version: 5.1.0
 For citations please refer to: https://tddft.org/programs/libxc/

 This ORCA versions uses:
   CBLAS   interface :  Fast vector & matrix operations
   LAPACKE interface :  Fast linear algebra routines
   SCALAPACK package :  Parallel linear algebra routines
   Shared memory     :  Shared parallel matrices
   BLAS/LAPACK       :  OpenBLAS 0.3.15  USE64BITINT DYNAMIC_ARCH NO_AFFINITY Sandybridge SINGLE_THREADED
        Core in use  :  Sandybridge
   Copyright (c) 2011-2014, The OpenBLAS Project


Your calculation utilizes the atom-pairwise dispersion correction
with the Becke-Johnson damping scheme (D3BJ)
Cite in your paper:
S.Grimme, S.Ehrlich, L.Goerigk, J Comput Chem, (2011), 32, 1456–1465 
S.Grimme, J.Antony, S.Ehrlich and H.Krieg, J.Chem.Phys., 132, (2010), 154104 
   

Your calculation utilizes the SMD solvation module
Please cite in your paper:
A.V. Marenich, C.J. Cramer, D.G. Truhlar J. Phys. Chem. B, 113, (2009), 6378 

================================================================================

----- Orbital basis set information -----
Your calculation utilizes the basis: aug-cc-pVTZ 
    H, B-Ne : Obtained from the ccRepo (grant-hill.group.shef.ac.uk/ccrepo) Feb. 2017
              R. A. Kendall, T. H. Dunning, Jr., R. J. Harrison, J. Chem. Phys. 96, 6796 (1992)
         He : Obtained from the ccRepo (grant-hill.group.shef.ac.uk/ccrepo) Feb. 2017
              D. E. Woon, T. H. Dunning, Jr., J. Chem. Phys. 100, 2975 (1994)
  Li-Be, Na : Obtained from the ccRepo (grant-hill.group.shef.ac.uk/ccrepo) Feb. 2017
              B. P. Prascher, D. E. Woon, K. A. Peterson, T. H. Dunning, Jr., A. K. Wilson, Theor. Chem. Acc. 128, 69 (2011)
         Mg : Obtained from the Peterson Research Group Website (tyr0.chem.wsu.edu/~kipeters) Feb. 2017
              B. P. Prascher, D. E. Woon, K. A. Peterson, T. H. Dunning, Jr., A. K. Wilson, Theor. Chem. Acc. 128, 69 (2011)
      Al-Ar : Obtained from the ccRepo (grant-hill.group.shef.ac.uk/ccrepo) Feb. 2017
              D. E. Woon, T. H. Dunning, Jr., J. Chem. Phys. 98, 1358 (1993)
      Sc-Zn : Obtained from the ccRepo (grant-hill.group.shef.ac.uk/ccrepo) Feb. 2017
              N. B. Balabanov, K. A. Peterson, J. Chem. Phys. 123, 064107 (2005)
              N. B. Balabanov, K. A. Peterson, J. Chem. Phys. 125, 074110 (2006)
      Ga-Kr : Obtained from the ccRepo (grant-hill.group.shef.ac.uk/ccrepo) Feb. 2017
              A. K. Wilson, D. E. Woon, K. A. Peterson, T. H. Dunning, Jr., J. Chem. Phys. 110, 7667 (1999)
     Ag, Au : Obtained from the Peterson Research Group Website (tyr0.chem.wsu.edu/~kipeters) Feb. 2017
              K. A. Peterson, C. Puzzarini, Theor. Chem. Acc. 114, 283 (2005)

The basis set includes element-specific modifications.

Your calculation utilizes the basis: cc-pVTZ 
       H, B-Ne : Obtained from the ccRepo (grant-hill.group.shef.ac.uk/ccrepo) Feb. 2017
                 T. H. Dunning, Jr., J. Chem. Phys. 90, 1007 (1989)
            He : Obtained from the ccRepo (grant-hill.group.shef.ac.uk/ccrepo) Feb. 2017
                 D. E. Woon, T. H. Dunning, Jr., J. Chem. Phys. 100, 2975 (1994)
  Li-Be, Na-Mg : Obtained from the ccRepo (grant-hill.group.shef.ac.uk/ccrepo) Feb. 2017
                 B. P. Prascher, D. E. Woon, K. A. Peterson, T. H. Dunning, Jr., A. K. Wilson, Theor. Chem. Acc. 128, 69 (2011)
         Al-Ar : Obtained from the ccRepo (grant-hill.group.shef.ac.uk/ccrepo) Feb. 2017
                 D. E. Woon, T. H. Dunning, Jr., J. Chem. Phys. 98, 1358 (1993)
            Ca : Obtained from the Peterson Research Group Website (tyr0.chem.wsu.edu/~kipeters) Feb. 2017
                 J. Koput, K. A. Peterson, J. Phys. Chem. 106, 9595 (2002)
         Sc-Zn : Obtained from the ccRepo (grant-hill.group.shef.ac.uk/ccrepo) Feb. 2017
                 N. B. Balabanov, K. A. Peterson, J. Chem. Phys. 123, 064107 (2005)
                 N. B. Balabanov, K. A. Peterson, J. Chem. Phys. 125, 074110 (2006)
         Ga-Kr : Obtained from the ccRepo (grant-hill.group.shef.ac.uk/ccrepo) Feb. 2017
                 A. K. Wilson, D. E. Woon, K. A. Peterson, T. H. Dunning, Jr., J. Chem. Phys. 110, 7667 (1999)
             Y : Obtained from the ccRepo (grant-hill.group.shef.ac.uk/ccrepo) Feb. 2017
                 K. A. Peterson, D. Figgen, M. Dolg, H. Stoll, J. Chem. Phys. 126, 124101 (2007)
        Ag, Au : Obtained from the Peterson Research Group Website (tyr0.chem.wsu.edu/~kipeters) Feb. 2017
                 K. A. Peterson, C. Puzzarini, Theor. Chem. Acc. 114, 283 (2005)

----- AuxJ basis set information -----
Your calculation utilizes the auxiliary basis: aug-cc-pVTZ/JK 
  H, B-F, Al-Cl, Ga-Br : Obtained from the TURBOMOLE 7.0 basis set library

The basis set includes element-specific modifications.

Your calculation utilizes the auxiliary basis: cc-pVTZ/JK 
  H, B-F, Al-Cl, Ga-Br : Obtained from the TURBOMOLE 7.0 basis set library

----- AuxC basis set information -----
Your calculation utilizes the auxiliary basis: aug-cc-pVTZ/C 
  H-He, B-F, Al-Ar, Ga-Kr : Obtained from the EMSL Basis Set Exchange (bse.pnl.gov) Feb. 2017
                            F. Weigend, A. Kohn, C. Hattig, J. Chem. Phys. 116, 3175 (2002)
                   Be, Mg : Obtained from the TURBOMOLE 7.0 basis set library
                            C. Haettig, Phys. Chem. Chem. Phys. 7, 59 (2005)
                       Ne : Obtained from the EMSL Basis Set Exchange (bse.pnl.gov) Feb. 2017
                            C. Haettig, Phys. Chem. Chem. Phys. 7, 59 (2005)
                            F. Weigend, A. Kohn, C. Hattig, J. Chem. Phys. 116, 3175 (2002)
                    Sc-Zn : Obtained from the EMSL Basis Set Exchange (bse.pnl.gov) Feb. 2017
                            J. G. Hill, J. A. Platts, J. Chem. Phys. 128, 044104 (2008)

The basis set includes element-specific modifications.

Your calculation utilizes the auxiliary basis: cc-pVTZ/C 
  Obtained from the EMSL Basis Set Exchange (bse.pnl.gov) Feb. 2017
  H-He, B-F, Al-Ar, Ga-Kr : F. Weigend, A. Kohn, C. Hattig, J. Chem. Phys. 116, 3175 (2002)
             Li-Be, Na-Mg : C. Haettig, Phys. Chem. Chem. Phys. 7, 59 (2005)
                       Ne : C. Haettig, Phys. Chem. Chem. Phys. 7, 59 (2005)
                            F. Weigend, A. Kohn, C. Hattig, J. Chem. Phys. 116, 3175 (2002)
                    Sc-Zn : J. G. Hill, J. A. Platts, J. Chem. Phys. 128, 044104 (2008)

================================================================================
                                        WARNINGS
                       Please study these warnings very carefully!
================================================================================


WARNING: Geometry Optimization
  ===> : Switching off AutoStart
         For restart on a previous wavefunction, please use MOREAD

INFO   : the flag for use of the SHARK integral package has been found!



***************************************
The coordinates will be read from file: 
***************************************


Your calculation utilizes the atom-pairwise dispersion correction
with the Becke-Johnson damping scheme (D3BJ)
Cite in your paper:
S.Grimme, S.Ehrlich, L.Goerigk, J Comput Chem, (2011), 32, 1456–1465 
S.Grimme, J.Antony, S.Ehrlich and H.Krieg, J.Chem.Phys., 132, (2010), 154104 
   

Your calculation utilizes the SMD solvation module
Please cite in your paper:
A.V. Marenich, C.J. Cramer, D.G. Truhlar J. Phys. Chem. B, 113, (2009), 6378 

================================================================================

----- Orbital basis set information -----
Your calculation utilizes the basis: aug-cc-pVTZ 
    H, B-Ne : Obtained from the ccRepo (grant-hill.group.shef.ac.uk/ccrepo) Feb. 2017
              R. A. Kendall, T. H. Dunning, Jr., R. J. Harrison, J. Chem. Phys. 96, 6796 (1992)
         He : Obtained from the ccRepo (grant-hill.group.shef.ac.uk/ccrepo) Feb. 2017
              D. E. Woon, T. H. Dunning, Jr., J. Chem. Phys. 100, 2975 (1994)
  Li-Be, Na : Obtained from the ccRepo (grant-hill.group.shef.ac.uk/ccrepo) Feb. 2017
              B. P. Prascher, D. E. Woon, K. A. Peterson, T. H. Dunning, Jr., A. K. Wilson, Theor. Chem. Acc. 128, 69 (2011)
         Mg : Obtained from the Peterson Research Group Website (tyr0.chem.wsu.edu/~kipeters) Feb. 2017
              B. P. Prascher, D. E. Woon, K. A. Peterson, T. H. Dunning, Jr., A. K. Wilson, Theor. Chem. Acc. 128, 69 (2011)
      Al-Ar : Obtained from the ccRepo (grant-hill.group.shef.ac.uk/ccrepo) Feb. 2017
              D. E. Woon, T. H. Dunning, Jr., J. Chem. Phys. 98, 1358 (1993)
      Sc-Zn : Obtained from the ccRepo (grant-hill.group.shef.ac.uk/ccrepo) Feb. 2017
              N. B. Balabanov, K. A. Peterson, J. Chem. Phys. 123, 064107 (2005)
              N. B. Balabanov, K. A. Peterson, J. Chem. Phys. 125, 074110 (2006)
      Ga-Kr : Obtained from the ccRepo (grant-hill.group.shef.ac.uk/ccrepo) Feb. 2017
              A. K. Wilson, D. E. Woon, K. A. Peterson, T. H. Dunning, Jr., J. Chem. Phys. 110, 7667 (1999)
     Ag, Au : Obtained from the Peterson Research Group Website (tyr0.chem.wsu.edu/~kipeters) Feb. 2017
              K. A. Peterson, C. Puzzarini, Theor. Chem. Acc. 114, 283 (2005)

The basis set includes element-specific modifications.

Your calculation utilizes the basis: cc-pVTZ 
       H, B-Ne : Obtained from the ccRepo (grant-hill.group.shef.ac.uk/ccrepo) Feb. 2017
                 T. H. Dunning, Jr., J. Chem. Phys. 90, 1007 (1989)
            He : Obtained from the ccRepo (grant-hill.group.shef.ac.uk/ccrepo) Feb. 2017
                 D. E. Woon, T. H. Dunning, Jr., J. Chem. Phys. 100, 2975 (1994)
  Li-Be, Na-Mg : Obtained from the ccRepo (grant-hill.group.shef.ac.uk/ccrepo) Feb. 2017
                 B. P. Prascher, D. E. Woon, K. A. Peterson, T. H. Dunning, Jr., A. K. Wilson, Theor. Chem. Acc. 128, 69 (2011)
         Al-Ar : Obtained from the ccRepo (grant-hill.group.shef.ac.uk/ccrepo) Feb. 2017
                 D. E. Woon, T. H. Dunning, Jr., J. Chem. Phys. 98, 1358 (1993)
            Ca : Obtained from the Peterson Research Group Website (tyr0.chem.wsu.edu/~kipeters) Feb. 2017
                 J. Koput, K. A. Peterson, J. Phys. Chem. 106, 9595 (2002)
         Sc-Zn : Obtained from the ccRepo (grant-hill.group.shef.ac.uk/ccrepo) Feb. 2017
                 N. B. Balabanov, K. A. Peterson, J. Chem. Phys. 123, 064107 (2005)
                 N. B. Balabanov, K. A. Peterson, J. Chem. Phys. 125, 074110 (2006)
         Ga-Kr : Obtained from the ccRepo (grant-hill.group.shef.ac.uk/ccrepo) Feb. 2017
                 A. K. Wilson, D. E. Woon, K. A. Peterson, T. H. Dunning, Jr., J. Chem. Phys. 110, 7667 (1999)
             Y : Obtained from the ccRepo (grant-hill.group.shef.ac.uk/ccrepo) Feb. 2017
                 K. A. Peterson, D. Figgen, M. Dolg, H. Stoll, J. Chem. Phys. 126, 124101 (2007)
        Ag, Au : Obtained from the Peterson Research Group Website (tyr0.chem.wsu.edu/~kipeters) Feb. 2017
                 K. A. Peterson, C. Puzzarini, Theor. Chem. Acc. 114, 283 (2005)

----- AuxJ basis set information -----
Your calculation utilizes the auxiliary basis: aug-cc-pVTZ/JK 
  H, B-F, Al-Cl, Ga-Br : Obtained from the TURBOMOLE 7.0 basis set library

The basis set includes element-specific modifications.

Your calculation utilizes the auxiliary basis: cc-pVTZ/JK 
  H, B-F, Al-Cl, Ga-Br : Obtained from the TURBOMOLE 7.0 basis set library

----- AuxC basis set information -----
Your calculation utilizes the auxiliary basis: aug-cc-pVTZ/C 
  H-He, B-F, Al-Ar, Ga-Kr : Obtained from the EMSL Basis Set Exchange (bse.pnl.gov) Feb. 2017
                            F. Weigend, A. Kohn, C. Hattig, J. Chem. Phys. 116, 3175 (2002)
                   Be, Mg : Obtained from the TURBOMOLE 7.0 basis set library
                            C. Haettig, Phys. Chem. Chem. Phys. 7, 59 (2005)
                       Ne : Obtained from the EMSL Basis Set Exchange (bse.pnl.gov) Feb. 2017
                            C. Haettig, Phys. Chem. Chem. Phys. 7, 59 (2005)
                            F. Weigend, A. Kohn, C. Hattig, J. Chem. Phys. 116, 3175 (2002)
                    Sc-Zn : Obtained from the EMSL Basis Set Exchange (bse.pnl.gov) Feb. 2017
                            J. G. Hill, J. A. Platts, J. Chem. Phys. 128, 044104 (2008)

The basis set includes element-specific modifications.

Your calculation utilizes the auxiliary basis: cc-pVTZ/C 
  Obtained from the EMSL Basis Set Exchange (bse.pnl.gov) Feb. 2017
  H-He, B-F, Al-Ar, Ga-Kr : F. Weigend, A. Kohn, C. Hattig, J. Chem. Phys. 116, 3175 (2002)
             Li-Be, Na-Mg : C. Haettig, Phys. Chem. Chem. Phys. 7, 59 (2005)
                       Ne : C. Haettig, Phys. Chem. Chem. Phys. 7, 59 (2005)
                            F. Weigend, A. Kohn, C. Hattig, J. Chem. Phys. 116, 3175 (2002)
                    Sc-Zn : J. G. Hill, J. A. Platts, J. Chem. Phys. 128, 044104 (2008)

================================================================================
                                        WARNINGS
                       Please study these warnings very carefully!
================================================================================

INFO   : Checking CIS options ...
  ===> : (D) CORRECTION FOUND - SETTING MODE=3
  ===> : JK MODE FOUND - ACTIVATING RI-MP2 CODE
  ===> : MP2 AND CIS FOUND - CHECKING
WARNING: CIS(D) and MP2 runs must have the same orbital window
  ===> : adjusting orbital windows

WARNING: No MP2 level density has been requested!
         To caclulate MP2 level properties use
         %mp2 Density relaxed end
         or
         %mp2 Density unrelaxed end
         Otherwise for double-hybrid DFT only the energy is correct!

WARNING: The frozen-core approximation is turned on by default for 
         the MP2 part of double-hybrid DFT.

INFO   : the flag for use of the SHARK integral package has been found!

================================================================================
                                       INPUT FILE
================================================================================
NAME = optpbed3-b2plyp-test-509.inp
|  1> ! pbe0 d3bj aug-cc-PVTZ RIJCOSX Opt
|  2> %maxcore 4000
|  3> %basis
|  4>  AuxJ "aug-cc-PVTZ/JK"
|  5>  AuxC "aug-cc-PVTZ/C"
|  6>  newGTO H "cc-PVTZ" end
|  7>  newAuxJGTO H "cc-PVTZ/JK" end
|  8>  newAuxCGTO H "cc-PVTZ/C" end
|  9> end
| 10> %cpcm
| 11>  SMD true
| 12>  SMDsolvent "benzene"
| 13> end
| 14> %pal nprocs 4 end
| 15> * xyz 0 1
| 16> C          3.82610       -1.04290       -0.45070
| 17> C          2.65860       -0.18290       -0.12530
| 18> N          1.46280       -0.63950       -0.25200
| 19> C          0.40430        0.17230        0.05230
| 20> C          0.61390        1.47530        0.49220
| 21> C         -0.46440        2.32290        0.80510
| 22> C         -1.74060        1.86010        0.67440
| 23> C         -2.00650        0.54180        0.23110
| 24> C         -3.32090        0.05470        0.09280
| 25> C         -3.55040       -1.22490       -0.33680
| 26> C         -2.47760       -2.07150       -0.64590
| 27> C         -1.18730       -1.62830       -0.52290
| 28> C         -0.92680       -0.31950       -0.08480
| 29> O          1.87140        1.96580        0.63110
| 30> C          2.95480        1.18920        0.33910
| 31> O          4.06100        1.65030        0.47100
| 32> H          3.48840       -2.01240       -0.80300
| 33> H          4.44960       -1.16120        0.43420
| 34> H          4.43740       -0.55630       -1.20900
| 35> H         -0.24810        3.32420        1.14200
| 36> H         -2.57570        2.50290        0.91100
| 37> H         -4.14540        0.71050        0.33230
| 38> H         -4.56170       -1.58940       -0.44000
| 39> H         -2.67630       -3.07810       -0.98250
| 40> H         -0.34680       -2.26270       -0.75550
| 41> *
| 42> 
| 43> 
| 44> $new_job
| 45> ! b2plyp aug-cc-PVTZ RIJCOSX SP
| 46> %maxcore 4000
| 47> %basis
| 48>  AuxJ "aug-cc-PVTZ/JK"
| 49>  AuxC "aug-cc-PVTZ/C"
| 50>  newGTO H "cc-PVTZ" end
| 51>  newAuxJGTO H "cc-PVTZ/JK" end
| 52>  newAuxCGTO H "cc-PVTZ/C" end
| 53> end
| 54> %cpcm
| 55>  SMD true
| 56>  SMDsolvent "benzene"
| 57> end
| 58> %pal nprocs 4 end
| 59> %tddft
| 60>  nroots 10
| 61>  maxdim 7
| 62> end
| 63> * xyzfile 0 1
| 64> 
| 65>                          ****END OF INPUT****
================================================================================


                 $$$$$$$$$$$$$$$$$$$$$$$$$$$$$$$$$$$$$$$$$$$$$$ 
                 $ THERE ARE  2 JOBS TO BE PROCESSED THIS RUN $
                 $$$$$$$$$$$$$$$$$$$$$$$$$$$$$$$$$$$$$$$$$$$$$$ 




                 $$$$$$$$$$$$$$$$  JOB NUMBER  1 $$$$$$$$$$$$$$


                       *****************************
                       * Geometry Optimization Run *
                       *****************************

Geometry optimization settings:
Update method            Update   .... BFGS
Choice of coordinates    CoordSys .... Z-matrix Internals
Initial Hessian          InHess   .... Almoef's Model

Convergence Tolerances:
Energy Change            TolE     ....  5.0000e-06 Eh
Max. Gradient            TolMAXG  ....  3.0000e-04 Eh/bohr
RMS Gradient             TolRMSG  ....  1.0000e-04 Eh/bohr
Max. Displacement        TolMAXD  ....  4.0000e-03 bohr
RMS Displacement         TolRMSD  ....  2.0000e-03 bohr
Strict Convergence                ....  False
------------------------------------------------------------------------------
                        ORCA OPTIMIZATION COORDINATE SETUP
------------------------------------------------------------------------------

The optimization will be done in new redundant internal coordinates
Making redundant internal coordinates   ...  (new redundants) done
Evaluating the initial hessian          ...  (Almloef) done
Evaluating the coordinates              ...  done
Calculating the B-matrix                .... done
Calculating the G-matrix                .... done
Diagonalizing the G-matrix              .... done
Small eigenvalue found = 1.819e-02
The first mode is                       ....   64
The number of degrees of freedom        ....   69

    -----------------------------------------------------------------
                    Redundant Internal Coordinates


    -----------------------------------------------------------------
         Definition                    Initial Value    Approx d2E/dq
    -----------------------------------------------------------------
      1. B(C   1,C   0)                  1.4861         0.438926   
      2. B(N   2,C   1)                  1.2863         0.819182   
      3. B(C   3,N   2)                  1.3682         0.606200   
      4. B(C   4,C   3)                  1.3911         0.622200   
      5. B(C   5,C   4)                  1.4068         0.587420   
      6. B(C   6,C   5)                  1.3638         0.687919   
      7. B(C   7,C   6)                  1.4160         0.567824   
      8. B(C   8,C   7)                  1.4086         0.583617   
      9. B(C   9,C   8)                  1.3692         0.674505   
     10. B(C  10,C   9)                  1.4011         0.599758   
     11. B(C  11,C  10)                  1.3698         0.672855   
     12. B(C  12,C  11)                  1.4045         0.592286   
     13. B(C  12,C   7)                  1.4168         0.566170   
     14. B(C  12,C   3)                  1.4257         0.548093   
     15. B(O  13,C   4)                  1.3569         0.631942   
     16. B(C  14,O  13)                  1.3646         0.614332   
     17. B(C  14,C   1)                  1.4785         0.451325   
     18. B(O  15,C  14)                  1.2057         1.101361   
     19. B(H  16,C   0)                  1.0854         0.366241   
     20. B(H  17,C   0)                  1.0889         0.361502   
     21. B(H  18,C   0)                  1.0888         0.361691   
     22. B(H  19,C   5)                  1.0784         0.375814   
     23. B(H  20,C   6)                  1.0801         0.373471   
     24. B(H  21,C   8)                  1.0804         0.373045   
     25. B(H  22,C   9)                  1.0799         0.373678   
     26. B(H  23,C  10)                  1.0798         0.373813   
     27. B(H  24,C  11)                  1.0784         0.375739   
     28. A(C   1,C   0,H  18)          109.5691         0.333307   
     29. A(C   1,C   0,H  16)          110.0929         0.334000   
     30. A(H  16,C   0,H  17)          110.1739         0.291792   
     31. A(H  17,C   0,H  18)          107.0400         0.291219   
     32. A(C   1,C   0,H  17)          109.5575         0.333279   
     33. A(H  16,C   0,H  18)          110.3540         0.291816   
     34. A(N   2,C   1,C  14)          123.1348         0.428223   
     35. A(C   0,C   1,N   2)          120.2226         0.426091   
     36. A(C   0,C   1,C  14)          116.6426         0.385988   
     37. A(C   1,N   2,C   3)          119.1235         0.448664   
     38. A(N   2,C   3,C   4)          120.6306         0.429761   
     39. A(C   4,C   3,C  12)          119.6167         0.424840   
     40. A(N   2,C   3,C  12)          119.7527         0.420119   
     41. A(C   3,C   4,O  13)          120.7027         0.432983   
     42. A(C   5,C   4,O  13)          118.0200         0.428534   
     43. A(C   3,C   4,C   5)          121.2773         0.430149   
     44. A(C   4,C   5,C   6)          119.4384         0.437991   
     45. A(C   6,C   5,H  19)          122.1900         0.361817   
     46. A(C   4,C   5,H  19)          118.3716         0.352237   
     47. A(C   5,C   6,C   7)          121.4427         0.435321   
     48. A(C   7,C   6,H  20)          118.5196         0.349854   
     49. A(C   5,C   6,H  20)          120.0377         0.361431   
     50. A(C   6,C   7,C   8)          121.8645         0.422670   
     51. A(C   8,C   7,C  12)          118.6201         0.422449   
     52. A(C   6,C   7,C  12)          119.5154         0.420385   
     53. A(C   9,C   8,H  21)          120.5929         0.360149   
     54. A(C   7,C   8,H  21)          118.7155         0.351410   
     55. A(C   7,C   8,C   9)          120.6916         0.435929   
     56. A(C  10,C   9,H  22)          119.4714         0.353137   
     57. A(C   8,C   9,H  22)          120.1588         0.360253   
     58. A(C   8,C   9,C  10)          120.3698         0.438078   
     59. A(C   9,C  10,C  11)          120.3919         0.437884   
     60. A(C   9,C  10,H  23)          119.4147         0.353159   
     61. A(C  11,C  10,H  23)          120.1935         0.360125   
     62. A(C  12,C  11,H  24)          118.0919         0.352717   
     63. A(C  10,C  11,H  24)          121.6299         0.360440   
     64. A(C  10,C  11,C  12)          120.2781         0.436895   
     65. A(C   3,C  12,C   7)          118.7093         0.417743   
     66. A(C   7,C  12,C  11)          119.6485         0.423564   
     67. A(C   3,C  12,C  11)          121.6422         0.421116   
     68. A(C   4,O  13,C  14)          120.5403         0.429172   
     69. A(O  13,C  14,O  15)          119.1675         0.474747   
     70. A(C   1,C  14,O  15)          124.9646         0.451728   
     71. A(C   1,C  14,O  13)          115.8679         0.406833   
     72. D(C  14,C   1,C   0,H  18)    -57.0023         0.014217   
     73. D(C  14,C   1,C   0,H  16)   -178.5428         0.014217   
     74. D(N   2,C   1,C   0,H  18)    122.9981         0.014217   
     75. D(C  14,C   1,C   0,H  17)     60.1481         0.014217   
     76. D(N   2,C   1,C   0,H  17)   -119.8516         0.014217   
     77. D(N   2,C   1,C   0,H  16)      1.4576         0.014217   
     78. D(C   3,N   2,C   1,C   0)   -179.9204         0.052017   
     79. D(C   3,N   2,C   1,C  14)      0.0800         0.052017   
     80. D(C   4,C   3,N   2,C   1)      0.0523         0.026876   
     81. D(C  12,C   3,N   2,C   1)    179.9255         0.026876   
     82. D(O  13,C   4,C   3,C  12)    179.9748         0.026800   
     83. D(O  13,C   4,C   3,N   2)     -0.1519         0.026800   
     84. D(C   5,C   4,C   3,C  12)     -0.0598         0.026800   
     85. D(C   5,C   4,C   3,N   2)    179.8135         0.026800   
     86. D(C   6,C   5,C   4,C   3)     -0.0419         0.023736   
     87. D(H  19,C   5,C   4,O  13)     -0.0378         0.023736   
     88. D(H  19,C   5,C   4,C   3)    179.9959         0.023736   
     89. D(C   6,C   5,C   4,O  13)    179.9244         0.023736   
     90. D(H  20,C   6,C   5,H  19)      0.0227         0.033234   
     91. D(H  20,C   6,C   5,C   4)   -179.9380         0.033234   
     92. D(C   7,C   6,C   5,H  19)   -179.9704         0.033234   
     93. D(C   7,C   6,C   5,C   4)      0.0689         0.033234   
     94. D(C  12,C   7,C   6,C   5)      0.0060         0.022110   
     95. D(C   8,C   7,C   6,H  20)      0.0127         0.022110   
     96. D(C   8,C   7,C   6,C   5)   -179.9941         0.022110   
     97. D(C  12,C   7,C   6,H  20)   -179.9871         0.022110   
     98. D(H  21,C   8,C   7,C  12)   -179.9382         0.023415   
     99. D(H  21,C   8,C   7,C   6)      0.0619         0.023415   
    100. D(C   9,C   8,C   7,C  12)      0.0591         0.023415   
    101. D(C   9,C   8,C   7,C   6)   -179.9408         0.023415   
    102. D(C  10,C   9,C   8,C   7)      0.0141         0.031851   
    103. D(H  22,C   9,C   8,H  21)      0.0135         0.031851   
    104. D(H  22,C   9,C   8,C   7)   -179.9838         0.031851   
    105. D(C  10,C   9,C   8,H  21)   -179.9886         0.031851   
    106. D(H  23,C  10,C   9,H  22)     -0.0585         0.024796   
    107. D(H  23,C  10,C   9,C   8)    179.9437         0.024796   
    108. D(C  11,C  10,C   9,H  22)    179.9425         0.024796   
    109. D(C  11,C  10,C   9,C   8)     -0.0553         0.024796   
    110. D(H  24,C  11,C  10,H  23)      0.0133         0.031683   
    111. D(H  24,C  11,C  10,C   9)   -179.9877         0.031683   
    112. D(C  12,C  11,C  10,H  23)   -179.9780         0.031683   
    113. D(C  12,C  11,C  10,C   9)      0.0210         0.031683   
    114. D(C   7,C  12,C  11,H  24)   -179.9386         0.024151   
    115. D(C   7,C  12,C  11,C  10)      0.0531         0.024151   
    116. D(C   3,C  12,C  11,H  24)      0.0759         0.024151   
    117. D(C   3,C  12,C  11,C  10)   -179.9324         0.024151   
    118. D(C  11,C  12,C   7,C   8)     -0.0922         0.021976   
    119. D(C  11,C  12,C   7,C   6)    179.9077         0.021976   
    120. D(C   3,C  12,C   7,C   8)    179.8937         0.021976   
    121. D(C   3,C  12,C   7,C   6)     -0.1064         0.021976   
    122. D(C  11,C  12,C   3,C   4)   -179.8820         0.020546   
    123. D(C  11,C  12,C   3,N   2)      0.2436         0.020546   
    124. D(C   7,C  12,C   3,C   4)      0.1324         0.020546   
    125. D(C   7,C  12,C   3,N   2)   -179.7421         0.020546   
    126. D(C  14,O  13,C   4,C   5)   -179.8537         0.029383   
    127. D(C  14,O  13,C   4,C   3)      0.1129         0.029383   
    128. D(O  15,C  14,O  13,C   4)    179.9766         0.027653   
    129. D(C   1,C  14,O  13,C   4)      0.0129         0.027653   
    130. D(O  15,C  14,C   1,N   2)    179.9244         0.013884   
    131. D(O  15,C  14,C   1,C   0)     -0.0752         0.013884   
    132. D(O  13,C  14,C   1,N   2)     -0.1143         0.013884   
    133. D(O  13,C  14,C   1,C   0)    179.8861         0.013884   
    -----------------------------------------------------------------

Number of atoms                         .... 25
Number of degrees of freedom            .... 133

         *************************************************************
         *                GEOMETRY OPTIMIZATION CYCLE   1            *
         *************************************************************
---------------------------------
CARTESIAN COORDINATES (ANGSTROEM)
---------------------------------
  C      3.826100   -1.042900   -0.450700
  C      2.658600   -0.182900   -0.125300
  N      1.462800   -0.639500   -0.252000
  C      0.404300    0.172300    0.052300
  C      0.613900    1.475300    0.492200
  C     -0.464400    2.322900    0.805100
  C     -1.740600    1.860100    0.674400
  C     -2.006500    0.541800    0.231100
  C     -3.320900    0.054700    0.092800
  C     -3.550400   -1.224900   -0.336800
  C     -2.477600   -2.071500   -0.645900
  C     -1.187300   -1.628300   -0.522900
  C     -0.926800   -0.319500   -0.084800
  O      1.871400    1.965800    0.631100
  C      2.954800    1.189200    0.339100
  O      4.061000    1.650300    0.471000
  H      3.488400   -2.012400   -0.803000
  H      4.449600   -1.161200    0.434200
  H      4.437400   -0.556300   -1.209000
  H     -0.248100    3.324200    1.142000
  H     -2.575700    2.502900    0.911000
  H     -4.145400    0.710500    0.332300
  H     -4.561700   -1.589400   -0.440000
  H     -2.676300   -3.078100   -0.982500
  H     -0.346800   -2.262700   -0.755500

----------------------------
CARTESIAN COORDINATES (A.U.)
----------------------------
  NO LB      ZA    FRAG     MASS         X           Y           Z
   0 C     6.0000    0    12.011    7.230281   -1.970795   -0.851700
   1 C     6.0000    0    12.011    5.024026   -0.345631   -0.236783
   2 N     7.0000    0    14.007    2.764291   -1.208480   -0.476211
   3 C     6.0000    0    12.011    0.764016    0.325600    0.098833
   4 C     6.0000    0    12.011    1.160103    2.787913    0.930123
   5 C     6.0000    0    12.011   -0.877589    4.389645    1.521419
   6 C     6.0000    0    12.011   -3.289257    3.515080    1.274431
   7 C     6.0000    0    12.011   -3.791735    1.023854    0.436716
   8 C     6.0000    0    12.011   -6.275592    0.103368    0.175367
   9 C     6.0000    0    12.011   -6.709284   -2.314726   -0.636460
  10 C     6.0000    0    12.011   -4.681985   -3.914568   -1.220574
  11 C     6.0000    0    12.011   -2.243672   -3.077041   -0.988138
  12 C     6.0000    0    12.011   -1.751398   -0.603767   -0.160249
  13 O     8.0000    0    15.999    3.536433    3.714824    1.192606
  14 C     6.0000    0    12.011    5.583763    2.247262    0.640806
  15 O     8.0000    0    15.999    7.674178    3.118615    0.890061
  16 H     1.0000    0     1.008    6.592121   -3.802885   -1.517450
  17 H     1.0000    0     1.008    8.408525   -2.194350    0.820519
  18 H     1.0000    0     1.008    8.385471   -1.051255   -2.284679
  19 H     1.0000    0     1.008   -0.468841    6.281828    2.158067
  20 H     1.0000    0     1.008   -4.867368    4.729796    1.721541
  21 H     1.0000    0     1.008   -7.833671    1.342650    0.627956
  22 H     1.0000    0     1.008   -8.620364   -3.003531   -0.831479
  23 H     1.0000    0     1.008   -5.057474   -5.816766   -1.856656
  24 H     1.0000    0     1.008   -0.655357   -4.275883   -1.427688

--------------------------------
INTERNAL COORDINATES (ANGSTROEM)
--------------------------------
 C      0   0   0     0.000000000000     0.00000000     0.00000000
 C      1   0   0     1.486116216855     0.00000000     0.00000000
 N      2   1   0     1.286263616060   120.22257870     0.00000000
 C      3   2   1     1.368225120366   119.12350797   180.07963030
 C      4   3   2     1.391133771425   120.63057042     0.05231264
 C      5   4   3     1.406791761420   121.27733634   179.81354080
 C      6   5   4     1.363800854231   119.43843847   359.95810155
 C      7   6   5     1.416027044233   121.44267068     0.06892541
 C      8   7   6     1.408559782189   121.86447802   180.00590950
 C      9   8   7     1.369161265155   120.69158346   180.05922722
 C     10   9   8     1.401133187816   120.36978999     0.00000000
 C     11  10   9     1.369828211857   120.39186200   359.94466503
 C     12  11  10     1.404545940865   120.27810713     0.00000000
 O      5   4   3     1.356904458685   120.70270455   359.84809791
 C     14   5   4     1.364597786895   120.54029306     0.11286239
 O     15  14   5     1.205690366554   119.16749585   179.97660168
 H      1   2   3     1.085397084020   110.09287313     1.45760668
 H      1   2   3     1.088942216098   109.55747320   240.14840786
 H      1   2   3     1.088800321455   109.56913659   122.99805011
 H      6   5   4     1.078373307348   118.37155792   179.99590094
 H      7   6   5     1.080075650128   120.03769552   180.06199423
 H      9   8   7     1.080386106908   118.71550571     0.06188283
 H     10   9   8     1.079925080735   120.15881404   180.01623327
 H     11  10   9     1.079826286955   119.41467043   179.94366403
 H     12  11  10     1.078427730541   121.62994399   180.01233516

---------------------------
INTERNAL COORDINATES (A.U.)
---------------------------
 C      0   0   0     0.000000000000     0.00000000     0.00000000
 C      1   0   0     2.808352653035     0.00000000     0.00000000
 N      2   1   0     2.430685970381   120.22257870     0.00000000
 C      3   2   1     2.585570767043   119.12350797   180.07963030
 C      4   3   2     2.628861843643   120.63057042     0.05231264
 C      5   4   3     2.658451156541   121.27733634   179.81354080
 C      6   5   4     2.577210115704   119.43843847   359.95810155
 C      7   6   5     2.675903311827   121.44267068     0.06892541
 C      8   7   6     2.661792231593   121.86447802   180.00590950
 C      9   8   7     2.587339824316   120.69158346   180.05922722
 C     10   9   8     2.647758002121   120.36978999     0.00000000
 C     11  10   9     2.588600170929   120.39186200   359.94466503
 C     12  11  10     2.654207170745   120.27810713     0.00000000
 O      5   4   3     2.564177816812   120.70270455   359.84809791
 C     14   5   4     2.578716100187   120.54029306     0.11286239
 O     15  14   5     2.278424595093   119.16749585   179.97660168
 H      1   2   3     2.051103235355   110.09287313     1.45760668
 H      1   2   3     2.057802564090   109.55747320   240.14840786
 H      1   2   3     2.057534422075   109.56913659   122.99805011
 H      6   5   4     2.037830221018   118.37155792   179.99590094
 H      7   6   5     2.041047182659   120.03769552   180.06199423
 H      9   8   7     2.041633860950   118.71550571     0.06188283
 H     10   9   8     2.040762647742   120.15881404   180.01623327
 H     11  10   9     2.040575954555   119.41467043   179.94366403
 H     12  11  10     2.037933065949   121.62994399   180.01233516

---------------------
BASIS SET INFORMATION
---------------------
There are 4 groups of distinct atoms

 Group   1 Type C   : 19s6p3d2f contracted to 5s4p3d2f pattern {88111/3111/111/11}
 Group   2 Type N   : 19s6p3d2f contracted to 5s4p3d2f pattern {88111/3111/111/11}
 Group   3 Type O   : 19s6p3d2f contracted to 5s4p3d2f pattern {88111/3111/111/11}
 Group   4 Type H   : 5s2p1d contracted to 3s2p1d pattern {311/11/1}

Atom   0C    basis set group =>   1
Atom   1C    basis set group =>   1
Atom   2N    basis set group =>   2
Atom   3C    basis set group =>   1
Atom   4C    basis set group =>   1
Atom   5C    basis set group =>   1
Atom   6C    basis set group =>   1
Atom   7C    basis set group =>   1
Atom   8C    basis set group =>   1
Atom   9C    basis set group =>   1
Atom  10C    basis set group =>   1
Atom  11C    basis set group =>   1
Atom  12C    basis set group =>   1
Atom  13O    basis set group =>   3
Atom  14C    basis set group =>   1
Atom  15O    basis set group =>   3
Atom  16H    basis set group =>   4
Atom  17H    basis set group =>   4
Atom  18H    basis set group =>   4
Atom  19H    basis set group =>   4
Atom  20H    basis set group =>   4
Atom  21H    basis set group =>   4
Atom  22H    basis set group =>   4
Atom  23H    basis set group =>   4
Atom  24H    basis set group =>   4
---------------------------------
AUXILIARY/J BASIS SET INFORMATION
---------------------------------
There are 4 groups of distinct atoms

 Group   1 Type C   : 10s7p5d2f1g contracted to 10s7p5d2f1g pattern {1111111111/1111111/11111/11/1}
 Group   2 Type N   : 10s7p5d2f1g contracted to 10s7p5d2f1g pattern {1111111111/1111111/11111/11/1}
 Group   3 Type O   : 10s7p5d2f1g contracted to 10s7p5d2f1g pattern {1111111111/1111111/11111/11/1}
 Group   4 Type H   : 4s3p2d1f contracted to 4s3p2d1f pattern {1111/111/11/1}

Atom   0C    basis set group =>   1
Atom   1C    basis set group =>   1
Atom   2N    basis set group =>   2
Atom   3C    basis set group =>   1
Atom   4C    basis set group =>   1
Atom   5C    basis set group =>   1
Atom   6C    basis set group =>   1
Atom   7C    basis set group =>   1
Atom   8C    basis set group =>   1
Atom   9C    basis set group =>   1
Atom  10C    basis set group =>   1
Atom  11C    basis set group =>   1
Atom  12C    basis set group =>   1
Atom  13O    basis set group =>   3
Atom  14C    basis set group =>   1
Atom  15O    basis set group =>   3
Atom  16H    basis set group =>   4
Atom  17H    basis set group =>   4
Atom  18H    basis set group =>   4
Atom  19H    basis set group =>   4
Atom  20H    basis set group =>   4
Atom  21H    basis set group =>   4
Atom  22H    basis set group =>   4
Atom  23H    basis set group =>   4
Atom  24H    basis set group =>   4
---------------------------------
AUXILIARY/C BASIS SET INFORMATION
---------------------------------
There are 4 groups of distinct atoms

 Group   1 Type C   : 9s7p6d4f2g contracted to 9s7p6d4f2g pattern {111111111/1111111/111111/1111/11}
 Group   2 Type N   : 9s7p6d4f2g contracted to 9s7p6d4f2g pattern {111111111/1111111/111111/1111/11}
 Group   3 Type O   : 9s7p6d4f2g contracted to 9s7p6d4f2g pattern {111111111/1111111/111111/1111/11}
 Group   4 Type H   : 4s3p2d1f contracted to 4s3p2d1f pattern {1111/111/11/1}

Atom   0C    basis set group =>   1
Atom   1C    basis set group =>   1
Atom   2N    basis set group =>   2
Atom   3C    basis set group =>   1
Atom   4C    basis set group =>   1
Atom   5C    basis set group =>   1
Atom   6C    basis set group =>   1
Atom   7C    basis set group =>   1
Atom   8C    basis set group =>   1
Atom   9C    basis set group =>   1
Atom  10C    basis set group =>   1
Atom  11C    basis set group =>   1
Atom  12C    basis set group =>   1
Atom  13O    basis set group =>   3
Atom  14C    basis set group =>   1
Atom  15O    basis set group =>   3
Atom  16H    basis set group =>   4
Atom  17H    basis set group =>   4
Atom  18H    basis set group =>   4
Atom  19H    basis set group =>   4
Atom  20H    basis set group =>   4
Atom  21H    basis set group =>   4
Atom  22H    basis set group =>   4
Atom  23H    basis set group =>   4
Atom  24H    basis set group =>   4


           ************************************************************
           *        Program running with 4 parallel MPI-processes     *
           *              working on a common directory               *
           ************************************************************
------------------------------------------------------------------------------
                           ORCA GTO INTEGRAL CALCULATION
                           -- RI-GTO INTEGRALS CHOSEN --
------------------------------------------------------------------------------
------------------------------------------------------------------------------
                   ___                                                        
                  /   \      - P O W E R E D   B Y -                         
                 /     \                                                     
                 |  |  |   _    _      __       _____    __    __             
                 |  |  |  | |  | |    /  \     |  _  \  |  |  /  |          
                  \  \/   | |  | |   /    \    | | | |  |  | /  /          
                 / \  \   | |__| |  /  /\  \   | |_| |  |  |/  /          
                |  |  |   |  __  | /  /__\  \  |    /   |      \           
                |  |  |   | |  | | |   __   |  |    \   |  |\   \          
                \     /   | |  | | |  |  |  |  | |\  \  |  | \   \       
                 \___/    |_|  |_| |__|  |__|  |_| \__\ |__|  \__/        
                                                                              
                      - O R C A' S   B I G   F R I E N D -                    
                                      &                                       
                       - I N T E G R A L  F E E D E R -                       
                                                                              
 v1 FN, 2020, v2 2021                                                         
------------------------------------------------------------------------------


Reading SHARK input file optpbed3-b2plyp-test-509.SHARKINP.tmp ... ok
----------------------
SHARK INTEGRAL PACKAGE
----------------------

Number of atoms                             ...     25
Number of basis functions                   ...    958
Number of shells                            ...    374
Maximum angular momentum                    ...      3
Integral batch strategy                     ... SHARK/LIBINT Hybrid
RI-J (if used) integral strategy            ... SPLIT-RIJ (Revised 2003 algorithm where possible)
Printlevel                                  ...      1
Contraction scheme used                     ... PARTIAL GENERAL contraction
Coulomb Range Separation                    ... NOT USED
Exchange Range Separation                   ... NOT USED
Finite Nucleus Model                        ... NOT USED
Auxiliary Coulomb fitting basis             ... AVAILABLE
   # of basis functions in Aux-J            ...   1534
   # of shells in Aux-J                     ...    490
   Maximum angular momentum in Aux-J        ...      4
Auxiliary J/K fitting basis                 ... NOT available
Auxiliary Correlation fitting basis         ... AVAILABLE
   # of basis functions in Aux-C            ...   1966
   # of shells in Aux-C                     ...    538
   Maximum angular momentum in Aux-C        ...      4
Auxiliary 'external' fitting basis          ... NOT available
Integral threshold                          ...     2.500000e-11
Primitive cut-off                           ...     2.500000e-12
Primitive pair pre-selection threshold      ...     2.500000e-12

Calculating pre-screening integrals         ... done (  0.2 sec) Dimension = 374
Calculating pre-screening integrals (ORCA)  ... done (  0.4 sec) Dimension = 278
Organizing shell pair data                  ... done (  0.6 sec)
Shell pair information
Total number of shell pairs                 ...     70125
Shell pairs after pre-screening             ...     50375
Total number of primitive shell pairs       ...     90175
Primitive shell pairs kept                  ...     59364
          la=0 lb=0:  11460 shell pairs
          la=1 lb=0:  12617 shell pairs
          la=1 lb=1:   2959 shell pairs
          la=2 lb=0:   8579 shell pairs
          la=2 lb=1:   4005 shell pairs
          la=2 lb=2:   1408 shell pairs
          la=3 lb=0:   4964 shell pairs
          la=3 lb=1:   2306 shell pairs
          la=3 lb=2:   1593 shell pairs
          la=3 lb=3:    484 shell pairs

Calculating one electron integrals          ... done (  0.1 sec)
Calculating RI/J V-Matrix + Cholesky decomp.... done (  0.3 sec)
Calculating RI/C V-Matrix + Cholesky decomp.... done (  0.3 sec)
Calculating Nuclear repulsion               ... done (  0.0 sec) ENN=   1011.269386909346 Eh

SHARK setup successfully completed in   3.4 seconds

Maximum memory used throughout the entire GTOINT-calculation: 76.4 MB


           ************************************************************
           *        Program running with 4 parallel MPI-processes     *
           *              working on a common directory               *
           ************************************************************
-------------------------------------------------------------------------------
                                 ORCA SCF
-------------------------------------------------------------------------------

------------
SCF SETTINGS
------------
Hamiltonian:
 Density Functional     Method          .... DFT(GTOs)
 Exchange Functional    Exchange        .... PBE
   PBE kappa parameter   XKappa         ....  0.804000
   PBE mue parameter    XMuePBE         ....  0.219520
 Correlation Functional Correlation     .... PBE
   PBE beta parameter  CBetaPBE         ....  0.066725
 LDA part of GGA corr.  LDAOpt          .... PW91-LDA
 Gradients option       PostSCFGGA      .... off
 Hybrid DFT is turned on
   Fraction HF Exchange ScalHFX         ....  0.250000
   Scaling of DF-GGA-X  ScalDFX         ....  0.750000
   Scaling of DF-GGA-C  ScalDFC         ....  1.000000
   Scaling of DF-LDA-C  ScalLDAC        ....  1.000000
   Perturbative correction              ....  0.000000
   Density functional embedding theory  .... OFF
   NL short-range parameter             ....  6.900000
 RI-approximation to the Coulomb term is turned on
   Number of AuxJ basis functions       .... 1534
   RIJ-COSX (HFX calculated with COS-X)).... on


General Settings:
 Integral files         IntName         .... optpbed3-b2plyp-test-509
 Hartree-Fock type      HFTyp           .... RHF
 Total Charge           Charge          ....    0
 Multiplicity           Mult            ....    1
 Number of Electrons    NEL             ....  110
 Basis Dimension        Dim             ....  862
 Nuclear Repulsion      ENuc            ....   1011.2693869093 Eh

Convergence Acceleration:
 DIIS                   CNVDIIS         .... on
   Start iteration      DIISMaxIt       ....    12
   Startup error        DIISStart       ....  0.200000
   # of expansion vecs  DIISMaxEq       ....     5
   Bias factor          DIISBfac        ....   1.050
   Max. coefficient     DIISMaxC        ....  10.000
 Trust-Rad. Augm. Hess. CNVTRAH         .... auto
   Auto Start mean grad. ratio tolernc. ....  1.125000
   Auto Start start iteration           ....    20
   Auto Start num. interpolation iter.  ....    10
   Max. Number of Micro iterations      ....    16
   Max. Number of Macro iterations      .... Maxiter - #DIIS iter
   Number of Davidson start vectors     ....     2
   Converg. threshold I  (grad. norm)   ....   1.000e-05
   Converg. threshold II (energy diff.) ....   1.000e-08
   Grad. Scal. Fac. for Micro threshold ....   0.100
   Minimum threshold for Micro iter.    ....   0.010
   NR start threshold (gradient norm)   ....   0.001
   Initial trust radius                 ....   0.400
   Minimum AH scaling param. (alpha)    ....   1.000
   Maximum AH scaling param. (alpha)    .... 1000.000
   Orbital update algorithm             .... Taylor
   White noise on init. David. guess    .... on
   Maximum white noise                  ....   0.010
   Quad. conv. algorithm                .... NR
 SOSCF                  CNVSOSCF        .... on
   Start iteration      SOSCFMaxIt      ....   150
   Startup grad/error   SOSCFStart      ....  0.003300
 Level Shifting         CNVShift        .... on
   Level shift para.    LevelShift      ....    0.2500
   Turn off err/grad.   ShiftErr        ....    0.0010
 Zerner damping         CNVZerner       .... off
 Static damping         CNVDamp         .... on
   Fraction old density DampFac         ....    0.7000
   Max. Damping (<1)    DampMax         ....    0.9800
   Min. Damping (>=0)   DampMin         ....    0.0000
   Turn off err/grad.   DampErr         ....    0.1000
 Fernandez-Rico         CNVRico         .... off

SCF Procedure:
 Maximum # iterations   MaxIter         ....   125
 SCF integral mode      SCFMode         .... Direct
   Integral package                     .... SHARK and LIBINT hybrid scheme
 Reset frequency        DirectResetFreq ....    20
 Integral Threshold     Thresh          ....  2.500e-11 Eh
 Primitive CutOff       TCut            ....  2.500e-12 Eh

Convergence Tolerance:
 Convergence Check Mode ConvCheckMode   .... Total+1el-Energy
 Convergence forced     ConvForced      .... 0
 Energy Change          TolE            ....  1.000e-08 Eh
 1-El. energy change                    ....  1.000e-05 Eh
 Orbital Gradient       TolG            ....  1.000e-05
 Orbital Rotation angle TolX            ....  1.000e-05
 DIIS Error             TolErr          ....  5.000e-07


Diagonalization of the overlap matrix:
Smallest eigenvalue                        ... 3.607e-07
Time for diagonalization                   ...    0.282 sec
Threshold for overlap eigenvalues          ... 1.000e-08
Number of eigenvalues below threshold      ... 0
Time for construction of square roots      ...    0.161 sec
Total time needed                          ...    0.447 sec

Time for model grid setup =    0.483 sec

------------------------------
INITIAL GUESS: MODEL POTENTIAL
------------------------------
Loading Hartree-Fock densities                     ... done
Calculating cut-offs                               ... done
Initializing the effective Hamiltonian             ... done
Setting up the integral package (SHARK)            ... done
Starting the Coulomb interaction                   ... done (   1.5 sec)
Reading the grid                                   ... done
Mapping shells                                     ... done
Starting the XC term evaluation                    ... done (   1.5 sec)
  promolecular density results
     # of electrons  =    109.987716891
     EX              =    -92.065872016
     EC              =     -3.713943340
     EX+EC           =    -95.779815356
Transforming the Hamiltonian                       ... done (   0.2 sec)
Diagonalizing the Hamiltonian                      ... done (   0.3 sec)
Back transforming the eigenvectors                 ... done (   0.1 sec)
Now organizing SCF variables                       ... done
                      ------------------
                      INITIAL GUESS DONE (   4.0 sec)
                      ------------------
-------------------
DFT GRID GENERATION
-------------------

General Integration Accuracy     IntAcc      ... 4.388
Radial Grid Type                 RadialGrid  ... OptM3 with GC (2021)
Angular Grid (max. ang.)         AngularGrid ... 4 (Lebedev-302)
Angular grid pruning method      GridPruning ... 4 (adaptive)
Weight generation scheme         WeightScheme... Becke
Basis function cutoff            BFCut       ... 1.0000e-11
Integration weight cutoff        WCut        ... 1.0000e-14
Angular grids for H and He will be reduced by one unit
Partially contracted basis set               ... off
Rotationally invariant grid construction     ... off

Total number of grid points                  ...   128732
Total number of batches                      ...     2023
Average number of points per batch           ...       63
Average number of grid points per atom       ...     5149
Time for grid setup =    1.671 sec

--------------------
COSX GRID GENERATION
--------------------

GRIDX 1
-------
General Integration Accuracy     IntAcc      ... 3.816
Radial Grid Type                 RadialGrid  ... OptM3 with GC (2021)
Angular Grid (max. ang.)         AngularGrid ... 1 (Lebedev-50)
Angular grid pruning method      GridPruning ... 4 (adaptive)
Weight generation scheme         WeightScheme... Becke
Basis function cutoff            BFCut       ... 1.0000e-11
Integration weight cutoff        WCut        ... 1.0000e-14
Angular grids for H and He will be reduced by one unit
Partially contracted basis set               ... on
Rotationally invariant grid construction     ... off

Total number of grid points                  ...    16385
Total number of batches                      ...      269
Average number of points per batch           ...       60
Average number of grid points per atom       ...      655
UseSFitting                                  ... on

GRIDX 2
-------
General Integration Accuracy     IntAcc      ... 4.020
Radial Grid Type                 RadialGrid  ... OptM3 with GC (2021)
Angular Grid (max. ang.)         AngularGrid ... 2 (Lebedev-110)
Angular grid pruning method      GridPruning ... 4 (adaptive)
Weight generation scheme         WeightScheme... Becke
Basis function cutoff            BFCut       ... 1.0000e-11
Integration weight cutoff        WCut        ... 1.0000e-14
Angular grids for H and He will be reduced by one unit
Partially contracted basis set               ... on
Rotationally invariant grid construction     ... off

Total number of grid points                  ...    39660
Total number of batches                      ...      632
Average number of points per batch           ...       62
Average number of grid points per atom       ...     1586
UseSFitting                                  ... on

GRIDX 3
-------
General Integration Accuracy     IntAcc      ... 4.338
Radial Grid Type                 RadialGrid  ... OptM3 with GC (2021)
Angular Grid (max. ang.)         AngularGrid ... 3 (Lebedev-194)
Angular grid pruning method      GridPruning ... 4 (adaptive)
Weight generation scheme         WeightScheme... Becke
Basis function cutoff            BFCut       ... 1.0000e-11
Integration weight cutoff        WCut        ... 1.0000e-14
Angular grids for H and He will be reduced by one unit
Partially contracted basis set               ... on
Rotationally invariant grid construction     ... off

Total number of grid points                  ...    85672
Total number of batches                      ...     1354
Average number of points per batch           ...       63
Average number of grid points per atom       ...     3427
UseSFitting                                  ... on

Time for X-Grid setup             =    4.392 sec


--------------------
CPCM SOLVATION MODEL
--------------------
CPCM parameters:
  Epsilon                                         ...       2.2706
  Refrac                                          ...       1.5011
  Rsolv                                           ...       1.3000
  Surface type                                    ... GAUSSIAN VDW
  Epsilon function type                           ...         CPCM
Solvent:                                     ... BENZENE
SMD-CDS solvent descriptors:
  Soln                                       ...    1.5011
  Soln25                                     ...    1.4972
  Sola                                       ...    0.0000
  Solb                                       ...    0.1400
  Solg                                       ...   40.6200
  Solc                                       ...    1.0000
  Solh                                       ...    0.0000
Radii:
 Radius for C  used is    3.4960 Bohr (=   1.8500 Ang.)
 Radius for N  used is    3.5716 Bohr (=   1.8900 Ang.)
 Radius for O  used is    4.3350 Bohr (=   2.2940 Ang.)
 Radius for H  used is    2.2677 Bohr (=   1.2000 Ang.)
Calculating surface                               ...        done! (  0.0s)
GEPOL surface points                              ...         1377
GEPOL Volume                                      ...    1593.4302
GEPOL Surface-area                                ...     846.2480
Calculating surface distance matrix               ...        done! (  0.0s)
Performing Cholesky decomposition & store         ...        done! (  0.1s)
Overall time for CPCM initialization              ...                 0.2s
 re-compute Schwartz prescreening matrix in partically contracted basis (1) ...done (   0.206 sec)
--------------
SCF ITERATIONS
--------------
ITER       Energy         Delta-E        Max-DP      RMS-DP      [F,P]     Damp
               ***  Starting incremental Fock matrix formation  ***
  0   -705.0996174743   0.000000000000 0.23878550  0.00145471  0.2965360 0.7000
  1   -705.2666885577  -0.167071083458 0.18582465  0.00108509  0.1127519 0.7000
                               ***Turning on DIIS***
  2   -705.3334020058  -0.066713448061 0.40602669  0.00233449  0.0440920 0.0000
  3   -705.4434067319  -0.110004726116 0.04849488  0.00044910  0.0486261 0.0000
  4   -705.4636275181  -0.020220786242 0.01154441  0.00015416  0.0204450 0.0000
  5   -705.4652326458  -0.001605127690 0.00813715  0.00006789  0.0095488 0.0000
                      *** Initiating the SOSCF procedure ***
                           *** Shutting down DIIS ***
                      *** Re-Reading the Fockian *** 
                      *** Removing any level shift *** 
ITER      Energy       Delta-E        Grad      Rot      Max-DP    RMS-DP
  6   -705.46534394  -0.0001112968  0.000278  0.000278  0.010813  0.000037
               *** Restarting incremental Fock matrix formation ***
  7   -705.46537190  -0.0000279583  0.000129  0.000765  0.014799  0.000246
  8   -705.46537261  -0.0000007104  0.000211  0.000453  0.008347  0.000081
  9   -705.46537428  -0.0000016638  0.000048  0.000289  0.011087  0.000089
 10   -705.46537428  -0.0000000060  0.000043  0.000081  0.003221  0.000031
 11   -705.46537444  -0.0000001554  0.000014  0.000067  0.007511  0.000070
 12   -705.46537444  -0.0000000024  0.000011  0.000026  0.009664  0.000049
 13   -705.46537444  -0.0000000037  0.000004  0.000008  0.047272  0.000152
 14   -705.46537443   0.0000000105  0.000004  0.000006  0.011719  0.000078
                  ***Gradient check signals convergence***
              ***Rediagonalizing the Fockian in SOSCF/NRSCF***

               *****************************************************
               *                     SUCCESS                       *
               *           SCF CONVERGED AFTER  15 CYCLES          *
               *****************************************************

Old exchange energy                            =    -23.433726452 Eh
New exchange energy                            =    -23.433785633 Eh
Exchange energy change after final integration =     -0.000059181 Eh
Total energy after final integration           =   -705.465433624 Eh
Final COS-X integration done in                =    83.001 sec

SMD CDS free energy correction energy :                -6.61352     Kcal/mol
Total Energy after SMD CDS correction =              -705.475972938 Eh

----------------
TOTAL SCF ENERGY
----------------

Total Energy       :         -705.47597294 Eh          -19196.97718 eV

Components:
Nuclear Repulsion  :         1011.26938691 Eh           27518.03901 eV
Electronic Energy  :        -1716.74535985 Eh          -46715.01619 eV
One Electron Energy:        -2964.16678913 Eh          -80659.07896 eV
Two Electron Energy:         1247.42142928 Eh           33944.06277 eV
Max COSX asymmetry :            0.00003221 Eh               0.00088 eV
CPCM Dielectric    :           -0.00737703 Eh              -0.20074 eV
SMD CDS (Gcds)     :           -0.01053931 Eh              -0.28679 eV

Virial components:
Potential Energy   :        -1407.02003342 Eh          -38286.96158 eV
Kinetic Energy     :          701.54406049 Eh           19089.98440 eV
Virial Ratio       :            2.00560466


DFT components:
N(Alpha)           :       55.000022649692 electrons
N(Beta)            :       55.000022649692 electrons
N(Total)           :      110.000045299385 electrons
E(X)               :      -70.167287987804 Eh       
E(C)               :       -3.715836680144 Eh       
E(XC)              :      -73.883124667948 Eh       
DFET-embed. en.    :        0.000000000000 Eh       
CPCM Solvation Model Properties:
Surface-charge          :           -0.04225962
Charge-correction       :            0.00014110 Eh               0.00384 eV
Free-energy (cav+disp)  :           -0.01053931 Eh              -0.28679 eV

---------------
SCF CONVERGENCE
---------------

  Last Energy change         ...   -1.0748e-08  Tolerance :   1.0000e-08
  Last MAX-Density change    ...    2.8866e-15  Tolerance :   1.0000e-07
  Last RMS-Density change    ...    1.4639e-17  Tolerance :   5.0000e-09
  Last Orbital Gradient      ...    1.6918e-06  Tolerance :   1.0000e-05
  Last Orbital Rotation      ...    4.3182e-06  Tolerance :   1.0000e-05

             **** THE GBW FILE WAS UPDATED (optpbed3-b2plyp-test-509.gbw) ****
             **** DENSITY optpbed3-b2plyp-test-509.scfp WAS UPDATED ****
             **** ENERGY FILE WAS UPDATED (optpbed3-b2plyp-test-509.en.tmp) ****
             **** THE GBW FILE WAS UPDATED (optpbed3-b2plyp-test-509.gbw) ****
             **** DENSITY optpbed3-b2plyp-test-509.scfp WAS UPDATED ****
----------------
ORBITAL ENERGIES
----------------

  NO   OCC          E(Eh)            E(eV) 
   0   2.0000     -19.299924      -525.1776 
   1   2.0000     -19.209300      -522.7116 
   2   2.0000     -14.414722      -392.2445 
   3   2.0000     -10.370736      -282.2021 
   4   2.0000     -10.316853      -280.7359 
   5   2.0000     -10.298938      -280.2483 
   6   2.0000     -10.278775      -279.6997 
   7   2.0000     -10.252569      -278.9866 
   8   2.0000     -10.250233      -278.9230 
   9   2.0000     -10.249183      -278.8945 
  10   2.0000     -10.246489      -278.8211 
  11   2.0000     -10.237208      -278.5686 
  12   2.0000     -10.235684      -278.5271 
  13   2.0000     -10.234135      -278.4850 
  14   2.0000     -10.233113      -278.4572 
  15   2.0000     -10.223850      -278.2051 
  16   2.0000      -1.176020       -32.0011 
  17   2.0000      -1.078790       -29.3554 
  18   2.0000      -0.997758       -27.1504 
  19   2.0000      -0.917512       -24.9668 
  20   2.0000      -0.866398       -23.5759 
  21   2.0000      -0.824165       -22.4267 
  22   2.0000      -0.789354       -21.4794 
  23   2.0000      -0.779895       -21.2220 
  24   2.0000      -0.747957       -20.3529 
  25   2.0000      -0.706802       -19.2331 
  26   2.0000      -0.676332       -18.4039 
  27   2.0000      -0.656666       -17.8688 
  28   2.0000      -0.635008       -17.2794 
  29   2.0000      -0.604809       -16.4577 
  30   2.0000      -0.570992       -15.5375 
  31   2.0000      -0.554897       -15.0995 
  32   2.0000      -0.520037       -14.1509 
  33   2.0000      -0.510283       -13.8855 
  34   2.0000      -0.495452       -13.4819 
  35   2.0000      -0.490339       -13.3428 
  36   2.0000      -0.471253       -12.8235 
  37   2.0000      -0.453020       -12.3273 
  38   2.0000      -0.446846       -12.1593 
  39   2.0000      -0.445814       -12.1312 
  40   2.0000      -0.437368       -11.9014 
  41   2.0000      -0.435054       -11.8384 
  42   2.0000      -0.425365       -11.5748 
  43   2.0000      -0.408317       -11.1109 
  44   2.0000      -0.402664       -10.9571 
  45   2.0000      -0.391393       -10.6503 
  46   2.0000      -0.380187       -10.3454 
  47   2.0000      -0.372696       -10.1416 
  48   2.0000      -0.360590        -9.8121 
  49   2.0000      -0.341310        -9.2875 
  50   2.0000      -0.338001        -9.1975 
  51   2.0000      -0.296587        -8.0705 
  52   2.0000      -0.281091        -7.6489 
  53   2.0000      -0.266503        -7.2519 
  54   2.0000      -0.235490        -6.4080 
  55   0.0000      -0.084486        -2.2990 
  56   0.0000      -0.046726        -1.2715 
  57   0.0000      -0.024108        -0.6560 
  58   0.0000       0.005868         0.1597 
  59   0.0000       0.009877         0.2688 
  60   0.0000       0.010656         0.2900 
  61   0.0000       0.014986         0.4078 
  62   0.0000       0.028104         0.7648 
  63   0.0000       0.032029         0.8715 
  64   0.0000       0.034379         0.9355 
  65   0.0000       0.036384         0.9901 
  66   0.0000       0.047831         1.3015 
  67   0.0000       0.050742         1.3808 
  68   0.0000       0.052569         1.4305 
  69   0.0000       0.054999         1.4966 
  70   0.0000       0.058211         1.5840 
  71   0.0000       0.062369         1.6971 
  72   0.0000       0.071638         1.9494 
  73   0.0000       0.074994         2.0407 
  74   0.0000       0.078181         2.1274 
  75   0.0000       0.081056         2.2057 
  76   0.0000       0.082043         2.2325 
  77   0.0000       0.092856         2.5267 
  78   0.0000       0.095258         2.5921 
  79   0.0000       0.102304         2.7838 
  80   0.0000       0.108353         2.9484 
  81   0.0000       0.110008         2.9935 
  82   0.0000       0.113117         3.0781 
  83   0.0000       0.115195         3.1346 
  84   0.0000       0.119568         3.2536 
  85   0.0000       0.124568         3.3897 
  86   0.0000       0.125510         3.4153 
  87   0.0000       0.128856         3.5064 
  88   0.0000       0.129029         3.5111 
  89   0.0000       0.134399         3.6572 
  90   0.0000       0.139536         3.7970 
  91   0.0000       0.139724         3.8021 
  92   0.0000       0.144533         3.9330 
  93   0.0000       0.145243         3.9523 
  94   0.0000       0.147722         4.0197 
  95   0.0000       0.155396         4.2285 
  96   0.0000       0.157274         4.2796 
  97   0.0000       0.157538         4.2868 
  98   0.0000       0.159473         4.3395 
  99   0.0000       0.163076         4.4375 
 100   0.0000       0.169208         4.6044 
 101   0.0000       0.170004         4.6260 
 102   0.0000       0.171844         4.6761 
 103   0.0000       0.176696         4.8082 
 104   0.0000       0.178287         4.8514 
 105   0.0000       0.185341         5.0434 
 106   0.0000       0.185727         5.0539 
 107   0.0000       0.186560         5.0766 
 108   0.0000       0.190384         5.1806 
 109   0.0000       0.193746         5.2721 
 110   0.0000       0.196208         5.3391 
 111   0.0000       0.198432         5.3996 
 112   0.0000       0.203815         5.5461 
 113   0.0000       0.207007         5.6329 
 114   0.0000       0.210962         5.7406 
 115   0.0000       0.211421         5.7530 
 116   0.0000       0.212482         5.7819 
 117   0.0000       0.217618         5.9217 
 118   0.0000       0.222066         6.0427 
 119   0.0000       0.227349         6.1865 
 120   0.0000       0.231230         6.2921 
 121   0.0000       0.234188         6.3726 
 122   0.0000       0.234892         6.3917 
 123   0.0000       0.242593         6.6013 
 124   0.0000       0.249057         6.7772 
 125   0.0000       0.250244         6.8095 
 126   0.0000       0.252837         6.8800 
 127   0.0000       0.256151         6.9702 
 128   0.0000       0.262989         7.1563 
 129   0.0000       0.264386         7.1943 
 130   0.0000       0.267001         7.2655 
 131   0.0000       0.268783         7.3140 
 132   0.0000       0.274509         7.4698 
 133   0.0000       0.275245         7.4898 
 134   0.0000       0.282452         7.6859 
 135   0.0000       0.284797         7.7497 
 136   0.0000       0.291055         7.9200 
 137   0.0000       0.294098         8.0028 
 138   0.0000       0.296929         8.0798 
 139   0.0000       0.299006         8.1364 
 140   0.0000       0.303775         8.2661 
 141   0.0000       0.315383         8.5820 
 142   0.0000       0.318904         8.6778 
 143   0.0000       0.319701         8.6995 
 144   0.0000       0.323748         8.8096 
 145   0.0000       0.327419         8.9095 
 146   0.0000       0.328822         8.9477 
 147   0.0000       0.333454         9.0737 
 148   0.0000       0.335262         9.1230 
 149   0.0000       0.339146         9.2286 
 150   0.0000       0.344005         9.3609 
 151   0.0000       0.347626         9.4594 
 152   0.0000       0.350824         9.5464 
 153   0.0000       0.356882         9.7113 
 154   0.0000       0.362437         9.8624 
 155   0.0000       0.362670         9.8688 
 156   0.0000       0.364420         9.9164 
 157   0.0000       0.366809         9.9814 
 158   0.0000       0.373182        10.1548 
 159   0.0000       0.377228        10.2649 
 160   0.0000       0.388203        10.5635 
 161   0.0000       0.389881        10.6092 
 162   0.0000       0.391879        10.6636 
 163   0.0000       0.396698        10.7947 
 164   0.0000       0.404323        11.0022 
 165   0.0000       0.404946        11.0191 
 166   0.0000       0.405670        11.0388 
 167   0.0000       0.411330        11.1928 
 168   0.0000       0.415002        11.2928 
 169   0.0000       0.416199        11.3254 
 170   0.0000       0.417749        11.3675 
 171   0.0000       0.418936        11.3998 
 172   0.0000       0.426563        11.6074 
 173   0.0000       0.428525        11.6608 
 174   0.0000       0.434569        11.8252 
 175   0.0000       0.438464        11.9312 
 176   0.0000       0.439129        11.9493 
 177   0.0000       0.446376        12.1465 
 178   0.0000       0.450992        12.2721 
 179   0.0000       0.452702        12.3186 
 180   0.0000       0.460744        12.5375 
 181   0.0000       0.467892        12.7320 
 182   0.0000       0.469665        12.7802 
 183   0.0000       0.470201        12.7948 
 184   0.0000       0.479107        13.0372 
 185   0.0000       0.483347        13.1526 
 186   0.0000       0.486986        13.2516 
 187   0.0000       0.488352        13.2887 
 188   0.0000       0.490215        13.3394 
 189   0.0000       0.493110        13.4182 
 190   0.0000       0.495143        13.4735 
 191   0.0000       0.505387        13.7523 
 192   0.0000       0.507384        13.8066 
 193   0.0000       0.517979        14.0949 
 194   0.0000       0.521138        14.1809 
 195   0.0000       0.525441        14.2980 
 196   0.0000       0.526151        14.3173 
 197   0.0000       0.531419        14.4606 
 198   0.0000       0.542481        14.7617 
 199   0.0000       0.543130        14.7793 
 200   0.0000       0.548765        14.9327 
 201   0.0000       0.549906        14.9637 
 202   0.0000       0.556798        15.1512 
 203   0.0000       0.564241        15.3538 
 204   0.0000       0.569740        15.5034 
 205   0.0000       0.573187        15.5972 
 206   0.0000       0.579767        15.7763 
 207   0.0000       0.588146        16.0043 
 208   0.0000       0.598159        16.2767 
 209   0.0000       0.606366        16.5001 
 210   0.0000       0.606793        16.5117 
 211   0.0000       0.613079        16.6827 
 212   0.0000       0.618204        16.8222 
 213   0.0000       0.627269        17.0689 
 214   0.0000       0.629633        17.1332 
 215   0.0000       0.634646        17.2696 
 216   0.0000       0.638763        17.3816 
 217   0.0000       0.644610        17.5407 
 218   0.0000       0.657473        17.8907 
 219   0.0000       0.658584        17.9210 
 220   0.0000       0.659098        17.9350 
 221   0.0000       0.664284        18.0761 
 222   0.0000       0.668963        18.2034 
 223   0.0000       0.671271        18.2662 
 224   0.0000       0.682078        18.5603 
 225   0.0000       0.684448        18.6248 
 226   0.0000       0.689982        18.7754 
 227   0.0000       0.698281        19.0012 
 228   0.0000       0.702073        19.1044 
 229   0.0000       0.703561        19.1449 
 230   0.0000       0.706029        19.2120 
 231   0.0000       0.707781        19.2597 
 232   0.0000       0.714362        19.4388 
 233   0.0000       0.714549        19.4439 
 234   0.0000       0.718594        19.5539 
 235   0.0000       0.722817        19.6689 
 236   0.0000       0.727020        19.7832 
 237   0.0000       0.734994        20.0002 
 238   0.0000       0.739161        20.1136 
 239   0.0000       0.743573        20.2336 
 240   0.0000       0.745766        20.2933 
 241   0.0000       0.750904        20.4331 
 242   0.0000       0.752387        20.4735 
 243   0.0000       0.769316        20.9342 
 244   0.0000       0.770596        20.9690 
 245   0.0000       0.775339        21.0980 
 246   0.0000       0.778573        21.1860 
 247   0.0000       0.779210        21.2034 
 248   0.0000       0.784349        21.3432 
 249   0.0000       0.785614        21.3776 
 250   0.0000       0.793783        21.5999 
 251   0.0000       0.796475        21.6732 
 252   0.0000       0.801350        21.8058 
 253   0.0000       0.803996        21.8778 
 254   0.0000       0.805151        21.9093 
 255   0.0000       0.807214        21.9654 
 256   0.0000       0.813752        22.1433 
 257   0.0000       0.817292        22.2396 
 258   0.0000       0.822297        22.3758 
 259   0.0000       0.823304        22.4032 
 260   0.0000       0.833700        22.6861 
[...]
   Transformed RI-exchange        ...    95.67 sec
   (ab|v) reading and digestion   ...    78.66 sec
   Final sigma-completion         ...     0.00 sec
   Done building sigma-vectors             Size of expansion space: 50
   Lowest Energy          :     0.145130763006
   Maximum Energy change  :     0.001744931319 (vector 7)
   Maximum residual norm  :     0.000482156336

                       ****Iteration    9****
              <<< Entering MO-section for Build Sigma(Double) >>>
   Forming the XC and CPCM contribution:
   Time for densities:            0.136
   Time for XC-Integration:      13.528
   Time for LR-CPCM terms:        6.571
   Time for Sigma-Completion:     0.118
   Time for building 10 sigma-vectors
   Data Preparation Phase         ...     0.00 sec
   Transformed RI Coulomb         ...     0.30 sec
   Transformed RI-exchange        ...    96.86 sec
   (ab|v) reading and digestion   ...    82.46 sec
   Final sigma-completion         ...     0.00 sec
   Done building sigma-vectors             Size of expansion space: 60
   Lowest Energy          :     0.145130763000
   Maximum Energy change  :     0.000925011113 (vector 7)
   Maximum residual norm  :     0.000118422994

                       ****Iteration   10****
              <<< Entering MO-section for Build Sigma(Double) >>>
   Forming the XC and CPCM contribution:
   Time for densities:            0.136
   Time for XC-Integration:      13.783
   Time for LR-CPCM terms:        6.586
   Time for Sigma-Completion:     0.119
   Time for building 10 sigma-vectors
   Data Preparation Phase         ...     0.01 sec
   Transformed RI Coulomb         ...     0.30 sec
   Transformed RI-exchange        ...    99.72 sec
   (ab|v) reading and digestion   ...    84.51 sec
   Final sigma-completion         ...     0.00 sec
   Done building sigma-vectors             Size of expansion space: 70
   Lowest Energy          :     0.145130762999
   Maximum Energy change  :     0.000223219213 (vector 7)
   Maximum residual norm  :     0.000014095461
   Rebuilding the expansion space

                       ****Iteration   11****
              <<< Entering MO-section for Build Sigma(Double) >>>
   Forming the XC and CPCM contribution:
   Time for densities:            0.265
   Time for XC-Integration:      26.666
   Time for LR-CPCM terms:       10.577
   Time for Sigma-Completion:     0.256
   Time for building 20 sigma-vectors
   Data Preparation Phase         ...     0.01 sec
   Transformed RI Coulomb         ...     0.50 sec
   Transformed RI-exchange        ...   299.50 sec
   (ab|v) reading and digestion   ...   265.28 sec
   Final sigma-completion         ...     0.01 sec
   Done building sigma-vectors             Size of expansion space: 20
   Lowest Energy          :     0.145130763002
   Maximum Energy change  :     0.000025661308 (vector 7)
   Maximum residual norm  :     0.000003392893

                       ****Iteration   12****
              <<< Entering MO-section for Build Sigma(Double) >>>
   Forming the XC and CPCM contribution:
   Time for densities:            0.128
   Time for XC-Integration:      12.842
   Time for LR-CPCM terms:        6.248
   Time for Sigma-Completion:     0.107
   Time for building 9 sigma-vectors
   Data Preparation Phase         ...     0.00 sec
   Transformed RI Coulomb         ...     0.31 sec
   Transformed RI-exchange        ...    96.04 sec
   (ab|v) reading and digestion   ...    70.99 sec
   Final sigma-completion         ...     0.00 sec
   Done building sigma-vectors             Size of expansion space: 29
   Lowest Energy          :     0.145130763002
   Maximum Energy change  :     0.000006116799 (vector 7)
   Maximum residual norm  :     0.000001030636

                       ****Iteration   13****
              <<< Entering MO-section for Build Sigma(Double) >>>
   Forming the XC and CPCM contribution:
   Time for densities:            0.100
   Time for XC-Integration:       9.867
   Time for LR-CPCM terms:        5.419
   Time for Sigma-Completion:     0.079
   Time for building 7 sigma-vectors
   Data Preparation Phase         ...     0.00 sec
   Transformed RI Coulomb         ...     0.25 sec
   Transformed RI-exchange        ...    58.82 sec
   (ab|v) reading and digestion   ...    53.17 sec
   Final sigma-completion         ...     0.00 sec
   Done building sigma-vectors             Size of expansion space: 36
   Lowest Energy          :     0.145130763002
   Maximum Energy change  :     0.000001550797 (vector 7)
   Maximum residual norm  :     0.000000224209

      *** CONVERGENCE OF RESIDUAL NORM REACHED ***

Storing the converged CI vectors               ... optpbed3-b2plyp-test-509_job2.cis1

                 *** DAVIDSON DONE ***

Total time for solving the CIS problem:  1967.912sec

------------------
DOUBLES CORRECTION (Double precision version)
------------------

The (D) correction will be scaled by  0.2700
Doing v(i,a)*T(i,a) terms (RI)                    ... ok
Doing u(i,j,a,b) terms for state   0              ... ok
Doing u(i,j,a,b) terms for state   1              ... ok
Doing u(i,j,a,b) terms for state   2              ... ok
Doing u(i,j,a,b) terms for state   3              ... ok
Doing u(i,j,a,b) terms for state   4              ... ok
Doing u(i,j,a,b) terms for state   5              ... ok
Doing u(i,j,a,b) terms for state   6              ... ok
Doing u(i,j,a,b) terms for state   7              ... ok
Doing u(i,j,a,b) terms for state   8              ... ok
Doing u(i,j,a,b) terms for state   9              ... ok

Contributions to the (D) correction(s) (in eV)

STATE  Final   Init.   Total   v(ext)   v(int)  v(3)    u
       omega   omega     (D)                             
-----------------------------------------------------------------------------
   0   3.603   3.949  -0.346   0.683   1.034  -0.069  -1.994
   1   3.835   4.327  -0.492   0.722   0.787  -0.032  -1.968
   2   4.159   4.614  -0.455   0.637   0.989  -0.036  -2.045
   3   4.539   4.871  -0.332   0.547   1.024  -0.059  -1.844
   4   4.681   5.316  -0.635   0.605   0.980  -0.042  -2.179
   5   5.566   5.652  -0.086   0.040   1.026  -0.002  -1.151
   6   5.094   5.812  -0.717   0.666   0.904  -0.028  -2.260
   7   5.257   5.895  -0.638   0.707   0.770  -0.029  -2.087
   8   5.588   5.975  -0.386   0.446   0.997  -0.101  -1.728
   9   5.845   5.981  -0.136   0.067   1.025  -0.008  -1.221

(D)-timings
 V(i,a)*T(i,a) terms           ...   258.873 sec
 U(i,j,a,b) 3-internal         ...     4.723 sec
 U(i,j,a,b) 3-external         ...   115.213 sec
 U(i,j,a,b) pair terms         ...   140.403 sec
 Total measured time           ...  1180.932 sec

 Time for (ab|v) I/O           ...    45.929 sec


------------------------------------
TD-DFT/TDA EXCITED STATES (SINGLETS)
------------------------------------

the weight of the individual excitations are printed if larger than 1.0e-02

STATE  1:  E=   0.132424 au      3.603 eV    29063.8 cm**-1 <S**2> =   0.000000
    53a ->  58a  :     0.011097 (c= -0.10534123)
    54a ->  55a  :     0.950228 (c= -0.97479641)

STATE  2:  E=   0.140936 au      3.835 eV    30931.8 cm**-1 <S**2> =   0.000000
    51a ->  55a  :     0.838468 (c= -0.91567876)
    51a ->  56a  :     0.098928 (c= -0.31452897)

STATE  3:  E=   0.152833 au      4.159 eV    33543.1 cm**-1 <S**2> =   0.000000
    53a ->  55a  :     0.612886 (c=  0.78287010)
    53a ->  56a  :     0.074707 (c= -0.27332645)
    54a ->  56a  :     0.017065 (c=  0.13063481)
    54a ->  58a  :     0.258912 (c= -0.50883359)

STATE  4:  E=   0.166810 au      4.539 eV    36610.6 cm**-1 <S**2> =   0.000000
    52a ->  55a  :     0.013925 (c= -0.11800477)
    53a ->  56a  :     0.038105 (c= -0.19520565)
    53a ->  58a  :     0.059148 (c=  0.24320290)
    54a ->  56a  :     0.820070 (c= -0.90557708)
    54a ->  58a  :     0.034448 (c= -0.18560154)

STATE  5:  E=   0.172025 au      4.681 eV    37755.1 cm**-1 <S**2> =   0.000000
    52a ->  55a  :     0.015501 (c=  0.12450282)
    52a ->  58a  :     0.018375 (c= -0.13555340)
    53a ->  55a  :     0.324975 (c=  0.57006589)
    53a ->  56a  :     0.291759 (c=  0.54014684)
    54a ->  56a  :     0.065495 (c= -0.25591979)
    54a ->  58a  :     0.238788 (c=  0.48865894)

STATE  6:  E=   0.204539 au      5.566 eV    44891.0 cm**-1 <S**2> =   0.000000
    54a ->  57a  :     0.720044 (c=  0.84855403)
    54a ->  59a  :     0.043480 (c=  0.20851799)
    54a ->  60a  :     0.022448 (c=  0.14982666)
    54a ->  61a  :     0.043101 (c= -0.20760809)
    54a ->  64a  :     0.120958 (c= -0.34779033)

STATE  7:  E=   0.187205 au      5.094 eV    41086.8 cm**-1 <S**2> =   0.000000
    52a ->  55a  :     0.894779 (c= -0.94592780)
    52a ->  56a  :     0.010250 (c=  0.10124360)
    54a ->  58a  :     0.034619 (c=  0.18606098)

STATE  8:  E=   0.193196 au      5.257 eV    42401.7 cm**-1 <S**2> =   0.000000
    46a ->  55a  :     0.046122 (c=  0.21475957)
    46a ->  56a  :     0.014872 (c=  0.12195096)
    48a ->  55a  :     0.013370 (c=  0.11563001)
    49a ->  55a  :     0.499380 (c= -0.70666802)
    49a ->  56a  :     0.085971 (c= -0.29320776)
    49a ->  63a  :     0.011525 (c= -0.10735547)
    49a ->  69a  :     0.016062 (c= -0.12673426)
    51a ->  55a  :     0.015359 (c=  0.12393093)
    51a ->  56a  :     0.098596 (c= -0.31399955)
    51a ->  58a  :     0.020784 (c=  0.14416811)
    51a ->  63a  :     0.010771 (c= -0.10378229)
    51a ->  69a  :     0.032071 (c= -0.17908317)
    51a ->  75a  :     0.014062 (c= -0.11858200)
    51a ->  80a  :     0.021747 (c= -0.14746922)

STATE  9:  E=   0.205358 au      5.588 eV    45070.8 cm**-1 <S**2> =   0.000000
    52a ->  55a  :     0.010852 (c= -0.10417250)
    53a ->  55a  :     0.018963 (c= -0.13770540)
    53a ->  56a  :     0.425362 (c=  0.65219790)
    54a ->  58a  :     0.346201 (c= -0.58838829)
    54a ->  63a  :     0.055854 (c=  0.23633446)
    54a ->  65a  :     0.043808 (c= -0.20930281)

STATE 10:  E=   0.214790 au      5.845 eV    47141.0 cm**-1 <S**2> =   0.000000
    52a ->  57a  :     0.017070 (c= -0.13065122)
    53a ->  56a  :     0.024367 (c=  0.15609787)
    54a ->  57a  :     0.146806 (c=  0.38315265)
    54a ->  59a  :     0.524457 (c= -0.72419380)
    54a ->  60a  :     0.072052 (c= -0.26842420)
    54a ->  61a  :     0.077916 (c=  0.27913497)
    54a ->  64a  :     0.054929 (c=  0.23436868)
    54a ->  70a  :     0.011889 (c=  0.10903734)


-----------------------------
TD-DFT/TDA-EXCITATION SPECTRA
-----------------------------

Center of mass = (  0.4469,  0.5203,  0.1666)
Calculating the Dipole integrals                  ... done
Transforming integrals                            ... done
Calculating the Linear Momentum integrals         ... done
Transforming integrals                            ... done
Calculating angular momentum integrals            ... done
Transforming integrals                            ... done

-----------------------------------------------------------------------------
         ABSORPTION SPECTRUM VIA TRANSITION ELECTRIC DIPOLE MOMENTS
-----------------------------------------------------------------------------
State   Energy    Wavelength  fosc         T2        TX        TY        TZ  
        (cm-1)      (nm)                 (au**2)    (au)      (au)      (au) 
-----------------------------------------------------------------------------
   1   29063.8    344.1   0.520453866   5.89530   2.40190  -0.31662  -0.16102
   2   30931.8    323.3   0.001563293   0.01664   0.01326   0.04010  -0.12188
   3   33543.1    298.1   0.028438071   0.27911   0.48512   0.20164   0.05575
   4   36610.6    273.1   0.042278598   0.38018   0.26770   0.52584   0.17892
   5   37755.1    264.9   0.137270359   1.19695   0.27282   1.00484   0.33588
   6   44891.0    222.8   0.000811756   0.00595   0.00007   0.02562  -0.07278
   7   41086.8    243.4   0.244548760   1.95947   1.39046   0.15941   0.02603
   8   42401.7    235.8   0.001727239   0.01341  -0.01871  -0.04799   0.10372
   9   45070.8    221.9   1.425160332  10.40984  -2.24947  -2.20298  -0.70470
  10   47141.0    212.1   0.087583450   0.61164  -0.54312  -0.54655  -0.13397

-----------------------------------------------------------------------------
         ABSORPTION SPECTRUM VIA TRANSITION VELOCITY DIPOLE MOMENTS
-----------------------------------------------------------------------------
State   Energy    Wavelength   fosc        P2         PX        PY        PZ  
        (cm-1)      (nm)                 (au**2)     (au)      (au)      (au) 
-----------------------------------------------------------------------------
   1   29063.8    344.1   0.114669303   0.02278  -0.14999  -0.01657  -0.00221
   2   30931.8    323.3   0.000006977   0.00000  -0.00120  -0.00008   0.00017
   3   33543.1    298.1   0.009833913   0.00225  -0.04742   0.00163   0.00182
   4   36610.6    273.1   0.011383742   0.00285  -0.05302  -0.00609  -0.00077
   5   37755.1    264.9   0.022569470   0.00582  -0.05720  -0.04821  -0.01509
   6   44891.0    222.8   0.001053374   0.00032   0.00005  -0.00583   0.01700
   7   41086.8    243.4   0.142094399   0.03990  -0.19945   0.00816   0.00749
   8   42401.7    235.8   0.002723486   0.00079   0.00340  -0.00808   0.02669
   9   45070.8    221.9   0.543947523   0.16756   0.31490   0.24906   0.07976
  10   47141.0    212.1   0.030929114   0.00996   0.07599   0.06418   0.00837

-------------------------------------------------------------------
                             CD SPECTRUM
-------------------------------------------------------------------
State  Energy     Wavelength     R         MX        MY        MZ   
       (cm-1)       (nm)     (1e40*cgs)   (au)      (au)      (au)  
-------------------------------------------------------------------
   1   29063.8    344.1     -2.31075  -0.00206  -0.00214   0.00388
   2   30931.8    323.3      0.73999   0.10371  -0.01495  -0.00652
   3   33543.1    298.1     -0.01708  -0.00412   0.05293  -0.15623
   4   36610.6    273.1     -0.55920  -0.00386   0.05014  -0.14822
   5   37755.1    264.9     -0.25017  -0.00665   0.09275  -0.27366
   6   44891.0    222.8      0.02723   0.00162   0.06958   0.02370
   7   41086.8    243.4     -2.19760   0.00099  -0.07074   0.20126
   8   42401.7    235.8      4.66565  -0.43373  -0.08077  -0.02020
   9   45070.8    221.9     27.50301   0.03256  -0.20825   0.46429
  10   47141.0    212.1    -30.84919  -0.08255   0.15629   0.18547

-------------------------------------------------------------------
         CD SPECTRUM VIA TRANSITION VELOCITY DIPOLE MOMENTS        
-------------------------------------------------------------------
State  Energy     Wavelength     R         MX        MY        MZ   
       (cm-1)       (nm)     (1e40*cgs)   (au)      (au)      (au)  
-------------------------------------------------------------------
   1   29063.8    344.1      1.19679  -0.00206  -0.00214   0.00388
   2   30931.8    323.3     -0.41608   0.10371  -0.01495  -0.00652
   3   33543.1    298.1     -0.00732  -0.00412   0.05293  -0.15623
   4   36610.6    273.1      0.03627  -0.00386   0.05014  -0.14822
   5   37755.1    264.9      0.10146  -0.00665   0.09275  -0.27366
   6   44891.0    222.8     -0.00640   0.00162   0.06958   0.02370
   7   41086.8    243.4      1.84641   0.00099  -0.07074   0.20126
   8   42401.7    235.8     -3.32101  -0.43373  -0.08077  -0.02020
   9   45070.8    221.9    -10.52248   0.03256  -0.20825   0.46429
  10   47141.0    212.1     11.65633  -0.08255   0.15629   0.18547

Total run time:     3153.332 sec

           *** ORCA-CIS/TD-DFT FINISHED WITHOUT ERROR ***

Maximum memory used throughout the entire CIS-calculation: 715.2 MB

-----------------------
CIS/TD-DFT TOTAL ENERGY
-----------------------

    E(SCF)  =   -704.839330248 Eh
    DE(CIS) =      0.132424239 Eh (Root  1)
    ----------------------------- ---------
    E(tot)  =   -704.706906009 Eh



-------------------------------------------------------------------------------
                          DFT DISPERSION CORRECTION                            
                                                                               
                              DFTD3 V3.1  Rev 1                                
                          USING Becke-Johnson damping                          
-------------------------------------------------------------------------------
The B2PLYP functional is recognized
Active option DFTDOPT                   ...         4   

molecular C6(AA) [au] = 8283.840614 


            DFT-D V3
 parameters
 s6 scaling factor         :     0.6400 
 a1 scaling factor         :     0.3065 
 s8 scaling factor         :     0.9147 
 a2 scaling factor         :     5.0570 
 ad hoc parameters k1-k3   :    16.0000     1.3333    -4.0000 

 Edisp/kcal,au: -16.317622323566  -0.026003783620 
 E6   /kcal   :  -9.040424270 
 E8   /kcal   :  -7.277198053 
 % E8         :  44.597171752 

-------------------------   ----------------
Dispersion correction           -0.026003784
-------------------------   ----------------


-------------------------   --------------------
FINAL SINGLE POINT ENERGY      -704.732909792180
-------------------------   --------------------


                            ***************************************
                            *     ORCA property calculations      *
                            ***************************************


  WARNING: The energy has been calculated at the MP2 level but the densities
           used in the property calculations are still SCF densities
           MP2 response densities have not been calculated 
           use %mp2 Density relaxed end
           or  %mp2 Density unrelaxed end

                                    ---------------------
                                    Active property flags
                                    ---------------------
   (+) Dipole Moment


------------------------------------------------------------------------------
                       ORCA ELECTRIC PROPERTIES CALCULATION
------------------------------------------------------------------------------

Dipole Moment Calculation                       ... on
Quadrupole Moment Calculation                   ... off
Polarizability Calculation                      ... off
GBWName                                         ... optpbed3-b2plyp-test-509_job2.gbw
Electron density                                ... optpbed3-b2plyp-test-509_job2.scfp
The origin for moment calculation is the CENTER OF MASS  = ( 0.446911,  0.520326  0.166617)

-------------
DIPOLE MOMENT
-------------
                                X             Y             Z
Electronic contribution:      2.48921       5.62023       1.84487
Nuclear contribution   :     -3.91208      -6.12603      -1.98839
                        -----------------------------------------
Total Dipole Moment    :     -1.42287      -0.50581      -0.14352
                        -----------------------------------------
Magnitude (a.u.)       :      1.51690
Magnitude (Debye)      :      3.85566



--------------------
Rotational spectrum 
--------------------
 
Rotational constants in cm-1:     0.041981     0.012588     0.009702 
Rotational constants in MHz :  1258.557406   377.388567   290.848619 

 Dipole components along the rotational axes: 
x,y,z [a.u.] :    -1.504762    -0.191497    -0.002963 
x,y,z [Debye]:    -3.824800    -0.486746    -0.007532 

 

Timings for individual modules:

Sum of individual times         ...     4155.262 sec (=  69.254 min)
GTO integral calculation        ...        3.481 sec (=   0.058 min)   0.1 %
SCF iterations                  ...      584.690 sec (=   9.745 min)  14.1 %
MP2 module                      ...      413.183 sec (=   6.886 min)   9.9 %
CIS module                      ...     3153.908 sec (=  52.565 min)  75.9 %



                             ****ORCA TERMINATED NORMALLY****
TOTAL RUN TIME: 0 days 2 hours 26 minutes 17 seconds 259 msec
