
                                 *****************
                                 * O   R   C   A *
                                 *****************

                                            #,                                       
                                            ###                                      
                                            ####                                     
                                            #####                                    
                                            ######                                   
                                           ########,                                 
                                     ,,################,,,,,                         
                               ,,#################################,,                 
                          ,,##########################################,,             
                       ,#########################################, ''#####,          
                    ,#############################################,,   '####,        
                  ,##################################################,,,,####,       
                ,###########''''           ''''###############################       
              ,#####''   ,,,,##########,,,,          '''####'''          '####       
            ,##' ,,,,###########################,,,                        '##       
           ' ,,###''''                  '''############,,,                           
         ,,##''                                '''############,,,,        ,,,,,,###''
      ,#''                                            '''#######################'''  
     '                                                          ''''####''''         
             ,#######,   #######,   ,#######,      ##                                
            ,#'     '#,  ##    ##  ,#'     '#,    #''#        ######   ,####,        
            ##       ##  ##   ,#'  ##            #'  '#       #        #'  '#        
            ##       ##  #######   ##           ,######,      #####,   #    #        
            '#,     ,#'  ##    ##  '#,     ,#' ,#      #,         ##   #,  ,#        
             '#######'   ##     ##  '#######'  #'      '#     #####' # '####'        



                  #######################################################
                  #                        -***-                        #
                  #          Department of theory and spectroscopy      #
                  #    Directorship and core code : Frank Neese         #
                  #        Max Planck Institute fuer Kohlenforschung    #
                  #                Kaiser Wilhelm Platz 1               #
                  #                 D-45470 Muelheim/Ruhr               #
                  #                      Germany                        #
                  #                                                     #
                  #                  All rights reserved                #
                  #                        -***-                        #
                  #######################################################


                         Program Version 5.0.2 -  RELEASE  -


 With contributions from (in alphabetic order):
   Daniel Aravena         : Magnetic Suceptibility
   Michael Atanasov       : Ab Initio Ligand Field Theory (pilot matlab implementation)
   Alexander A. Auer      : GIAO ZORA, VPT2 properties, NMR spectrum
   Ute Becker             : Parallelization
   Giovanni Bistoni       : ED, misc. LED, open-shell LED, HFLD
   Martin Brehm           : Molecular dynamics
   Dmytro Bykov           : SCF Hessian
   Vijay G. Chilkuri      : MRCI spin determinant printing, contributions to CSF-ICE
   Dipayan Datta          : RHF DLPNO-CCSD density
   Achintya Kumar Dutta   : EOM-CC, STEOM-CC
   Dmitry Ganyushin       : Spin-Orbit,Spin-Spin,Magnetic field MRCI
   Miquel Garcia          : C-PCM and meta-GGA Hessian, CC/C-PCM, Gaussian charge scheme
   Yang Guo               : DLPNO-NEVPT2, F12-NEVPT2, CIM, IAO-localization
   Andreas Hansen         : Spin unrestricted coupled pair/coupled cluster methods
   Benjamin Helmich-Paris : MC-RPA, TRAH-SCF, COSX integrals
   Lee Huntington         : MR-EOM, pCC
   Robert Izsak           : Overlap fitted RIJCOSX, COSX-SCS-MP3, EOM
   Marcus Kettner         : VPT2
   Christian Kollmar      : KDIIS, OOCD, Brueckner-CCSD(T), CCSD density, CASPT2, CASPT2-K
   Simone Kossmann        : Meta GGA functionals, TD-DFT gradient, OOMP2, MP2 Hessian
   Martin Krupicka        : Initial AUTO-CI
   Lucas Lang             : DCDCAS
   Marvin Lechner         : AUTO-CI (C++ implementation), FIC-MRCC
   Dagmar Lenk            : GEPOL surface, SMD
   Dimitrios Liakos       : Extrapolation schemes; Compound Job, initial MDCI parallelization
   Dimitrios Manganas     : Further ROCIS development; embedding schemes
   Dimitrios Pantazis     : SARC Basis sets
   Anastasios Papadopoulos: AUTO-CI, single reference methods and gradients
   Taras Petrenko         : DFT Hessian,TD-DFT gradient, ASA, ECA, R-Raman, ABS, FL, XAS/XES, NRVS
   Peter Pinski           : DLPNO-MP2, DLPNO-MP2 Gradient
   Christoph Reimann      : Effective Core Potentials
   Marius Retegan         : Local ZFS, SOC
   Christoph Riplinger    : Optimizer, TS searches, QM/MM, DLPNO-CCSD(T), (RO)-DLPNO pert. Triples
   Tobias Risthaus        : Range-separated hybrids, TD-DFT gradient, RPA, STAB
   Michael Roemelt        : Original ROCIS implementation
   Masaaki Saitow         : Open-shell DLPNO-CCSD energy and density
   Barbara Sandhoefer     : DKH picture change effects
   Avijit Sen             : IP-ROCIS
   Kantharuban Sivalingam : CASSCF convergence, NEVPT2, FIC-MRCI
   Bernardo de Souza      : ESD, SOC TD-DFT
   Georgi Stoychev        : AutoAux, RI-MP2 NMR, DLPNO-MP2 response
   Willem Van den Heuvel  : Paramagnetic NMR
   Boris Wezisla          : Elementary symmetry handling
   Frank Wennmohs         : Technical directorship


 We gratefully acknowledge several colleagues who have allowed us to
 interface, adapt or use parts of their codes:
   Stefan Grimme, W. Hujo, H. Kruse, P. Pracht,  : VdW corrections, initial TS optimization,
                  C. Bannwarth, S. Ehlert          DFT functionals, gCP, sTDA/sTD-DF
   Ed Valeev, F. Pavosevic, A. Kumar             : LibInt (2-el integral package), F12 methods
   Garnet Chan, S. Sharma, J. Yang, R. Olivares  : DMRG
   Ulf Ekstrom                                   : XCFun DFT Library
   Mihaly Kallay                                 : mrcc  (arbitrary order and MRCC methods)
   Jiri Pittner, Ondrej Demel                    : Mk-CCSD
   Frank Weinhold                                : gennbo (NPA and NBO analysis)
   Christopher J. Cramer and Donald G. Truhlar   : smd solvation model
   Lars Goerigk                                  : TD-DFT with DH, B97 family of functionals
   V. Asgeirsson, H. Jonsson                     : NEB implementation
   FAccTs GmbH                                   : IRC, NEB, NEB-TS, DLPNO-Multilevel, CI-OPT
                                                   MM, QMMM, 2- and 3-layer-ONIOM, Crystal-QMMM,
                                                   LR-CPCM, SF, NACMEs, symmetry and pop. for TD-DFT,
                                                   nearIR, NL-DFT gradient (VV10), updates on ESD,
                                                   ML-optimized integration grids
   S Lehtola, MJT Oliveira, MAL Marques          : LibXC Library
   Liviu Ungur et al                             : ANISO software


 Your calculation uses the libint2 library for the computation of 2-el integrals
 For citations please refer to: http://libint.valeyev.net

 Your ORCA version has been built with support for libXC version: 5.1.0
 For citations please refer to: https://tddft.org/programs/libxc/

 This ORCA versions uses:
   CBLAS   interface :  Fast vector & matrix operations
   LAPACKE interface :  Fast linear algebra routines
   SCALAPACK package :  Parallel linear algebra routines
   Shared memory     :  Shared parallel matrices
   BLAS/LAPACK       :  OpenBLAS 0.3.15  USE64BITINT DYNAMIC_ARCH NO_AFFINITY Haswell SINGLE_THREADED
        Core in use  :  Haswell
   Copyright (c) 2011-2014, The OpenBLAS Project


Your calculation utilizes the atom-pairwise dispersion correction
with the Becke-Johnson damping scheme (D3BJ)
Cite in your paper:
S.Grimme, S.Ehrlich, L.Goerigk, J Comput Chem, (2011), 32, 1456–1465 
S.Grimme, J.Antony, S.Ehrlich and H.Krieg, J.Chem.Phys., 132, (2010), 154104 
   

Your calculation utilizes the SMD solvation module
Please cite in your paper:
A.V. Marenich, C.J. Cramer, D.G. Truhlar J. Phys. Chem. B, 113, (2009), 6378 

================================================================================

----- Orbital basis set information -----
Your calculation utilizes the basis: aug-cc-pVTZ 
    H, B-Ne : Obtained from the ccRepo (grant-hill.group.shef.ac.uk/ccrepo) Feb. 2017
              R. A. Kendall, T. H. Dunning, Jr., R. J. Harrison, J. Chem. Phys. 96, 6796 (1992)
         He : Obtained from the ccRepo (grant-hill.group.shef.ac.uk/ccrepo) Feb. 2017
              D. E. Woon, T. H. Dunning, Jr., J. Chem. Phys. 100, 2975 (1994)
  Li-Be, Na : Obtained from the ccRepo (grant-hill.group.shef.ac.uk/ccrepo) Feb. 2017
              B. P. Prascher, D. E. Woon, K. A. Peterson, T. H. Dunning, Jr., A. K. Wilson, Theor. Chem. Acc. 128, 69 (2011)
         Mg : Obtained from the Peterson Research Group Website (tyr0.chem.wsu.edu/~kipeters) Feb. 2017
              B. P. Prascher, D. E. Woon, K. A. Peterson, T. H. Dunning, Jr., A. K. Wilson, Theor. Chem. Acc. 128, 69 (2011)
      Al-Ar : Obtained from the ccRepo (grant-hill.group.shef.ac.uk/ccrepo) Feb. 2017
              D. E. Woon, T. H. Dunning, Jr., J. Chem. Phys. 98, 1358 (1993)
      Sc-Zn : Obtained from the ccRepo (grant-hill.group.shef.ac.uk/ccrepo) Feb. 2017
              N. B. Balabanov, K. A. Peterson, J. Chem. Phys. 123, 064107 (2005)
              N. B. Balabanov, K. A. Peterson, J. Chem. Phys. 125, 074110 (2006)
      Ga-Kr : Obtained from the ccRepo (grant-hill.group.shef.ac.uk/ccrepo) Feb. 2017
              A. K. Wilson, D. E. Woon, K. A. Peterson, T. H. Dunning, Jr., J. Chem. Phys. 110, 7667 (1999)
     Ag, Au : Obtained from the Peterson Research Group Website (tyr0.chem.wsu.edu/~kipeters) Feb. 2017
              K. A. Peterson, C. Puzzarini, Theor. Chem. Acc. 114, 283 (2005)

The basis set includes element-specific modifications.

Your calculation utilizes the basis: cc-pVTZ 
       H, B-Ne : Obtained from the ccRepo (grant-hill.group.shef.ac.uk/ccrepo) Feb. 2017
                 T. H. Dunning, Jr., J. Chem. Phys. 90, 1007 (1989)
            He : Obtained from the ccRepo (grant-hill.group.shef.ac.uk/ccrepo) Feb. 2017
                 D. E. Woon, T. H. Dunning, Jr., J. Chem. Phys. 100, 2975 (1994)
  Li-Be, Na-Mg : Obtained from the ccRepo (grant-hill.group.shef.ac.uk/ccrepo) Feb. 2017
                 B. P. Prascher, D. E. Woon, K. A. Peterson, T. H. Dunning, Jr., A. K. Wilson, Theor. Chem. Acc. 128, 69 (2011)
         Al-Ar : Obtained from the ccRepo (grant-hill.group.shef.ac.uk/ccrepo) Feb. 2017
                 D. E. Woon, T. H. Dunning, Jr., J. Chem. Phys. 98, 1358 (1993)
            Ca : Obtained from the Peterson Research Group Website (tyr0.chem.wsu.edu/~kipeters) Feb. 2017
                 J. Koput, K. A. Peterson, J. Phys. Chem. 106, 9595 (2002)
         Sc-Zn : Obtained from the ccRepo (grant-hill.group.shef.ac.uk/ccrepo) Feb. 2017
                 N. B. Balabanov, K. A. Peterson, J. Chem. Phys. 123, 064107 (2005)
                 N. B. Balabanov, K. A. Peterson, J. Chem. Phys. 125, 074110 (2006)
         Ga-Kr : Obtained from the ccRepo (grant-hill.group.shef.ac.uk/ccrepo) Feb. 2017
                 A. K. Wilson, D. E. Woon, K. A. Peterson, T. H. Dunning, Jr., J. Chem. Phys. 110, 7667 (1999)
             Y : Obtained from the ccRepo (grant-hill.group.shef.ac.uk/ccrepo) Feb. 2017
                 K. A. Peterson, D. Figgen, M. Dolg, H. Stoll, J. Chem. Phys. 126, 124101 (2007)
        Ag, Au : Obtained from the Peterson Research Group Website (tyr0.chem.wsu.edu/~kipeters) Feb. 2017
                 K. A. Peterson, C. Puzzarini, Theor. Chem. Acc. 114, 283 (2005)

----- AuxJ basis set information -----
Your calculation utilizes the auxiliary basis: aug-cc-pVTZ/JK 
  H, B-F, Al-Cl, Ga-Br : Obtained from the TURBOMOLE 7.0 basis set library

The basis set includes element-specific modifications.

Your calculation utilizes the auxiliary basis: cc-pVTZ/JK 
  H, B-F, Al-Cl, Ga-Br : Obtained from the TURBOMOLE 7.0 basis set library

----- AuxC basis set information -----
Your calculation utilizes the auxiliary basis: aug-cc-pVTZ/C 
  H-He, B-F, Al-Ar, Ga-Kr : Obtained from the EMSL Basis Set Exchange (bse.pnl.gov) Feb. 2017
                            F. Weigend, A. Kohn, C. Hattig, J. Chem. Phys. 116, 3175 (2002)
                   Be, Mg : Obtained from the TURBOMOLE 7.0 basis set library
                            C. Haettig, Phys. Chem. Chem. Phys. 7, 59 (2005)
                       Ne : Obtained from the EMSL Basis Set Exchange (bse.pnl.gov) Feb. 2017
                            C. Haettig, Phys. Chem. Chem. Phys. 7, 59 (2005)
                            F. Weigend, A. Kohn, C. Hattig, J. Chem. Phys. 116, 3175 (2002)
                    Sc-Zn : Obtained from the EMSL Basis Set Exchange (bse.pnl.gov) Feb. 2017
                            J. G. Hill, J. A. Platts, J. Chem. Phys. 128, 044104 (2008)

The basis set includes element-specific modifications.

Your calculation utilizes the auxiliary basis: cc-pVTZ/C 
  Obtained from the EMSL Basis Set Exchange (bse.pnl.gov) Feb. 2017
  H-He, B-F, Al-Ar, Ga-Kr : F. Weigend, A. Kohn, C. Hattig, J. Chem. Phys. 116, 3175 (2002)
             Li-Be, Na-Mg : C. Haettig, Phys. Chem. Chem. Phys. 7, 59 (2005)
                       Ne : C. Haettig, Phys. Chem. Chem. Phys. 7, 59 (2005)
                            F. Weigend, A. Kohn, C. Hattig, J. Chem. Phys. 116, 3175 (2002)
                    Sc-Zn : J. G. Hill, J. A. Platts, J. Chem. Phys. 128, 044104 (2008)

================================================================================
                                        WARNINGS
                       Please study these warnings very carefully!
================================================================================


WARNING: Geometry Optimization
  ===> : Switching off AutoStart
         For restart on a previous wavefunction, please use MOREAD

INFO   : the flag for use of the SHARK integral package has been found!



***************************************
The coordinates will be read from file: 
***************************************


Your calculation utilizes the atom-pairwise dispersion correction
with the Becke-Johnson damping scheme (D3BJ)
Cite in your paper:
S.Grimme, S.Ehrlich, L.Goerigk, J Comput Chem, (2011), 32, 1456–1465 
S.Grimme, J.Antony, S.Ehrlich and H.Krieg, J.Chem.Phys., 132, (2010), 154104 
   

Your calculation utilizes the SMD solvation module
Please cite in your paper:
A.V. Marenich, C.J. Cramer, D.G. Truhlar J. Phys. Chem. B, 113, (2009), 6378 

================================================================================

----- Orbital basis set information -----
Your calculation utilizes the basis: aug-cc-pVTZ 
    H, B-Ne : Obtained from the ccRepo (grant-hill.group.shef.ac.uk/ccrepo) Feb. 2017
              R. A. Kendall, T. H. Dunning, Jr., R. J. Harrison, J. Chem. Phys. 96, 6796 (1992)
         He : Obtained from the ccRepo (grant-hill.group.shef.ac.uk/ccrepo) Feb. 2017
              D. E. Woon, T. H. Dunning, Jr., J. Chem. Phys. 100, 2975 (1994)
  Li-Be, Na : Obtained from the ccRepo (grant-hill.group.shef.ac.uk/ccrepo) Feb. 2017
              B. P. Prascher, D. E. Woon, K. A. Peterson, T. H. Dunning, Jr., A. K. Wilson, Theor. Chem. Acc. 128, 69 (2011)
         Mg : Obtained from the Peterson Research Group Website (tyr0.chem.wsu.edu/~kipeters) Feb. 2017
              B. P. Prascher, D. E. Woon, K. A. Peterson, T. H. Dunning, Jr., A. K. Wilson, Theor. Chem. Acc. 128, 69 (2011)
      Al-Ar : Obtained from the ccRepo (grant-hill.group.shef.ac.uk/ccrepo) Feb. 2017
              D. E. Woon, T. H. Dunning, Jr., J. Chem. Phys. 98, 1358 (1993)
      Sc-Zn : Obtained from the ccRepo (grant-hill.group.shef.ac.uk/ccrepo) Feb. 2017
              N. B. Balabanov, K. A. Peterson, J. Chem. Phys. 123, 064107 (2005)
              N. B. Balabanov, K. A. Peterson, J. Chem. Phys. 125, 074110 (2006)
      Ga-Kr : Obtained from the ccRepo (grant-hill.group.shef.ac.uk/ccrepo) Feb. 2017
              A. K. Wilson, D. E. Woon, K. A. Peterson, T. H. Dunning, Jr., J. Chem. Phys. 110, 7667 (1999)
     Ag, Au : Obtained from the Peterson Research Group Website (tyr0.chem.wsu.edu/~kipeters) Feb. 2017
              K. A. Peterson, C. Puzzarini, Theor. Chem. Acc. 114, 283 (2005)

The basis set includes element-specific modifications.

Your calculation utilizes the basis: cc-pVTZ 
       H, B-Ne : Obtained from the ccRepo (grant-hill.group.shef.ac.uk/ccrepo) Feb. 2017
                 T. H. Dunning, Jr., J. Chem. Phys. 90, 1007 (1989)
            He : Obtained from the ccRepo (grant-hill.group.shef.ac.uk/ccrepo) Feb. 2017
                 D. E. Woon, T. H. Dunning, Jr., J. Chem. Phys. 100, 2975 (1994)
  Li-Be, Na-Mg : Obtained from the ccRepo (grant-hill.group.shef.ac.uk/ccrepo) Feb. 2017
                 B. P. Prascher, D. E. Woon, K. A. Peterson, T. H. Dunning, Jr., A. K. Wilson, Theor. Chem. Acc. 128, 69 (2011)
         Al-Ar : Obtained from the ccRepo (grant-hill.group.shef.ac.uk/ccrepo) Feb. 2017
                 D. E. Woon, T. H. Dunning, Jr., J. Chem. Phys. 98, 1358 (1993)
            Ca : Obtained from the Peterson Research Group Website (tyr0.chem.wsu.edu/~kipeters) Feb. 2017
                 J. Koput, K. A. Peterson, J. Phys. Chem. 106, 9595 (2002)
         Sc-Zn : Obtained from the ccRepo (grant-hill.group.shef.ac.uk/ccrepo) Feb. 2017
                 N. B. Balabanov, K. A. Peterson, J. Chem. Phys. 123, 064107 (2005)
                 N. B. Balabanov, K. A. Peterson, J. Chem. Phys. 125, 074110 (2006)
         Ga-Kr : Obtained from the ccRepo (grant-hill.group.shef.ac.uk/ccrepo) Feb. 2017
                 A. K. Wilson, D. E. Woon, K. A. Peterson, T. H. Dunning, Jr., J. Chem. Phys. 110, 7667 (1999)
             Y : Obtained from the ccRepo (grant-hill.group.shef.ac.uk/ccrepo) Feb. 2017
                 K. A. Peterson, D. Figgen, M. Dolg, H. Stoll, J. Chem. Phys. 126, 124101 (2007)
        Ag, Au : Obtained from the Peterson Research Group Website (tyr0.chem.wsu.edu/~kipeters) Feb. 2017
                 K. A. Peterson, C. Puzzarini, Theor. Chem. Acc. 114, 283 (2005)

----- AuxJ basis set information -----
Your calculation utilizes the auxiliary basis: aug-cc-pVTZ/JK 
  H, B-F, Al-Cl, Ga-Br : Obtained from the TURBOMOLE 7.0 basis set library

The basis set includes element-specific modifications.

Your calculation utilizes the auxiliary basis: cc-pVTZ/JK 
  H, B-F, Al-Cl, Ga-Br : Obtained from the TURBOMOLE 7.0 basis set library

----- AuxC basis set information -----
Your calculation utilizes the auxiliary basis: aug-cc-pVTZ/C 
  H-He, B-F, Al-Ar, Ga-Kr : Obtained from the EMSL Basis Set Exchange (bse.pnl.gov) Feb. 2017
                            F. Weigend, A. Kohn, C. Hattig, J. Chem. Phys. 116, 3175 (2002)
                   Be, Mg : Obtained from the TURBOMOLE 7.0 basis set library
                            C. Haettig, Phys. Chem. Chem. Phys. 7, 59 (2005)
                       Ne : Obtained from the EMSL Basis Set Exchange (bse.pnl.gov) Feb. 2017
                            C. Haettig, Phys. Chem. Chem. Phys. 7, 59 (2005)
                            F. Weigend, A. Kohn, C. Hattig, J. Chem. Phys. 116, 3175 (2002)
                    Sc-Zn : Obtained from the EMSL Basis Set Exchange (bse.pnl.gov) Feb. 2017
                            J. G. Hill, J. A. Platts, J. Chem. Phys. 128, 044104 (2008)

The basis set includes element-specific modifications.

Your calculation utilizes the auxiliary basis: cc-pVTZ/C 
  Obtained from the EMSL Basis Set Exchange (bse.pnl.gov) Feb. 2017
  H-He, B-F, Al-Ar, Ga-Kr : F. Weigend, A. Kohn, C. Hattig, J. Chem. Phys. 116, 3175 (2002)
             Li-Be, Na-Mg : C. Haettig, Phys. Chem. Chem. Phys. 7, 59 (2005)
                       Ne : C. Haettig, Phys. Chem. Chem. Phys. 7, 59 (2005)
                            F. Weigend, A. Kohn, C. Hattig, J. Chem. Phys. 116, 3175 (2002)
                    Sc-Zn : J. G. Hill, J. A. Platts, J. Chem. Phys. 128, 044104 (2008)

================================================================================
                                        WARNINGS
                       Please study these warnings very carefully!
================================================================================

INFO   : Checking CIS options ...
  ===> : (D) CORRECTION FOUND - SETTING MODE=3
  ===> : JK MODE FOUND - ACTIVATING RI-MP2 CODE
  ===> : MP2 AND CIS FOUND - CHECKING
WARNING: CIS(D) and MP2 runs must have the same orbital window
  ===> : adjusting orbital windows

WARNING: No MP2 level density has been requested!
         To caclulate MP2 level properties use
         %mp2 Density relaxed end
         or
         %mp2 Density unrelaxed end
         Otherwise for double-hybrid DFT only the energy is correct!

WARNING: The frozen-core approximation is turned on by default for 
         the MP2 part of double-hybrid DFT.

INFO   : the flag for use of the SHARK integral package has been found!

================================================================================
                                       INPUT FILE
================================================================================
NAME = optpbed3-b2plyp-test-531.inp
|  1> ! pbe0 d3bj aug-cc-PVTZ RIJCOSX Opt
|  2> %maxcore 4000
|  3> %basis
|  4>  AuxJ "aug-cc-PVTZ/JK"
|  5>  AuxC "aug-cc-PVTZ/C"
|  6>  newGTO H "cc-PVTZ" end
|  7>  newAuxJGTO H "cc-PVTZ/JK" end
|  8>  newAuxCGTO H "cc-PVTZ/C" end
|  9> end
| 10> %cpcm
| 11>  SMD true
| 12>  SMDsolvent "cyclohexane"
| 13> end
| 14> %pal nprocs 4 end
| 15> * xyz 0 1
| 16> C         -0.02960        0.69030        1.80130
| 17> C         -0.31730        0.18550        0.41920
| 18> C          0.61140       -0.24340       -0.45690
| 19> C          2.05450       -0.25220       -0.29630
| 20> C          2.78840       -1.30050       -0.85760
| 21> C          4.16070       -1.35600       -0.72910
| 22> C          4.85580       -0.35410       -0.06100
| 23> C          6.34390       -0.41680        0.09310
| 24> C          4.13190        0.70850        0.46750
| 25> C          2.75650        0.76190        0.35740
| 26> C         -1.71610        0.13800        0.07250
| 27> N         -2.66720        0.48120        0.86370
| 28> C         -3.89740        0.35800        0.30300
| 29> C         -5.11100        0.65510        0.91910
| 30> C         -6.27870        0.47600        0.20980
| 31> C         -6.25980        0.00580       -1.10240
| 32> C         -5.06940       -0.29600       -1.73460
| 33> C         -3.89220       -0.11800       -1.02910
| 34> S         -2.25920       -0.40320       -1.54080
| 35> H         -0.83060        0.37970        2.46760
| 36> H         -0.00230        1.77920        1.81100
| 37> H          0.92060        0.30620        2.16280
| 38> H          0.26220       -0.67350       -1.38950
| 39> H          2.26600       -2.08630       -1.38450
| 40> H          4.70480       -2.18450       -1.16030
| 41> H          6.59960       -0.81990        1.07390
| 42> H          6.78730       -1.06030       -0.66290
| 43> H          6.78340        0.57550        0.01580
| 44> H          4.65680        1.50920        0.96940
| 45> H          2.22690        1.61870        0.74210
| 46> H         -5.11230        1.01800        1.93450
| 47> H         -7.22610        0.70300        0.67550
| 48> H         -7.19020       -0.12480       -1.63430
| 49> H         -5.05120       -0.66020       -2.75010
| 50> *
| 51> 
| 52> 
| 53> $new_job
| 54> ! b2plyp aug-cc-PVTZ RIJCOSX SP
| 55> %maxcore 4000
| 56> %basis
| 57>  AuxJ "aug-cc-PVTZ/JK"
| 58>  AuxC "aug-cc-PVTZ/C"
| 59>  newGTO H "cc-PVTZ" end
| 60>  newAuxJGTO H "cc-PVTZ/JK" end
| 61>  newAuxCGTO H "cc-PVTZ/C" end
| 62> end
| 63> %cpcm
| 64>  SMD true
| 65>  SMDsolvent "cyclohexane"
| 66> end
| 67> %pal nprocs 4 end
| 68> %tddft
| 69>  nroots 10
| 70>  maxdim 7
| 71> end
| 72> * xyzfile 0 1
| 73> 
| 74>                          ****END OF INPUT****
================================================================================


                 $$$$$$$$$$$$$$$$$$$$$$$$$$$$$$$$$$$$$$$$$$$$$$ 
                 $ THERE ARE  2 JOBS TO BE PROCESSED THIS RUN $
                 $$$$$$$$$$$$$$$$$$$$$$$$$$$$$$$$$$$$$$$$$$$$$$ 




                 $$$$$$$$$$$$$$$$  JOB NUMBER  1 $$$$$$$$$$$$$$


                       *****************************
                       * Geometry Optimization Run *
                       *****************************

Geometry optimization settings:
Update method            Update   .... BFGS
Choice of coordinates    CoordSys .... Z-matrix Internals
Initial Hessian          InHess   .... Almoef's Model

Convergence Tolerances:
Energy Change            TolE     ....  5.0000e-06 Eh
Max. Gradient            TolMAXG  ....  3.0000e-04 Eh/bohr
RMS Gradient             TolRMSG  ....  1.0000e-04 Eh/bohr
Max. Displacement        TolMAXD  ....  4.0000e-03 bohr
RMS Displacement         TolRMSD  ....  2.0000e-03 bohr
Strict Convergence                ....  False
------------------------------------------------------------------------------
                        ORCA OPTIMIZATION COORDINATE SETUP
------------------------------------------------------------------------------

The optimization will be done in new redundant internal coordinates
Making redundant internal coordinates   ...  (new redundants) done
Evaluating the initial hessian          ...  (Almloef) done
Evaluating the coordinates              ...  done
Calculating the B-matrix                .... done
Calculating the G-matrix                .... done
Diagonalizing the G-matrix              .... done
Small eigenvalue found = 2.327e-03
Small eigenvalue found = 7.992e-03
Small eigenvalue found = 1.633e-02
Small eigenvalue found = 2.919e-02
Small eigenvalue found = 2.975e-02
The first mode is                       ....   79
The number of degrees of freedom        ....   96

    -----------------------------------------------------------------
                    Redundant Internal Coordinates


    -----------------------------------------------------------------
         Definition                    Initial Value    Approx d2E/dq
    -----------------------------------------------------------------
      1. B(C   1,C   0)                  1.4993         0.418229   
      2. B(C   2,C   1)                  1.3468         0.732134   
      3. B(C   3,C   2)                  1.4520         0.497467   
      4. B(C   4,C   3)                  1.3974         0.608142   
      5. B(C   5,C   4)                  1.3794         0.649558   
      6. B(C   6,C   5)                  1.3904         0.623786   
      7. B(C   7,C   6)                  1.4974         0.421148   
      8. B(C   8,C   6)                  1.3901         0.624497   
      9. B(C   9,C   8)                  1.3808         0.646196   
     10. B(C   9,C   3)                  1.3959         0.611408   
     11. B(C  10,C   1)                  1.4419         0.516324   
     12. B(N  11,C  10)                  1.2839         0.826354   
     13. B(C  12,N  11)                  1.3576         0.630434   
     14. B(C  13,C  12)                  1.3931         0.617766   
     15. B(C  14,C  13)                  1.3779         0.653110   
     16. B(C  15,C  14)                  1.3940         0.615619   
     17. B(C  16,C  15)                  1.3812         0.645240   
     18. B(C  17,C  16)                  1.3839         0.638926   
     19. B(C  17,C  12)                  1.4146         0.570809   
     20. B(S  18,C  17)                  1.7349         0.474511   
     21. B(S  18,C  10)                  1.7862         0.392969   
     22. B(H  19,C   0)                  1.0872         0.363808   
     23. B(H  20,C   0)                  1.0893         0.361047   
     24. B(H  21,C   0)                  1.0868         0.364382   
     25. B(H  22,C   2)                  1.0847         0.367121   
     26. B(H  23,C   4)                  1.0807         0.372555   
     27. B(H  24,C   5)                  1.0809         0.372313   
     28. B(H  25,C   7)                  1.0908         0.359046   
     29. B(H  26,C   7)                  1.0873         0.363683   
     30. B(H  27,C   7)                  1.0880         0.362724   
     31. B(H  28,C   8)                  1.0810         0.372216   
     32. B(H  29,C   9)                  1.0782         0.376014   
     33. B(H  30,C  13)                  1.0783         0.375912   
     34. B(H  31,C  14)                  1.0798         0.373847   
     35. B(H  32,C  15)                  1.0796         0.374072   
     36. B(H  33,C  16)                  1.0790         0.374967   
     37. A(C   1,C   0,H  19)          109.1105         0.330970   
     38. A(H  19,C   0,H  20)          107.3730         0.291428   
     39. A(H  20,C   0,H  21)          109.1735         0.291501   
     40. A(C   1,C   0,H  21)          110.8190         0.331057   
     41. A(H  19,C   0,H  21)          109.8362         0.291850   
     42. A(C   1,C   0,H  20)          110.4627         0.330554   
     43. A(C   0,C   1,C  10)          114.7654         0.391842   
     44. A(C   2,C   1,C  10)          120.1342         0.432761   
     45. A(C   0,C   1,C   2)          125.0683         0.416752   
     46. A(C   3,C   2,H  22)          114.3699         0.341179   
     47. A(C   1,C   2,H  22)          117.6156         0.364228   
     48. A(C   1,C   2,C   3)          127.9722         0.429878   
     49. A(C   4,C   3,C   9)          117.9691         0.431478   
     50. A(C   2,C   3,C   4)          118.8222         0.415859   
     51. A(C   2,C   3,C   9)          123.1752         0.416255   
     52. A(C   5,C   4,H  23)          119.8042         0.357766   
     53. A(C   3,C   4,H  23)          119.1720         0.353788   
     54. A(C   3,C   4,C   5)          121.0149         0.436202   
     55. A(C   4,C   5,C   6)          120.8707         0.438203   
     56. A(C   6,C   5,H  24)          119.4940         0.355275   
     57. A(C   4,C   5,H  24)          119.6332         0.357727   
     58. A(C   5,C   6,C   8)          118.2382         0.435108   
     59. A(C   5,C   6,C   7)          121.0707         0.405582   
     60. A(C   7,C   6,C   8)          120.6905         0.405663   
     61. A(C   6,C   7,H  27)          110.8512         0.331188   
     62. A(H  25,C   7,H  26)          108.1122         0.291158   
     63. A(C   6,C   7,H  26)          111.0080         0.331333   
     64. A(C   6,C   7,H  25)          109.9362         0.330630   
     65. A(H  26,C   7,H  27)          109.0041         0.291625   
     66. A(H  25,C   7,H  27)          107.8319         0.291037   
     67. A(C   9,C   8,H  28)          119.4746         0.357395   
     68. A(C   6,C   8,H  28)          119.3305         0.355328   
     69. A(C   6,C   8,C   9)          121.1942         0.437884   
     70. A(C   8,C   9,H  29)          119.4409         0.358013   
     71. A(C   3,C   9,H  29)          119.8258         0.354664   
     72. A(C   3,C   9,C   8)          120.6751         0.436215   
     73. A(C   1,C  10,N  11)          124.1712         0.439403   
     74. A(N  11,C  10,S  18)          114.3523         0.441532   
     75. A(C   1,C  10,S  18)          121.4738         0.408565   
     76. A(C  10,N  11,C  12)          113.1111         0.452586   
     77. A(C  13,C  12,C  17)          119.4346         0.427393   
     78. A(N  11,C  12,C  17)          114.5911         0.426154   
     79. A(N  11,C  12,C  13)          125.9742         0.432241   
     80. A(C  12,C  13,H  30)          119.2935         0.355271   
     81. A(C  12,C  13,C  14)          118.8732         0.437868   
     82. A(C  14,C  13,H  30)          121.8333         0.358645   
     83. A(C  15,C  14,H  31)          119.2598         0.354729   
     84. A(C  13,C  14,H  31)          119.6163         0.358309   
     85. A(C  13,C  14,C  15)          121.1240         0.437593   
     86. A(C  14,C  15,H  32)          119.5290         0.354766   
     87. A(C  16,C  15,H  32)          119.3918         0.357608   
     88. A(C  14,C  15,C  16)          121.0792         0.436638   
     89. A(C  17,C  16,H  33)          120.5877         0.357155   
     90. A(C  15,C  16,H  33)          121.2695         0.357753   
     91. A(C  15,C  16,C  17)          118.1427         0.439574   
     92. A(C  16,C  17,S  18)          128.9888         0.438974   
     93. A(C  12,C  17,S  18)          109.6650         0.430157   
     94. A(C  12,C  17,C  16)          121.3462         0.429983   
     95. A(C  10,S  18,C  17)           88.2804         0.424525   
     96. D(C   2,C   1,C   0,H  21)    -23.1815         0.012937   
     97. D(C   2,C   1,C   0,H  19)   -144.2431         0.012937   
     98. D(C  10,C   1,C   0,H  21)    154.7479         0.012937   
     99. D(C  10,C   1,C   0,H  19)     33.6863         0.012937   
    100. D(C   2,C   1,C   0,H  20)     97.9444         0.012937   
    101. D(C  10,C   1,C   0,H  20)    -84.1262         0.012937   
    102. D(H  22,C   2,C   1,C  10)     -3.6336         0.038053   
    103. D(C   3,C   2,C   1,C   0)     -3.2911         0.038053   
    104. D(C   3,C   2,C   1,C  10)    178.8829         0.038053   
    105. D(H  22,C   2,C   1,C   0)    174.1924         0.038053   
    106. D(C   9,C   3,C   2,H  22)    145.2936         0.016855   
    107. D(C   4,C   3,C   2,H  22)    -32.5565         0.016855   
    108. D(C   9,C   3,C   2,C   1)    -37.1544         0.016855   
    109. D(C   4,C   3,C   2,C   1)    144.9956         0.016855   
    110. D(C   5,C   4,C   3,C   2)   -179.8024         0.025534   
    111. D(H  23,C   4,C   3,C   9)   -178.8494         0.025534   
    112. D(H  23,C   4,C   3,C   2)     -0.8868         0.025534   
    113. D(C   5,C   4,C   3,C   9)      2.2350         0.025534   
    114. D(H  24,C   5,C   4,H  23)      0.2308         0.029375   
    115. D(H  24,C   5,C   4,C   3)    179.1396         0.029375   
    116. D(C   6,C   5,C   4,H  23)    179.7076         0.029375   
    117. D(C   6,C   5,C   4,C   3)     -1.3836         0.029375   
    118. D(C   8,C   6,C   5,H  24)    179.1294         0.026945   
    119. D(C   8,C   6,C   5,C   4)     -0.3481         0.026945   
    120. D(C   7,C   6,C   5,H  24)     -1.1450         0.026945   
    121. D(C   7,C   6,C   5,C   4)    179.3775         0.026945   
    122. D(H  26,C   7,C   6,C   8)   -158.3425         0.013113   
    123. D(H  26,C   7,C   6,C   5)     21.9387         0.013113   
    124. D(H  25,C   7,C   6,C   8)     82.0844         0.013113   
    125. D(H  27,C   7,C   6,C   5)    143.2400         0.013113   
    126. D(H  25,C   7,C   6,C   5)    -97.6344         0.013113   
    127. D(H  27,C   7,C   6,C   8)    -37.0412         0.013113   
    128. D(H  28,C   8,C   6,C   7)      1.7506         0.027011   
    129. D(H  28,C   8,C   6,C   5)   -178.5228         0.027011   
    130. D(C   9,C   8,C   6,C   7)   -178.5435         0.027011   
    131. D(C   9,C   8,C   6,C   5)      1.1831         0.027011   
    132. D(H  29,C   9,C   8,H  28)      2.1894         0.029050   
    133. D(C   3,C   9,C   8,H  28)    179.4091         0.029050   
    134. D(C   3,C   9,C   8,C   6)     -0.2964         0.029050   
    135. D(H  29,C   9,C   3,C   4)    175.8087         0.025825   
    136. D(H  29,C   9,C   3,C   2)     -2.0586         0.025825   
    137. D(H  29,C   9,C   8,C   6)   -177.5161         0.029050   
    138. D(C   8,C   9,C   3,C   4)     -1.4003         0.025825   
    139. D(C   8,C   9,C   3,C   2)   -179.2676         0.025825   
    140. D(S  18,C  10,C   1,C   2)     -3.2130         0.018176   
    141. D(S  18,C  10,C   1,C   0)    178.7465         0.018176   
    142. D(N  11,C  10,C   1,C   2)    177.4192         0.018176   
    143. D(N  11,C  10,C   1,C   0)     -0.6213         0.018176   
    144. D(C  12,N  11,C  10,S  18)      0.0710         0.053046   
    145. D(C  12,N  11,C  10,C   1)    179.4791         0.053046   
    146. D(C  17,C  12,N  11,C  10)     -0.0515         0.029232   
    147. D(C  13,C  12,N  11,C  10)   -179.9980         0.029232   
    148. D(H  30,C  13,C  12,C  17)   -179.9865         0.026397   
    149. D(H  30,C  13,C  12,N  11)     -0.0424         0.026397   
    150. D(C  14,C  13,C  12,C  17)      0.0003         0.026397   
    151. D(C  14,C  13,C  12,N  11)    179.9444         0.026397   
    152. D(H  31,C  14,C  13,H  30)      0.0161         0.029720   
    153. D(H  31,C  14,C  13,C  12)   -179.9703         0.029720   
    154. D(C  15,C  14,C  13,H  30)   -179.9942         0.029720   
    155. D(C  15,C  14,C  13,C  12)      0.0194         0.029720   
    156. D(H  32,C  15,C  14,C  13)   -179.9875         0.026203   
    157. D(C  16,C  15,C  14,H  31)    179.9891         0.026203   
    158. D(C  16,C  15,C  14,C  13)     -0.0007         0.026203   
    159. D(H  32,C  15,C  14,H  31)      0.0022         0.026203   
    160. D(H  33,C  16,C  15,H  32)     -0.0183         0.028959   
    161. D(H  33,C  16,C  15,C  14)    179.9948         0.028959   
    162. D(C  17,C  16,C  15,H  32)    179.9494         0.028959   
    163. D(C  17,C  16,C  15,C  14)     -0.0375         0.028959   
    164. D(S  18,C  17,C  16,H  33)      0.0280         0.028357   
    165. D(S  18,C  17,C  16,C  15)   -179.9399         0.028357   
    166. D(C  12,C  17,C  16,H  33)   -179.9747         0.028357   
    167. D(C  12,C  17,C  16,C  15)      0.0574         0.028357   
    168. D(S  18,C  17,C  12,C  13)    179.9583         0.022353   
    169. D(S  18,C  17,C  12,N  11)      0.0080         0.022353   
    170. D(C  16,C  17,C  12,C  13)     -0.0395         0.022353   
    171. D(C  16,C  17,C  12,N  11)   -179.9898         0.022353   
    172. D(C  10,S  18,C  17,C  16)   -179.9782         0.004821   
    173. D(C  10,S  18,C  17,C  12)      0.0242         0.004821   
    174. D(C  17,S  18,C  10,N  11)     -0.0557         0.003741   
    175. D(C  17,S  18,C  10,C   1)   -179.4816         0.003741   
    -----------------------------------------------------------------

Number of atoms                         .... 34
Number of degrees of freedom            .... 175

         *************************************************************
         *                GEOMETRY OPTIMIZATION CYCLE   1            *
         *************************************************************
---------------------------------
CARTESIAN COORDINATES (ANGSTROEM)
---------------------------------
  C     -0.029600    0.690300    1.801300
  C     -0.317300    0.185500    0.419200
  C      0.611400   -0.243400   -0.456900
  C      2.054500   -0.252200   -0.296300
  C      2.788400   -1.300500   -0.857600
  C      4.160700   -1.356000   -0.729100
  C      4.855800   -0.354100   -0.061000
  C      6.343900   -0.416800    0.093100
  C      4.131900    0.708500    0.467500
  C      2.756500    0.761900    0.357400
  C     -1.716100    0.138000    0.072500
  N     -2.667200    0.481200    0.863700
  C     -3.897400    0.358000    0.303000
  C     -5.111000    0.655100    0.919100
  C     -6.278700    0.476000    0.209800
  C     -6.259800    0.005800   -1.102400
  C     -5.069400   -0.296000   -1.734600
  C     -3.892200   -0.118000   -1.029100
  S     -2.259200   -0.403200   -1.540800
  H     -0.830600    0.379700    2.467600
  H     -0.002300    1.779200    1.811000
  H      0.920600    0.306200    2.162800
  H      0.262200   -0.673500   -1.389500
  H      2.266000   -2.086300   -1.384500
  H      4.704800   -2.184500   -1.160300
  H      6.599600   -0.819900    1.073900
  H      6.787300   -1.060300   -0.662900
  H      6.783400    0.575500    0.015800
  H      4.656800    1.509200    0.969400
  H      2.226900    1.618700    0.742100
  H     -5.112300    1.018000    1.934500
  H     -7.226100    0.703000    0.675500
  H     -7.190200   -0.124800   -1.634300
  H     -5.051200   -0.660200   -2.750100

----------------------------
CARTESIAN COORDINATES (A.U.)
----------------------------
  NO LB      ZA    FRAG     MASS         X           Y           Z
   0 C     6.0000    0    12.011   -0.055936    1.304478    3.403964
   1 C     6.0000    0    12.011   -0.599610    0.350544    0.792173
   2 C     6.0000    0    12.011    1.155379   -0.459959   -0.863416
   3 C     6.0000    0    12.011    3.882442   -0.476589   -0.559926
   4 C     6.0000    0    12.011    5.269312   -2.457589   -1.620629
   5 C     6.0000    0    12.011    7.862584   -2.562469   -1.377799
   6 C     6.0000    0    12.011    9.176132   -0.669152   -0.115273
   7 C     6.0000    0    12.011   11.988234   -0.787638    0.175934
   8 C     6.0000    0    12.011    7.808159    1.338871    0.883447
   9 C     6.0000    0    12.011    5.209030    1.439782    0.675388
  10 C     6.0000    0    12.011   -3.242959    0.260782    0.137005
  11 N     7.0000    0    14.007   -5.040278    0.909336    1.632156
  12 C     6.0000    0    12.011   -7.365019    0.676522    0.572587
  13 C     6.0000    0    12.011   -9.658390    1.237960    1.736847
  14 C     6.0000    0    12.011  -11.865023    0.899510    0.396465
  15 C     6.0000    0    12.011  -11.829308    0.010960   -2.083234
  16 C     6.0000    0    12.011   -9.579778   -0.559359   -3.277919
  17 C     6.0000    0    12.011   -7.355192   -0.222988   -1.944717
  18 S    16.0000    0    32.060   -4.269269   -0.761938   -2.911690
  19 H     1.0000    0     1.008   -1.569607    0.717529    4.663088
  20 H     1.0000    0     1.008   -0.004346    3.362201    3.422294
  21 H     1.0000    0     1.008    1.739682    0.578634    4.087100
  22 H     1.0000    0     1.008    0.495486   -1.272731   -2.625774
  23 H     1.0000    0     1.008    4.282119   -3.942536   -2.616326
  24 H     1.0000    0     1.008    8.890784   -4.128107   -2.192649
  25 H     1.0000    0     1.008   12.471437   -1.549386    2.029377
  26 H     1.0000    0     1.008   12.826138   -2.003677   -1.252699
  27 H     1.0000    0     1.008   12.818768    1.087537    0.029858
  28 H     1.0000    0     1.008    8.800077    2.851975    1.831901
  29 H     1.0000    0     1.008    4.208231    3.058900    1.402366
  30 H     1.0000    0     1.008   -9.660847    1.923741    3.655675
  31 H     1.0000    0     1.008  -13.655350    1.328477    1.276510
  32 H     1.0000    0     1.008  -13.587509   -0.235838   -3.088379
  33 H     1.0000    0     1.008   -9.545385   -1.247597   -5.196936

--------------------------------
INTERNAL COORDINATES (ANGSTROEM)
--------------------------------
 C      0   0   0     0.000000000000     0.00000000     0.00000000
 C      1   0   0     1.499264733128     0.00000000     0.00000000
 C      2   1   0     1.346844501047   125.06827182     0.00000000
 C      3   2   1     1.452035609067   127.97216975   356.70890927
 C      4   3   2     1.397354568461   118.82220506   144.99559171
 C      5   4   3     1.379420091923   121.01486452   180.19759467
 C      6   5   4     1.390440660366   120.87069435   358.61639283
 C      7   6   5     1.497370932668   121.07070008   179.37745924
 C      7   6   5     1.390130288858   118.23823331   359.65191041
 C      9   7   6     1.380832622007   121.19423914     1.18311408
 C      2   1   3     1.441907965163   114.76539498   177.92941885
 N     11   2   1     1.283890528822   124.17117896   359.37865367
 C     12  11   2     1.357554702397   113.11109810   179.47911023
 C     13  12  11     1.393080248945   125.97421972   180.00204205
 C     14  13  12     1.377935626218   118.87319341   179.94441553
 C     15  14  13     1.394028009044   121.12396120     0.00000000
 C     16  15  14     1.381235765538   121.07923724     0.00000000
 C     17  16  15     1.383912602009   118.14274284   359.96252324
 S     18  17  16     1.734896230326   128.98876694   180.06007482
 H      1   2   3     1.087211593941   109.11054917   215.75687589
 H      1   2   3     1.089285357471   110.46270369    97.94442352
 H      1   2   3     1.086781992858   110.81903441   336.81846468
 H      3   2   1     1.084743937526   117.61557011   174.19235325
 H      5   4   3     1.080743730030   119.17204776   359.11319084
 H      6   5   4     1.080921134959   119.63322888   179.13962228
 H      8   7   6     1.090798212320   109.93622333   262.36558763
 H      8   7   6     1.087304837661   111.00802982    21.93868909
 H      8   7   6     1.088023359124   110.85115688   143.23997342
 H      9   7   6     1.080992187761   119.33052516   181.47719206
 H     10   9   7     1.078228403447   119.44091082   182.48394239
 H     14  13  12     1.078302026336   119.29352056   359.95762099
 H     15  14  13     1.079801949433   119.61627101   180.02968130
 H     16  15  14     1.079637962467   119.52899693   180.01245202
 H     17  16  15     1.078987085187   121.26950568   179.99482061

---------------------------
INTERNAL COORDINATES (A.U.)
---------------------------
 C      0   0   0     0.000000000000     0.00000000     0.00000000
 C      1   0   0     2.833199747858     0.00000000     0.00000000
 C      2   1   0     2.545167251956   125.06827182     0.00000000
 C      3   2   1     2.743949637839   127.97216975   356.70890927
 C      4   3   2     2.640617446376   118.82220506   144.99559171
 C      5   4   3     2.606726197362   121.01486452   180.19759467
 C      6   5   4     2.627552053561   120.87069435   358.61639283
 C      7   6   5     2.829620983637   121.07070008   179.37745924
 C      7   6   5     2.626965536410   118.23823331   359.65191041
 C      9   7   6     2.609395492379   121.19423914     1.18311408
 C      2   1   3     2.724811164477   114.76539498   177.92941885
 N     11   2   1     2.426201485410   124.17117896   359.37865367
 C     12  11   2     2.565406599347   113.11109810   179.47911023
 C     13  12  11     2.632540153080   125.97421972   180.00204205
 C     14  13  12     2.603920963725   118.87319341   179.94441553
 C     15  14  13     2.634331160109   121.12396120     0.00000000
 C     16  15  14     2.610157323243   121.07923724     0.00000000
 C     17  16  15     2.615215811080   118.14274284   359.96252324
 S     18  17  16     3.278478746089   128.98876694   180.06007482
 H      1   2   3     2.054532162173   109.11054917   215.75687589
 H      1   2   3     2.058451007310   110.46270369    97.94442352
 H      1   2   3     2.053720333778   110.81903441   336.81846468
 H      3   2   1     2.049868967356   117.61557011   174.19235325
 H      5   4   3     2.042309670710   119.17204776   359.11319084
 H      6   5   4     2.042644917439   119.63322888   179.13962228
 H      8   7   6     2.061309888655   109.93622333   262.36558763
 H      8   7   6     2.054708367266   111.00802982    21.93868909
 H      8   7   6     2.056066176054   110.85115688   143.23997342
 H      9   7   6     2.042779187776   119.33052516   181.47719206
 H     10   9   7     2.037556392330   119.44091082   182.48394239
 H     14  13  12     2.037695519427   119.29352056   359.95762099
 H     15  14  13     2.040529963303   119.61627101   180.02968130
 H     16  15  14     2.040220072847   119.52899693   180.01245202
 H     17  16  15     2.038990093041   121.26950568   179.99482061

---------------------
BASIS SET INFORMATION
---------------------
There are 4 groups of distinct atoms

 Group   1 Type C   : 19s6p3d2f contracted to 5s4p3d2f pattern {88111/3111/111/11}
 Group   2 Type N   : 19s6p3d2f contracted to 5s4p3d2f pattern {88111/3111/111/11}
 Group   3 Type S   : 42s17p3d2f contracted to 6s5p3d2f pattern {131313111/77111/111/11}
 Group   4 Type H   : 5s2p1d contracted to 3s2p1d pattern {311/11/1}

Atom   0C    basis set group =>   1
Atom   1C    basis set group =>   1
Atom   2C    basis set group =>   1
Atom   3C    basis set group =>   1
Atom   4C    basis set group =>   1
Atom   5C    basis set group =>   1
Atom   6C    basis set group =>   1
Atom   7C    basis set group =>   1
Atom   8C    basis set group =>   1
Atom   9C    basis set group =>   1
Atom  10C    basis set group =>   1
Atom  11N    basis set group =>   2
Atom  12C    basis set group =>   1
Atom  13C    basis set group =>   1
Atom  14C    basis set group =>   1
Atom  15C    basis set group =>   1
Atom  16C    basis set group =>   1
Atom  17C    basis set group =>   1
Atom  18S    basis set group =>   3
Atom  19H    basis set group =>   4
Atom  20H    basis set group =>   4
Atom  21H    basis set group =>   4
Atom  22H    basis set group =>   4
Atom  23H    basis set group =>   4
Atom  24H    basis set group =>   4
Atom  25H    basis set group =>   4
Atom  26H    basis set group =>   4
Atom  27H    basis set group =>   4
Atom  28H    basis set group =>   4
Atom  29H    basis set group =>   4
Atom  30H    basis set group =>   4
Atom  31H    basis set group =>   4
Atom  32H    basis set group =>   4
Atom  33H    basis set group =>   4
---------------------------------
AUXILIARY/J BASIS SET INFORMATION
---------------------------------
There are 4 groups of distinct atoms

 Group   1 Type C   : 10s7p5d2f1g contracted to 10s7p5d2f1g pattern {1111111111/1111111/11111/11/1}
 Group   2 Type N   : 10s7p5d2f1g contracted to 10s7p5d2f1g pattern {1111111111/1111111/11111/11/1}
 Group   3 Type S   : 13s11p9d3f1g contracted to 13s11p9d3f1g pattern {1111111111111/11111111111/111111111/111/1}
 Group   4 Type H   : 4s3p2d1f contracted to 4s3p2d1f pattern {1111/111/11/1}

Atom   0C    basis set group =>   1
Atom   1C    basis set group =>   1
Atom   2C    basis set group =>   1
Atom   3C    basis set group =>   1
Atom   4C    basis set group =>   1
Atom   5C    basis set group =>   1
Atom   6C    basis set group =>   1
Atom   7C    basis set group =>   1
Atom   8C    basis set group =>   1
Atom   9C    basis set group =>   1
Atom  10C    basis set group =>   1
Atom  11N    basis set group =>   2
Atom  12C    basis set group =>   1
Atom  13C    basis set group =>   1
Atom  14C    basis set group =>   1
Atom  15C    basis set group =>   1
Atom  16C    basis set group =>   1
Atom  17C    basis set group =>   1
Atom  18S    basis set group =>   3
Atom  19H    basis set group =>   4
Atom  20H    basis set group =>   4
Atom  21H    basis set group =>   4
Atom  22H    basis set group =>   4
Atom  23H    basis set group =>   4
Atom  24H    basis set group =>   4
Atom  25H    basis set group =>   4
Atom  26H    basis set group =>   4
Atom  27H    basis set group =>   4
Atom  28H    basis set group =>   4
Atom  29H    basis set group =>   4
Atom  30H    basis set group =>   4
Atom  31H    basis set group =>   4
Atom  32H    basis set group =>   4
Atom  33H    basis set group =>   4
---------------------------------
AUXILIARY/C BASIS SET INFORMATION
---------------------------------
There are 4 groups of distinct atoms

 Group   1 Type C   : 9s7p6d4f2g contracted to 9s7p6d4f2g pattern {111111111/1111111/111111/1111/11}
 Group   2 Type N   : 9s7p6d4f2g contracted to 9s7p6d4f2g pattern {111111111/1111111/111111/1111/11}
 Group   3 Type S   : 11s9p8d6f3g contracted to 11s9p8d6f3g pattern {11111111111/111111111/11111111/111111/111}
 Group   4 Type H   : 4s3p2d1f contracted to 4s3p2d1f pattern {1111/111/11/1}

Atom   0C    basis set group =>   1
Atom   1C    basis set group =>   1
Atom   2C    basis set group =>   1
Atom   3C    basis set group =>   1
Atom   4C    basis set group =>   1
Atom   5C    basis set group =>   1
Atom   6C    basis set group =>   1
Atom   7C    basis set group =>   1
Atom   8C    basis set group =>   1
Atom   9C    basis set group =>   1
Atom  10C    basis set group =>   1
Atom  11N    basis set group =>   2
Atom  12C    basis set group =>   1
Atom  13C    basis set group =>   1
Atom  14C    basis set group =>   1
Atom  15C    basis set group =>   1
Atom  16C    basis set group =>   1
Atom  17C    basis set group =>   1
Atom  18S    basis set group =>   3
Atom  19H    basis set group =>   4
Atom  20H    basis set group =>   4
Atom  21H    basis set group =>   4
Atom  22H    basis set group =>   4
Atom  23H    basis set group =>   4
Atom  24H    basis set group =>   4
Atom  25H    basis set group =>   4
Atom  26H    basis set group =>   4
Atom  27H    basis set group =>   4
Atom  28H    basis set group =>   4
Atom  29H    basis set group =>   4
Atom  30H    basis set group =>   4
Atom  31H    basis set group =>   4
Atom  32H    basis set group =>   4
Atom  33H    basis set group =>   4


           ************************************************************
           *        Program running with 4 parallel MPI-processes     *
           *              working on a common directory               *
           ************************************************************
------------------------------------------------------------------------------
                           ORCA GTO INTEGRAL CALCULATION
                           -- RI-GTO INTEGRALS CHOSEN --
------------------------------------------------------------------------------
------------------------------------------------------------------------------
                   ___                                                        
                  /   \      - P O W E R E D   B Y -                         
                 /     \                                                     
                 |  |  |   _    _      __       _____    __    __             
                 |  |  |  | |  | |    /  \     |  _  \  |  |  /  |          
                  \  \/   | |  | |   /    \    | | | |  |  | /  /          
                 / \  \   | |__| |  /  /\  \   | |_| |  |  |/  /          
                |  |  |   |  __  | /  /__\  \  |    /   |      \           
                |  |  |   | |  | | |   __   |  |    \   |  |\   \          
                \     /   | |  | | |  |  |  |  | |\  \  |  | \   \       
                 \___/    |_|  |_| |__|  |__|  |_| \__\ |__|  \__/        
                                                                              
                      - O R C A' S   B I G   F R I E N D -                    
                                      &                                       
                       - I N T E G R A L  F E E D E R -                       
                                                                              
 v1 FN, 2020, v2 2021                                                         
------------------------------------------------------------------------------


Reading SHARK input file optpbed3-b2plyp-test-531.SHARKINP.tmp ... ok
----------------------
SHARK INTEGRAL PACKAGE
----------------------

Number of atoms                             ...     34
Number of basis functions                   ...   1221
Number of shells                            ...    481
Maximum angular momentum                    ...      3
Integral batch strategy                     ... SHARK/LIBINT Hybrid
RI-J (if used) integral strategy            ... SPLIT-RIJ (Revised 2003 algorithm where possible)
Printlevel                                  ...      1
Contraction scheme used                     ... PARTIAL GENERAL contraction
Coulomb Range Separation                    ... NOT USED
Exchange Range Separation                   ... NOT USED
Finite Nucleus Model                        ... NOT USED
Auxiliary Coulomb fitting basis             ... AVAILABLE
   # of basis functions in Aux-J            ...   1993
   # of shells in Aux-J                     ...    637
   Maximum angular momentum in Aux-J        ...      4
Auxiliary J/K fitting basis                 ... NOT available
Auxiliary Correlation fitting basis         ... AVAILABLE
   # of basis functions in Aux-C            ...   2505
   # of shells in Aux-C                     ...    691
   Maximum angular momentum in Aux-C        ...      4
Auxiliary 'external' fitting basis          ... NOT available
Integral threshold                          ...     2.500000e-11
Primitive cut-off                           ...     2.500000e-12
Primitive pair pre-selection threshold      ...     2.500000e-12

Calculating pre-screening integrals         ... done (  0.2 sec) Dimension = 481
Calculating pre-screening integrals (ORCA)  ... done (  0.6 sec) Dimension = 358
Organizing shell pair data                  ... done (  1.3 sec)
Shell pair information
Total number of shell pairs                 ...    115921
Shell pairs after pre-screening             ...     70708
Total number of primitive shell pairs       ...    149977
Primitive shell pairs kept                  ...     82561
          la=0 lb=0:  16162 shell pairs
          la=1 lb=0:  18418 shell pairs
          la=1 lb=1:   4724 shell pairs
          la=2 lb=0:  11685 shell pairs
          la=2 lb=1:   5921 shell pairs
          la=2 lb=2:   1907 shell pairs
          la=3 lb=0:   6177 shell pairs
          la=3 lb=1:   3145 shell pairs
          la=3 lb=2:   2010 shell pairs
          la=3 lb=3:    559 shell pairs

Calculating one electron integrals          ... done (  0.3 sec)
Calculating RI/J V-Matrix + Cholesky decomp.... done (  0.3 sec)
Calculating RI/C V-Matrix + Cholesky decomp.... done (  0.5 sec)
Calculating Nuclear repulsion               ... done (  0.0 sec) ENN=   1367.111750613330 Eh

SHARK setup successfully completed in   4.5 seconds

Maximum memory used throughout the entire GTOINT-calculation: 112.3 MB


           ************************************************************
           *        Program running with 4 parallel MPI-processes     *
           *              working on a common directory               *
           ************************************************************
-------------------------------------------------------------------------------
                                 ORCA SCF
-------------------------------------------------------------------------------

------------
SCF SETTINGS
------------
Hamiltonian:
 Density Functional     Method          .... DFT(GTOs)
 Exchange Functional    Exchange        .... PBE
   PBE kappa parameter   XKappa         ....  0.804000
   PBE mue parameter    XMuePBE         ....  0.219520
 Correlation Functional Correlation     .... PBE
   PBE beta parameter  CBetaPBE         ....  0.066725
 LDA part of GGA corr.  LDAOpt          .... PW91-LDA
 Gradients option       PostSCFGGA      .... off
 Hybrid DFT is turned on
   Fraction HF Exchange ScalHFX         ....  0.250000
   Scaling of DF-GGA-X  ScalDFX         ....  0.750000
   Scaling of DF-GGA-C  ScalDFC         ....  1.000000
   Scaling of DF-LDA-C  ScalLDAC        ....  1.000000
   Perturbative correction              ....  0.000000
   Density functional embedding theory  .... OFF
   NL short-range parameter             ....  6.900000
 RI-approximation to the Coulomb term is turned on
   Number of AuxJ basis functions       .... 1993
   RIJ-COSX (HFX calculated with COS-X)).... on


General Settings:
 Integral files         IntName         .... optpbed3-b2plyp-test-531
 Hartree-Fock type      HFTyp           .... RHF
 Total Charge           Charge          ....    0
 Multiplicity           Mult            ....    1
 Number of Electrons    NEL             ....  140
 Basis Dimension        Dim             .... 1088
 Nuclear Repulsion      ENuc            ....   1367.1117506133 Eh

Convergence Acceleration:
 DIIS                   CNVDIIS         .... on
   Start iteration      DIISMaxIt       ....    12
   Startup error        DIISStart       ....  0.200000
   # of expansion vecs  DIISMaxEq       ....     5
   Bias factor          DIISBfac        ....   1.050
   Max. coefficient     DIISMaxC        ....  10.000
 Trust-Rad. Augm. Hess. CNVTRAH         .... auto
   Auto Start mean grad. ratio tolernc. ....  1.125000
   Auto Start start iteration           ....    20
   Auto Start num. interpolation iter.  ....    10
   Max. Number of Micro iterations      ....    16
   Max. Number of Macro iterations      .... Maxiter - #DIIS iter
   Number of Davidson start vectors     ....     2
   Converg. threshold I  (grad. norm)   ....   1.000e-05
   Converg. threshold II (energy diff.) ....   1.000e-08
   Grad. Scal. Fac. for Micro threshold ....   0.100
   Minimum threshold for Micro iter.    ....   0.010
   NR start threshold (gradient norm)   ....   0.001
   Initial trust radius                 ....   0.400
   Minimum AH scaling param. (alpha)    ....   1.000
   Maximum AH scaling param. (alpha)    .... 1000.000
   Orbital update algorithm             .... Taylor
   White noise on init. David. guess    .... on
   Maximum white noise                  ....   0.010
   Quad. conv. algorithm                .... NR
 SOSCF                  CNVSOSCF        .... on
   Start iteration      SOSCFMaxIt      ....   150
   Startup grad/error   SOSCFStart      ....  0.003300
 Level Shifting         CNVShift        .... on
   Level shift para.    LevelShift      ....    0.2500
   Turn off err/grad.   ShiftErr        ....    0.0010
 Zerner damping         CNVZerner       .... off
 Static damping         CNVDamp         .... on
   Fraction old density DampFac         ....    0.7000
   Max. Damping (<1)    DampMax         ....    0.9800
   Min. Damping (>=0)   DampMin         ....    0.0000
   Turn off err/grad.   DampErr         ....    0.1000
 Fernandez-Rico         CNVRico         .... off

SCF Procedure:
 Maximum # iterations   MaxIter         ....   125
 SCF integral mode      SCFMode         .... Direct
   Integral package                     .... SHARK and LIBINT hybrid scheme
 Reset frequency        DirectResetFreq ....    20
 Integral Threshold     Thresh          ....  2.500e-11 Eh
 Primitive CutOff       TCut            ....  2.500e-12 Eh

Convergence Tolerance:
 Convergence Check Mode ConvCheckMode   .... Total+1el-Energy
 Convergence forced     ConvForced      .... 0
 Energy Change          TolE            ....  1.000e-08 Eh
 1-El. energy change                    ....  1.000e-05 Eh
 Orbital Gradient       TolG            ....  1.000e-05
 Orbital Rotation angle TolX            ....  1.000e-05
 DIIS Error             TolErr          ....  5.000e-07


Diagonalization of the overlap matrix:
Smallest eigenvalue                        ... 8.455e-07
Time for diagonalization                   ...    0.294 sec
Threshold for overlap eigenvalues          ... 1.000e-08
Number of eigenvalues below threshold      ... 0
Time for construction of square roots      ...    0.197 sec
Total time needed                          ...    0.499 sec

Time for model grid setup =    0.696 sec

------------------------------
INITIAL GUESS: MODEL POTENTIAL
------------------------------
Loading Hartree-Fock densities                     ... done
Calculating cut-offs                               ... done
Initializing the effective Hamiltonian             ... done
Setting up the integral package (SHARK)            ... done
Starting the Coulomb interaction                   ... done (   2.5 sec)
Reading the grid                                   ... done
Mapping shells                                     ... done
Starting the XC term evaluation                    ... done (   2.1 sec)
  promolecular density results
     # of electrons  =    139.997505069
     EX              =   -122.901750165
     EC              =     -4.769468691
     EX+EC           =   -127.671218856
Transforming the Hamiltonian                       ... done (   0.2 sec)
Diagonalizing the Hamiltonian                      ... done (   0.3 sec)
Back transforming the eigenvectors                 ... done (   0.1 sec)
Now organizing SCF variables                       ... done
                      ------------------
                      INITIAL GUESS DONE (   5.8 sec)
                      ------------------
-------------------
DFT GRID GENERATION
-------------------

General Integration Accuracy     IntAcc      ... 4.388
Radial Grid Type                 RadialGrid  ... OptM3 with GC (2021)
Angular Grid (max. ang.)         AngularGrid ... 4 (Lebedev-302)
Angular grid pruning method      GridPruning ... 4 (adaptive)
Weight generation scheme         WeightScheme... Becke
Basis function cutoff            BFCut       ... 1.0000e-11
Integration weight cutoff        WCut        ... 1.0000e-14
Angular grids for H and He will be reduced by one unit
Partially contracted basis set               ... off
Rotationally invariant grid construction     ... off

Total number of grid points                  ...   167477
Total number of batches                      ...     2631
Average number of points per batch           ...       63
Average number of grid points per atom       ...     4926
Time for grid setup =    2.420 sec

--------------------
COSX GRID GENERATION
--------------------

GRIDX 1
-------
General Integration Accuracy     IntAcc      ... 3.816
Radial Grid Type                 RadialGrid  ... OptM3 with GC (2021)
Angular Grid (max. ang.)         AngularGrid ... 1 (Lebedev-50)
Angular grid pruning method      GridPruning ... 4 (adaptive)
Weight generation scheme         WeightScheme... Becke
Basis function cutoff            BFCut       ... 1.0000e-11
Integration weight cutoff        WCut        ... 1.0000e-14
Angular grids for H and He will be reduced by one unit
Partially contracted basis set               ... on
Rotationally invariant grid construction     ... off

Total number of grid points                  ...    21264
Total number of batches                      ...      350
Average number of points per batch           ...       60
Average number of grid points per atom       ...      625
UseSFitting                                  ... on

GRIDX 2
-------
General Integration Accuracy     IntAcc      ... 4.020
Radial Grid Type                 RadialGrid  ... OptM3 with GC (2021)
Angular Grid (max. ang.)         AngularGrid ... 2 (Lebedev-110)
Angular grid pruning method      GridPruning ... 4 (adaptive)
Weight generation scheme         WeightScheme... Becke
Basis function cutoff            BFCut       ... 1.0000e-11
Integration weight cutoff        WCut        ... 1.0000e-14
Angular grids for H and He will be reduced by one unit
Partially contracted basis set               ... on
Rotationally invariant grid construction     ... off

Total number of grid points                  ...    49995
Total number of batches                      ...      798
Average number of points per batch           ...       62
Average number of grid points per atom       ...     1470
UseSFitting                                  ... on

GRIDX 3
-------
General Integration Accuracy     IntAcc      ... 4.338
Radial Grid Type                 RadialGrid  ... OptM3 with GC (2021)
Angular Grid (max. ang.)         AngularGrid ... 3 (Lebedev-194)
Angular grid pruning method      GridPruning ... 4 (adaptive)
Weight generation scheme         WeightScheme... Becke
Basis function cutoff            BFCut       ... 1.0000e-11
Integration weight cutoff        WCut        ... 1.0000e-14
Angular grids for H and He will be reduced by one unit
Partially contracted basis set               ... on
Rotationally invariant grid construction     ... off

Total number of grid points                  ...   108416
Total number of batches                      ...     1712
Average number of points per batch           ...       63
Average number of grid points per atom       ...     3189
UseSFitting                                  ... on

Time for X-Grid setup             =    5.738 sec


--------------------
CPCM SOLVATION MODEL
--------------------
CPCM parameters:
  Epsilon                                         ...       2.0165
  Refrac                                          ...       1.4266
  Rsolv                                           ...       1.3000
  Surface type                                    ... GAUSSIAN VDW
  Epsilon function type                           ...         CPCM
Solvent:                                     ... CYCLOHEXANE
SMD-CDS solvent descriptors:
  Soln                                       ...    1.4266
  Soln25                                     ...    1.4235
  Sola                                       ...    0.0000
  Solb                                       ...    0.0000
  Solg                                       ...   35.4800
  Solc                                       ...    0.0000
  Solh                                       ...    0.0000
Radii:
 Radius for C  used is    3.4960 Bohr (=   1.8500 Ang.)
 Radius for N  used is    3.5716 Bohr (=   1.8900 Ang.)
 Radius for S  used is    4.7054 Bohr (=   2.4900 Ang.)
 Radius for H  used is    2.2677 Bohr (=   1.2000 Ang.)
Calculating surface                               ...        done! (  0.0s)
GEPOL surface points                              ...         1926
GEPOL Volume                                      ...    1961.4204
GEPOL Surface-area                                ...    1073.9801
Calculating surface distance matrix               ...        done! (  0.1s)
Performing Cholesky decomposition & store         ...        done! (  0.2s)
Overall time for CPCM initialization              ...                 0.3s
 re-compute Schwartz prescreening matrix in partically contracted basis (1) ...done (   0.231 sec)
--------------
SCF ITERATIONS
--------------
ITER       Energy         Delta-E        Max-DP      RMS-DP      [F,P]     Damp
               ***  Starting incremental Fock matrix formation  ***
  0  -1108.6053523624   0.000000000000 0.10117862  0.00095555  0.2209591 0.7000
  1  -1108.8182103901  -0.212858027612 0.07390259  0.00074246  0.1038257 0.7000
                               ***Turning on DIIS***
  2  -1108.9087030853  -0.090492695282 0.18658330  0.00165809  0.0444821 0.0000
  3  -1109.0381447947  -0.129441709323 0.03589740  0.00037959  0.0515038 0.0000
  4  -1109.0739755147  -0.035830720036 0.02401128  0.00015712  0.0101898 0.0000
  5  -1109.0756140131  -0.001638498358 0.00701364  0.00005777  0.0080003 0.0000
                      *** Initiating the SOSCF procedure ***
                           *** Shutting down DIIS ***
                      *** Re-Reading the Fockian *** 
                      *** Removing any level shift *** 
ITER      Energy       Delta-E        Grad      Rot      Max-DP    RMS-DP
  6  -1109.07579671  -0.0001827019  0.000480  0.000480  0.003369  0.000025
               *** Restarting incremental Fock matrix formation ***
  7  -1109.07582745  -0.0000307352  0.000235  0.001192  0.026860  0.000319
  8  -1109.07583281  -0.0000053607  0.000126  0.000958  0.008031  0.000097
  9  -1109.07583340  -0.0000005918  0.000105  0.000432  0.007262  0.000088
 10  -1109.07583400  -0.0000006012  0.000040  0.000106  0.003278  0.000029
 11  -1109.07583398   0.0000000248  0.000027  0.000094  0.002832  0.000023
 12  -1109.07583409  -0.0000001146  0.000004  0.000013  0.005157  0.000028
 13  -1109.07583411  -0.0000000180  0.000005  0.000011  0.006009  0.000024
                  ***Gradient check signals convergence***
              ***Rediagonalizing the Fockian in SOSCF/NRSCF***

               *****************************************************
               *                     SUCCESS                       *
               *           SCF CONVERGED AFTER  14 CYCLES          *
               *****************************************************

Old exchange energy                            =    -31.305665126 Eh
New exchange energy                            =    -31.305629696 Eh
Exchange energy change after final integration =      0.000035430 Eh
Total energy after final integration           =  -1109.075798697 Eh
Final COS-X integration done in                =   147.938 sec

SMD CDS free energy correction energy :                -7.73772     Kcal/mol
Total Energy after SMD CDS correction =             -1109.088129538 Eh

----------------
TOTAL SCF ENERGY
----------------

Total Energy       :        -1109.08812954 Eh          -30179.82232 eV

Components:
Nuclear Repulsion  :         1367.11175061 Eh           37201.00200 eV
Electronic Energy  :        -2476.19988015 Eh          -67380.82431 eV
One Electron Energy:        -4226.45771365 Eh         -115007.76127 eV
Two Electron Energy:         1750.25783350 Eh           47626.93696 eV
Max COSX asymmetry :            0.00006206 Eh               0.00169 eV
CPCM Dielectric    :           -0.00703086 Eh              -0.19132 eV
SMD CDS (Gcds)     :           -0.01233084 Eh              -0.33554 eV

Virial components:
Potential Energy   :        -2213.20492997 Eh          -60224.36789 eV
Kinetic Energy     :         1104.11680043 Eh           30044.54557 eV
Virial Ratio       :            2.00450254


DFT components:
N(Alpha)           :       69.999951256990 electrons
N(Beta)            :       69.999951256990 electrons
N(Total)           :      139.999902513979 electrons
E(X)               :      -93.583167340445 Eh       
E(C)               :       -4.770802008899 Eh       
E(XC)              :      -98.353969349344 Eh       
DFET-embed. en.    :        0.000000000000 Eh       
CPCM Solvation Model Properties:
Surface-charge          :           -0.06151097
Charge-correction       :            0.00012407 Eh               0.00338 eV
Free-energy (cav+disp)  :           -0.01233084 Eh              -0.33554 eV

---------------
SCF CONVERGENCE
---------------

  Last Energy change         ...   -1.5996e-08  Tolerance :   1.0000e-08
  Last MAX-Density change    ...    4.4409e-15  Tolerance :   1.0000e-07
  Last RMS-Density change    ...    1.4028e-17  Tolerance :   5.0000e-09
  Last Orbital Gradient      ...    1.4153e-06  Tolerance :   1.0000e-05
  Last Orbital Rotation      ...    6.3137e-06  Tolerance :   1.0000e-05

             **** THE GBW FILE WAS UPDATED (optpbed3-b2plyp-test-531.gbw) ****
             **** DENSITY optpbed3-b2plyp-test-531.scfp WAS UPDATED ****
             **** ENERGY FILE WAS UPDATED (optpbed3-b2plyp-test-531.en.tmp) ****
             **** THE GBW FILE WAS UPDATED (optpbed3-b2plyp-test-531.gbw) ****
             **** DENSITY optpbed3-b2plyp-test-531.scfp WAS UPDATED ****
----------------
ORBITAL ENERGIES
----------------

  NO   OCC          E(Eh)            E(eV) 
   0   2.0000     -89.080238     -2423.9965 
   1   2.0000     -14.387709      -391.5095 
   2   2.0000     -10.300851      -280.3004 
   3   2.0000     -10.266655      -279.3699 
   4   2.0000     -10.263513      -279.2844 
   5   2.0000     -10.250073      -278.9187 
   6   2.0000     -10.241286      -278.6796 
   7   2.0000     -10.240872      -278.6683 
   8   2.0000     -10.239657      -278.6352 
   9   2.0000     -10.237304      -278.5712 
  10   2.0000     -10.231667      -278.4178 
  11   2.0000     -10.230952      -278.3984 
  12   2.0000     -10.230934      -278.3979 
  13   2.0000     -10.230878      -278.3963 
  14   2.0000     -10.229514      -278.3592 
  15   2.0000     -10.226791      -278.2851 
  16   2.0000     -10.226596      -278.2798 
  17   2.0000     -10.217417      -278.0300 
  18   2.0000     -10.213037      -277.9109 
  19   2.0000      -8.037667      -218.7160 
  20   2.0000      -5.974461      -162.5733 
  21   2.0000      -5.971237      -162.4856 
  22   2.0000      -5.967999      -162.3975 
  23   2.0000      -1.005828       -27.3700 
  24   2.0000      -0.899939       -24.4886 
  25   2.0000      -0.887192       -24.1417 
  26   2.0000      -0.853862       -23.2348 
  27   2.0000      -0.824734       -22.4421 
  28   2.0000      -0.806193       -21.9376 
  29   2.0000      -0.776137       -21.1198 
  30   2.0000      -0.769798       -20.9473 
  31   2.0000      -0.750119       -20.4118 
  32   2.0000      -0.734744       -19.9934 
  33   2.0000      -0.696701       -18.9582 
  34   2.0000      -0.658543       -17.9199 
  35   2.0000      -0.633999       -17.2520 
  36   2.0000      -0.621882       -16.9223 
  37   2.0000      -0.617071       -16.7914 
  38   2.0000      -0.594612       -16.1802 
  39   2.0000      -0.558026       -15.1846 
  40   2.0000      -0.517787       -14.0897 
  41   2.0000      -0.514694       -14.0055 
  42   2.0000      -0.505056       -13.7433 
  43   2.0000      -0.495989       -13.4965 
  44   2.0000      -0.476922       -12.9777 
  45   2.0000      -0.470306       -12.7977 
  46   2.0000      -0.458209       -12.4685 
  47   2.0000      -0.454228       -12.3602 
  48   2.0000      -0.450266       -12.2524 
  49   2.0000      -0.438322       -11.9273 
  50   2.0000      -0.435883       -11.8610 
  51   2.0000      -0.427347       -11.6287 
  52   2.0000      -0.424482       -11.5508 
  53   2.0000      -0.410530       -11.1711 
  54   2.0000      -0.400587       -10.9005 
  55   2.0000      -0.390584       -10.6283 
  56   2.0000      -0.388569       -10.5735 
  57   2.0000      -0.378984       -10.3127 
  58   2.0000      -0.373572       -10.1654 
  59   2.0000      -0.369449       -10.0532 
  60   2.0000      -0.358809        -9.7637 
  61   2.0000      -0.350104        -9.5268 
  62   2.0000      -0.344254        -9.3676 
  63   2.0000      -0.321922        -8.7599 
  64   2.0000      -0.306628        -8.3438 
  65   2.0000      -0.291450        -7.9307 
  66   2.0000      -0.272732        -7.4214 
  67   2.0000      -0.265881        -7.2350 
  68   2.0000      -0.250004        -6.8030 
  69   2.0000      -0.224060        -6.0970 
  70   0.0000      -0.068781        -1.8716 
  71   0.0000      -0.013911        -0.3785 
  72   0.0000      -0.013211        -0.3595 
  73   0.0000      -0.008885        -0.2418 
  74   0.0000       0.001601         0.0436 
  75   0.0000       0.004139         0.1126 
  76   0.0000       0.013532         0.3682 
  77   0.0000       0.017069         0.4645 
  78   0.0000       0.018484         0.5030 
  79   0.0000       0.021272         0.5788 
  80   0.0000       0.027509         0.7486 
  81   0.0000       0.032325         0.8796 
  82   0.0000       0.036545         0.9945 
  83   0.0000       0.040280         1.0961 
  84   0.0000       0.042684         1.1615 
  85   0.0000       0.043708         1.1894 
  86   0.0000       0.044654         1.2151 
  87   0.0000       0.051799         1.4095 
  88   0.0000       0.052812         1.4371 
  89   0.0000       0.058345         1.5877 
  90   0.0000       0.061283         1.6676 
  91   0.0000       0.063793         1.7359 
  92   0.0000       0.070910         1.9296 
  93   0.0000       0.071862         1.9555 
  94   0.0000       0.073896         2.0108 
  95   0.0000       0.077969         2.1216 
  96   0.0000       0.081443         2.2162 
  97   0.0000       0.083223         2.2646 
  98   0.0000       0.084889         2.3100 
  99   0.0000       0.096395         2.6230 
 100   0.0000       0.097564         2.6549 
 101   0.0000       0.098747         2.6870 
 102   0.0000       0.102465         2.7882 
 103   0.0000       0.104037         2.8310 
 104   0.0000       0.106897         2.9088 
 105   0.0000       0.109904         2.9906 
 106   0.0000       0.111802         3.0423 
 107   0.0000       0.117020         3.1843 
 108   0.0000       0.118818         3.2332 
 109   0.0000       0.122637         3.3371 
 110   0.0000       0.126450         3.4409 
 111   0.0000       0.128776         3.5042 
 112   0.0000       0.129370         3.5203 
 113   0.0000       0.131529         3.5791 
[...]
   Transformed RI-exchange        ...   480.29 sec
   (ab|v) reading and digestion   ...   365.97 sec
   Final sigma-completion         ...     0.01 sec
   Done building sigma-vectors             Size of expansion space: 60
   Lowest Energy          :     0.146035412618
   Maximum Energy change  :     0.000374483005 (vector 4)
   Maximum residual norm  :     0.000023807770

                       ****Iteration   10****
              <<< Entering MO-section for Build Sigma(Double) >>>
   Forming the XC and CPCM contribution:
   Time for densities:            0.282
   Time for XC-Integration:      20.890
   Time for LR-CPCM terms:       11.803
   Time for Sigma-Completion:     0.239
   Time for building 10 sigma-vectors
   Data Preparation Phase         ...     0.01 sec
   Transformed RI Coulomb         ...     0.91 sec
   Transformed RI-exchange        ...   463.82 sec
   (ab|v) reading and digestion   ...   427.50 sec
   Final sigma-completion         ...     0.01 sec
   Done building sigma-vectors             Size of expansion space: 70
   Lowest Energy          :     0.146035412615
   Maximum Energy change  :     0.000050697909 (vector 4)
   Maximum residual norm  :     0.000003523642
   Rebuilding the expansion space

                       ****Iteration   11****
              <<< Entering MO-section for Build Sigma(Double) >>>
   Forming the XC and CPCM contribution:
   Time for densities:            0.562
   Time for XC-Integration:      42.701
   Time for LR-CPCM terms:       18.515
   Time for Sigma-Completion:     0.440
   Time for building 20 sigma-vectors
   Data Preparation Phase         ...     0.02 sec
   Transformed RI Coulomb         ...     1.57 sec
   Transformed RI-exchange        ...   987.29 sec
   (ab|v) reading and digestion   ...   926.98 sec
   Final sigma-completion         ...     0.01 sec
   Done building sigma-vectors             Size of expansion space: 20
   Lowest Energy          :     0.146035412606
   Maximum Energy change  :     0.000004987100 (vector 4)
   Maximum residual norm  :     0.000000565464

      *** CONVERGENCE OF RESIDUAL NORM REACHED ***

Storing the converged CI vectors               ... optpbed3-b2plyp-test-531_job2.cis1

                 *** DAVIDSON DONE ***

Total time for solving the CIS problem:  6564.155sec

------------------
DOUBLES CORRECTION (Double precision version)
------------------

The (D) correction will be scaled by  0.2700
Doing v(i,a)*T(i,a) terms (RI)                    ... ok
Doing u(i,j,a,b) terms for state   0              ... ok
Doing u(i,j,a,b) terms for state   1              ... ok
Doing u(i,j,a,b) terms for state   2              ... ok
Doing u(i,j,a,b) terms for state   3              ... ok
Doing u(i,j,a,b) terms for state   4              ... ok
Doing u(i,j,a,b) terms for state   5              ... ok
Doing u(i,j,a,b) terms for state   6              ... ok
Doing u(i,j,a,b) terms for state   7              ... ok
Doing u(i,j,a,b) terms for state   8              ... ok
Doing u(i,j,a,b) terms for state   9              ... ok

Contributions to the (D) correction(s) (in eV)

STATE  Final   Init.   Total   v(ext)   v(int)  v(3)    u
       omega   omega     (D)                             
-----------------------------------------------------------------------------
   0   3.730   3.974  -0.244   0.626   0.992  -0.051  -1.811
   1   4.208   4.788  -0.581   0.606   0.898  -0.035  -2.049
   2   4.628   5.086  -0.458   0.518   0.932  -0.026  -1.881
   3   4.962   5.315  -0.353   0.593   0.935  -0.064  -1.818
   4   4.816   5.441  -0.625   0.661   0.770  -0.028  -2.027
   5   5.300   5.498  -0.198   0.056   0.990  -0.002  -1.241
   6   5.061   5.529  -0.468   0.420   0.958  -0.042  -1.804
   7   5.237   5.573  -0.336   0.251   0.948  -0.011  -1.524
   8   5.271   5.751  -0.480   0.365   0.977  -0.015  -1.806
   9   5.610   5.827  -0.217   0.148   0.920  -0.007  -1.278

(D)-timings
 V(i,a)*T(i,a) terms           ...   516.355 sec
 U(i,j,a,b) 3-internal         ...    13.606 sec
 U(i,j,a,b) 3-external         ...   319.572 sec
 U(i,j,a,b) pair terms         ...   256.580 sec
 Total measured time           ...  2360.139 sec

 Time for (ab|v) I/O           ...    77.953 sec


------------------------------------
TD-DFT/TDA EXCITED STATES (SINGLETS)
------------------------------------

the weight of the individual excitations are printed if larger than 1.0e-02

STATE  1:  E=   0.137059 au      3.730 eV    30080.9 cm**-1 <S**2> =   0.000000
    69a ->  70a  :     0.946987 (c= -0.97313271)

STATE  2:  E=   0.154629 au      4.208 eV    33937.2 cm**-1 <S**2> =   0.000000
    67a ->  75a  :     0.025166 (c=  0.15863935)
    68a ->  70a  :     0.737001 (c= -0.85848745)
    68a ->  75a  :     0.010087 (c= -0.10043280)
    68a ->  77a  :     0.019099 (c=  0.13819829)
    68a ->  80a  :     0.018907 (c=  0.13750241)
    69a ->  74a  :     0.010756 (c= -0.10371228)
    69a ->  75a  :     0.059083 (c= -0.24306966)

STATE  3:  E=   0.170086 au      4.628 eV    37329.5 cm**-1 <S**2> =   0.000000
    66a ->  70a  :     0.381864 (c= -0.61795122)
    66a ->  76a  :     0.017811 (c= -0.13345949)
    66a ->  77a  :     0.032199 (c= -0.17944194)
    66a ->  80a  :     0.012175 (c= -0.11034207)
    67a ->  76a  :     0.055225 (c= -0.23500094)
    67a ->  77a  :     0.027357 (c=  0.16539961)
    69a ->  73a  :     0.019522 (c= -0.13972248)
    69a ->  74a  :     0.026381 (c=  0.16242278)
    69a ->  76a  :     0.207947 (c= -0.45601223)
    69a ->  77a  :     0.101864 (c=  0.31916206)
    69a ->  78a  :     0.017349 (c=  0.13171686)

STATE  4:  E=   0.182348 au      4.962 eV    40020.7 cm**-1 <S**2> =   0.000000
    64a ->  70a  :     0.020451 (c=  0.14300683)
    65a ->  70a  :     0.015644 (c=  0.12507706)
    66a ->  76a  :     0.012348 (c=  0.11111961)
    67a ->  70a  :     0.690374 (c= -0.83088777)
    68a ->  70a  :     0.013292 (c=  0.11529248)
    68a ->  75a  :     0.044986 (c= -0.21209843)
    69a ->  75a  :     0.012935 (c=  0.11373396)
    69a ->  76a  :     0.016369 (c= -0.12794090)
    69a ->  77a  :     0.034365 (c= -0.18537808)
    69a ->  80a  :     0.013568 (c= -0.11648130)

STATE  5:  E=   0.176990 au      4.816 eV    38844.8 cm**-1 <S**2> =   0.000000
    64a ->  70a  :     0.611922 (c= -0.78225432)
    64a ->  77a  :     0.010833 (c=  0.10408385)
    64a ->  89a  :     0.011843 (c=  0.10882341)
    64a ->  91a  :     0.017599 (c=  0.13266210)
    65a ->  70a  :     0.208497 (c= -0.45661509)
    67a ->  70a  :     0.020931 (c= -0.14467441)

STATE  6:  E=   0.194769 au      5.300 eV    42746.9 cm**-1 <S**2> =   0.000000
    66a ->  70a  :     0.012879 (c= -0.11348683)
    67a ->  71a  :     0.014638 (c= -0.12098665)
    67a ->  72a  :     0.013068 (c=  0.11431647)
    69a ->  71a  :     0.364730 (c= -0.60392873)
    69a ->  72a  :     0.326760 (c= -0.57162935)
    69a ->  74a  :     0.094279 (c= -0.30704851)
    69a ->  75a  :     0.042033 (c=  0.20501954)
    69a ->  82a  :     0.031753 (c= -0.17819331)
    69a ->  85a  :     0.013073 (c= -0.11433659)

STATE  7:  E=   0.185994 au      5.061 eV    40821.0 cm**-1 <S**2> =   0.000000
    63a ->  70a  :     0.020382 (c=  0.14276400)
    67a ->  75a  :     0.038538 (c= -0.19631120)
    67a ->  76a  :     0.013592 (c= -0.11658447)
    67a ->  77a  :     0.015644 (c= -0.12507530)
    68a ->  70a  :     0.122785 (c= -0.35040621)
    68a ->  80a  :     0.016938 (c= -0.13014493)
    68a ->  89a  :     0.014690 (c=  0.12120351)
    69a ->  72a  :     0.049022 (c=  0.22140908)
    69a ->  73a  :     0.048796 (c=  0.22089922)
    69a ->  74a  :     0.029032 (c=  0.17038845)
    69a ->  75a  :     0.414849 (c=  0.64408795)
    69a ->  76a  :     0.016806 (c=  0.12963785)
    69a ->  78a  :     0.013837 (c= -0.11763218)
    69a ->  90a  :     0.011369 (c=  0.10662762)

STATE  8:  E=   0.192450 au      5.237 eV    42237.9 cm**-1 <S**2> =   0.000000
    67a ->  70a  :     0.036602 (c= -0.19131700)
    67a ->  72a  :     0.027745 (c=  0.16656773)
    68a ->  70a  :     0.015443 (c= -0.12427006)
    68a ->  72a  :     0.038575 (c=  0.19640609)
    68a ->  90a  :     0.012178 (c=  0.11035282)
    69a ->  71a  :     0.113737 (c=  0.33724852)
    69a ->  72a  :     0.196229 (c= -0.44297780)
    69a ->  73a  :     0.012161 (c=  0.11027907)
    69a ->  74a  :     0.115286 (c=  0.33953836)
    69a ->  76a  :     0.042801 (c=  0.20688473)
    69a ->  77a  :     0.028822 (c=  0.16977190)
    69a ->  78a  :     0.014175 (c=  0.11905832)
    69a ->  79a  :     0.041462 (c= -0.20362181)
    69a ->  82a  :     0.031185 (c=  0.17659169)
    69a ->  85a  :     0.013077 (c= -0.11435489)
    69a ->  87a  :     0.013273 (c= -0.11521032)
    69a ->  90a  :     0.035218 (c= -0.18766585)
    69a ->  93a  :     0.011229 (c=  0.10596620)

STATE  9:  E=   0.193719 au      5.271 eV    42516.4 cm**-1 <S**2> =   0.000000
    66a ->  70a  :     0.013942 (c= -0.11807426)
    66a ->  76a  :     0.012789 (c= -0.11308670)
    67a ->  70a  :     0.120406 (c= -0.34699513)
    67a ->  71a  :     0.010784 (c= -0.10384774)
    68a ->  75a  :     0.032482 (c=  0.18022768)
    69a ->  71a  :     0.088617 (c= -0.29768667)
    69a ->  72a  :     0.044228 (c=  0.21030531)
    69a ->  73a  :     0.067457 (c=  0.25972522)
    69a ->  75a  :     0.123607 (c= -0.35157831)
    69a ->  76a  :     0.100056 (c=  0.31631661)
    69a ->  77a  :     0.221529 (c=  0.47066868)
    69a ->  79a  :     0.017641 (c=  0.13281979)
    69a ->  80a  :     0.018088 (c=  0.13449026)
    69a ->  84a  :     0.014631 (c= -0.12095814)

STATE 10:  E=   0.206163 au      5.610 eV    45247.6 cm**-1 <S**2> =   0.000000
    66a ->  70a  :     0.012408 (c=  0.11139282)
    67a ->  71a  :     0.018718 (c= -0.13681340)
    68a ->  72a  :     0.296525 (c=  0.54454131)
    68a ->  74a  :     0.014724 (c= -0.12134052)
    68a ->  78a  :     0.011127 (c= -0.10548527)
    68a ->  79a  :     0.030208 (c=  0.17380592)
    68a ->  82a  :     0.016745 (c= -0.12940321)
    68a ->  85a  :     0.026215 (c=  0.16191062)
    68a ->  90a  :     0.032629 (c=  0.18063586)
    68a ->  93a  :     0.014416 (c= -0.12006681)
    69a ->  71a  :     0.105217 (c= -0.32437215)
    69a ->  72a  :     0.125444 (c=  0.35418033)
    69a ->  73a  :     0.046240 (c= -0.21503500)
    69a ->  78a  :     0.011147 (c=  0.10558064)
    69a ->  82a  :     0.049228 (c=  0.22187338)
    69a ->  83a  :     0.010237 (c=  0.10117827)


-----------------------------
TD-DFT/TDA-EXCITATION SPECTRA
-----------------------------

Center of mass = ( -1.1290, -0.0795, -0.3631)
Calculating the Dipole integrals                  ... done
Transforming integrals                            ... done
Calculating the Linear Momentum integrals         ... done
Transforming integrals                            ... done
Calculating angular momentum integrals            ... done
Transforming integrals                            ... done

-----------------------------------------------------------------------------
         ABSORPTION SPECTRUM VIA TRANSITION ELECTRIC DIPOLE MOMENTS
-----------------------------------------------------------------------------
State   Energy    Wavelength  fosc         T2        TX        TY        TZ  
        (cm-1)      (nm)                 (au**2)    (au)      (au)      (au) 
-----------------------------------------------------------------------------
   1   30080.9    332.4   1.386244208  15.17135   3.88408  -0.29184  -0.01032
   2   33937.2    294.7   0.111381108   1.08047   0.87911  -0.25538  -0.49235
   3   37329.5    267.9   0.001482553   0.01307   0.11234  -0.01024  -0.01869
   4   40020.7    249.9   0.036902118   0.30356   0.50007  -0.13783  -0.18573
   5   38844.8    257.4   0.006270908   0.05315   0.21280  -0.01519  -0.08735
   6   42746.9    233.9   0.004132300   0.03182   0.05303   0.17027  -0.00468
   7   40821.0    245.0   0.196712077   1.58644   1.05195  -0.36936  -0.58601
   8   42237.9    236.8   0.019222029   0.14982   0.24984  -0.02203  -0.29481
   9   42516.4    235.2   0.029522860   0.22860  -0.42598   0.16601   0.13994
  10   45247.6    221.0   0.005884361   0.04281   0.06363  -0.17423  -0.09170

-----------------------------------------------------------------------------
         ABSORPTION SPECTRUM VIA TRANSITION VELOCITY DIPOLE MOMENTS
-----------------------------------------------------------------------------
State   Energy    Wavelength   fosc        P2         PX        PY        PZ  
        (cm-1)      (nm)                 (au**2)     (au)      (au)      (au) 
-----------------------------------------------------------------------------
   1   30080.9    332.4   0.915481281   0.18821  -0.43283   0.02296  -0.01859
   2   33937.2    294.7   0.038512656   0.00893  -0.09146  -0.00329  -0.02361
   3   37329.5    267.9   0.001610142   0.00041  -0.01591  -0.01018  -0.00735
   4   40020.7    249.9   0.044576630   0.01219  -0.10720   0.01263   0.02325
   5   38844.8    257.4   0.007554806   0.00201  -0.03509   0.02747  -0.00444
   6   42746.9    233.9   0.002579744   0.00075  -0.00629  -0.02632   0.00460
   7   40821.0    245.0   0.070515911   0.01967  -0.13974   0.01082  -0.00543
   8   42237.9    236.8   0.003818261   0.00110  -0.03234  -0.00589   0.00463
   9   42516.4    235.2   0.013008930   0.00378   0.06067  -0.00944  -0.00321
  10   45247.6    221.0   0.000906506   0.00028  -0.01142   0.01165   0.00377

-------------------------------------------------------------------
                             CD SPECTRUM
-------------------------------------------------------------------
State  Energy     Wavelength     R         MX        MY        MZ   
       (cm-1)       (nm)     (1e40*cgs)   (au)      (au)      (au)  
-------------------------------------------------------------------
   1   30080.9    332.4     97.30786   0.07433   0.28554  -0.10113
   2   33937.2    294.7      3.19884   0.01581   0.09834  -0.03656
   3   37329.5    267.9     -0.43296  -0.00247  -0.02213   0.04643
   4   40020.7    249.9     36.67962   0.11122  -0.29035   0.09602
   5   38844.8    257.4    -38.47695  -0.34113  -0.01736   0.10628
   6   42746.9    233.9     -5.05727  -0.05084  -0.04652   0.02337
   7   40821.0    245.0     32.70583   0.00957  -0.34485   0.11616
   8   42237.9    236.8    -13.85384  -0.04555  -0.09319   0.06804
   9   42516.4    235.2     14.74367  -0.03659  -0.00264   0.11522
  10   45247.6    221.0    -25.11122  -0.12602   0.16254   0.18457

-------------------------------------------------------------------
         CD SPECTRUM VIA TRANSITION VELOCITY DIPOLE MOMENTS        
-------------------------------------------------------------------
State  Energy     Wavelength     R         MX        MY        MZ   
       (cm-1)       (nm)     (1e40*cgs)   (au)      (au)      (au)  
-------------------------------------------------------------------
   1   30080.9    332.4    -81.63989   0.07433   0.28554  -0.10113
   2   33937.2    294.7     -2.76188   0.01581   0.09834  -0.03656
   3   37329.5    267.9     -0.21279  -0.00247  -0.02213   0.04643
   4   40020.7    249.9    -34.53303   0.11122  -0.29035   0.09602
   5   38844.8    257.4     29.36158  -0.34113  -0.01736   0.10628
   6   42746.9    233.9      3.99889  -0.05084  -0.04652   0.02337
   7   40821.0    245.0    -14.44937   0.00957  -0.34485   0.11616
   8   42237.9    236.8      5.72637  -0.04555  -0.09319   0.06804
   9   42516.4    235.2     -6.24112  -0.03659  -0.00264   0.11522
  10   45247.6    221.0      9.21189  -0.12602   0.16254   0.18457

Total run time:     8931.574 sec

           *** ORCA-CIS/TD-DFT FINISHED WITHOUT ERROR ***

Maximum memory used throughout the entire CIS-calculation: 1284.4 MB

-----------------------
CIS/TD-DFT TOTAL ENERGY
-----------------------

    E(SCF)  =  -1108.315403869 Eh
    DE(CIS) =      0.137058725 Eh (Root  1)
    ----------------------------- ---------
    E(tot)  =  -1108.178345145 Eh



-------------------------------------------------------------------------------
                          DFT DISPERSION CORRECTION                            
                                                                               
                              DFTD3 V3.1  Rev 1                                
                          USING Becke-Johnson damping                          
-------------------------------------------------------------------------------
The B2PLYP functional is recognized
Active option DFTDOPT                   ...         4   

molecular C6(AA) [au] = 15635.857929 


            DFT-D V3
 parameters
 s6 scaling factor         :     0.6400 
 a1 scaling factor         :     0.3065 
 s8 scaling factor         :     0.9147 
 a2 scaling factor         :     5.0570 
 ad hoc parameters k1-k3   :    16.0000     1.3333    -4.0000 

 Edisp/kcal,au: -22.739993210321  -0.036238482006 
 E6   /kcal   : -12.479402464 
 E8   /kcal   : -10.260590746 
 % E8         :  45.121344810 

-------------------------   ----------------
Dispersion correction           -0.036238482
-------------------------   ----------------


-------------------------   --------------------
FINAL SINGLE POINT ENERGY     -1108.214583626772
-------------------------   --------------------


                            ***************************************
                            *     ORCA property calculations      *
                            ***************************************


  WARNING: The energy has been calculated at the MP2 level but the densities
           used in the property calculations are still SCF densities
           MP2 response densities have not been calculated 
           use %mp2 Density relaxed end
           or  %mp2 Density unrelaxed end

                                    ---------------------
                                    Active property flags
                                    ---------------------
   (+) Dipole Moment


------------------------------------------------------------------------------
                       ORCA ELECTRIC PROPERTIES CALCULATION
------------------------------------------------------------------------------

Dipole Moment Calculation                       ... on
Quadrupole Moment Calculation                   ... off
Polarizability Calculation                      ... off
GBWName                                         ... optpbed3-b2plyp-test-531_job2.gbw
Electron density                                ... optpbed3-b2plyp-test-531_job2.scfp
The origin for moment calculation is the CENTER OF MASS  = (-1.128998, -0.079465 -0.363054)

-------------
DIPOLE MOMENT
-------------
                                X             Y             Z
Electronic contribution:    -16.90170      -1.07787      -5.61073
Nuclear contribution   :     17.65686       0.89197       5.30274
                        -----------------------------------------
Total Dipole Moment    :      0.75516      -0.18590      -0.30799
                        -----------------------------------------
Magnitude (a.u.)       :      0.83647
Magnitude (Debye)      :      2.12614



--------------------
Rotational spectrum 
--------------------
 
Rotational constants in cm-1:     0.048806     0.004241     0.003946 
Rotational constants in MHz :  1463.176635   127.151075   118.294034 

 Dipole components along the rotational axes: 
x,y,z [a.u.] :     0.749397    -0.369046    -0.043492 
x,y,z [Debye]:     1.904815    -0.938039    -0.110549 

 

Timings for individual modules:

Sum of individual times         ...    10851.949 sec (= 180.866 min)
GTO integral calculation        ...        5.779 sec (=   0.096 min)   0.1 %
SCF iterations                  ...      935.815 sec (=  15.597 min)   8.6 %
MP2 module                      ...      974.422 sec (=  16.240 min)   9.0 %
CIS module                      ...     8935.933 sec (= 148.932 min)  82.3 %



                             ****ORCA TERMINATED NORMALLY****
TOTAL RUN TIME: 0 days 5 hours 31 minutes 27 seconds 466 msec
