
                                 *****************
                                 * O   R   C   A *
                                 *****************

                                            #,                                       
                                            ###                                      
                                            ####                                     
                                            #####                                    
                                            ######                                   
                                           ########,                                 
                                     ,,################,,,,,                         
                               ,,#################################,,                 
                          ,,##########################################,,             
                       ,#########################################, ''#####,          
                    ,#############################################,,   '####,        
                  ,##################################################,,,,####,       
                ,###########''''           ''''###############################       
              ,#####''   ,,,,##########,,,,          '''####'''          '####       
            ,##' ,,,,###########################,,,                        '##       
           ' ,,###''''                  '''############,,,                           
         ,,##''                                '''############,,,,        ,,,,,,###''
      ,#''                                            '''#######################'''  
     '                                                          ''''####''''         
             ,#######,   #######,   ,#######,      ##                                
            ,#'     '#,  ##    ##  ,#'     '#,    #''#        ######   ,####,        
            ##       ##  ##   ,#'  ##            #'  '#       #        #'  '#        
            ##       ##  #######   ##           ,######,      #####,   #    #        
            '#,     ,#'  ##    ##  '#,     ,#' ,#      #,         ##   #,  ,#        
             '#######'   ##     ##  '#######'  #'      '#     #####' # '####'        



                  #######################################################
                  #                        -***-                        #
                  #          Department of theory and spectroscopy      #
                  #    Directorship and core code : Frank Neese         #
                  #        Max Planck Institute fuer Kohlenforschung    #
                  #                Kaiser Wilhelm Platz 1               #
                  #                 D-45470 Muelheim/Ruhr               #
                  #                      Germany                        #
                  #                                                     #
                  #                  All rights reserved                #
                  #                        -***-                        #
                  #######################################################


                         Program Version 5.0.2 -  RELEASE  -


 With contributions from (in alphabetic order):
   Daniel Aravena         : Magnetic Suceptibility
   Michael Atanasov       : Ab Initio Ligand Field Theory (pilot matlab implementation)
   Alexander A. Auer      : GIAO ZORA, VPT2 properties, NMR spectrum
   Ute Becker             : Parallelization
   Giovanni Bistoni       : ED, misc. LED, open-shell LED, HFLD
   Martin Brehm           : Molecular dynamics
   Dmytro Bykov           : SCF Hessian
   Vijay G. Chilkuri      : MRCI spin determinant printing, contributions to CSF-ICE
   Dipayan Datta          : RHF DLPNO-CCSD density
   Achintya Kumar Dutta   : EOM-CC, STEOM-CC
   Dmitry Ganyushin       : Spin-Orbit,Spin-Spin,Magnetic field MRCI
   Miquel Garcia          : C-PCM and meta-GGA Hessian, CC/C-PCM, Gaussian charge scheme
   Yang Guo               : DLPNO-NEVPT2, F12-NEVPT2, CIM, IAO-localization
   Andreas Hansen         : Spin unrestricted coupled pair/coupled cluster methods
   Benjamin Helmich-Paris : MC-RPA, TRAH-SCF, COSX integrals
   Lee Huntington         : MR-EOM, pCC
   Robert Izsak           : Overlap fitted RIJCOSX, COSX-SCS-MP3, EOM
   Marcus Kettner         : VPT2
   Christian Kollmar      : KDIIS, OOCD, Brueckner-CCSD(T), CCSD density, CASPT2, CASPT2-K
   Simone Kossmann        : Meta GGA functionals, TD-DFT gradient, OOMP2, MP2 Hessian
   Martin Krupicka        : Initial AUTO-CI
   Lucas Lang             : DCDCAS
   Marvin Lechner         : AUTO-CI (C++ implementation), FIC-MRCC
   Dagmar Lenk            : GEPOL surface, SMD
   Dimitrios Liakos       : Extrapolation schemes; Compound Job, initial MDCI parallelization
   Dimitrios Manganas     : Further ROCIS development; embedding schemes
   Dimitrios Pantazis     : SARC Basis sets
   Anastasios Papadopoulos: AUTO-CI, single reference methods and gradients
   Taras Petrenko         : DFT Hessian,TD-DFT gradient, ASA, ECA, R-Raman, ABS, FL, XAS/XES, NRVS
   Peter Pinski           : DLPNO-MP2, DLPNO-MP2 Gradient
   Christoph Reimann      : Effective Core Potentials
   Marius Retegan         : Local ZFS, SOC
   Christoph Riplinger    : Optimizer, TS searches, QM/MM, DLPNO-CCSD(T), (RO)-DLPNO pert. Triples
   Tobias Risthaus        : Range-separated hybrids, TD-DFT gradient, RPA, STAB
   Michael Roemelt        : Original ROCIS implementation
   Masaaki Saitow         : Open-shell DLPNO-CCSD energy and density
   Barbara Sandhoefer     : DKH picture change effects
   Avijit Sen             : IP-ROCIS
   Kantharuban Sivalingam : CASSCF convergence, NEVPT2, FIC-MRCI
   Bernardo de Souza      : ESD, SOC TD-DFT
   Georgi Stoychev        : AutoAux, RI-MP2 NMR, DLPNO-MP2 response
   Willem Van den Heuvel  : Paramagnetic NMR
   Boris Wezisla          : Elementary symmetry handling
   Frank Wennmohs         : Technical directorship


 We gratefully acknowledge several colleagues who have allowed us to
 interface, adapt or use parts of their codes:
   Stefan Grimme, W. Hujo, H. Kruse, P. Pracht,  : VdW corrections, initial TS optimization,
                  C. Bannwarth, S. Ehlert          DFT functionals, gCP, sTDA/sTD-DF
   Ed Valeev, F. Pavosevic, A. Kumar             : LibInt (2-el integral package), F12 methods
   Garnet Chan, S. Sharma, J. Yang, R. Olivares  : DMRG
   Ulf Ekstrom                                   : XCFun DFT Library
   Mihaly Kallay                                 : mrcc  (arbitrary order and MRCC methods)
   Jiri Pittner, Ondrej Demel                    : Mk-CCSD
   Frank Weinhold                                : gennbo (NPA and NBO analysis)
   Christopher J. Cramer and Donald G. Truhlar   : smd solvation model
   Lars Goerigk                                  : TD-DFT with DH, B97 family of functionals
   V. Asgeirsson, H. Jonsson                     : NEB implementation
   FAccTs GmbH                                   : IRC, NEB, NEB-TS, DLPNO-Multilevel, CI-OPT
                                                   MM, QMMM, 2- and 3-layer-ONIOM, Crystal-QMMM,
                                                   LR-CPCM, SF, NACMEs, symmetry and pop. for TD-DFT,
                                                   nearIR, NL-DFT gradient (VV10), updates on ESD,
                                                   ML-optimized integration grids
   S Lehtola, MJT Oliveira, MAL Marques          : LibXC Library
   Liviu Ungur et al                             : ANISO software


 Your calculation uses the libint2 library for the computation of 2-el integrals
 For citations please refer to: http://libint.valeyev.net

 Your ORCA version has been built with support for libXC version: 5.1.0
 For citations please refer to: https://tddft.org/programs/libxc/

 This ORCA versions uses:
   CBLAS   interface :  Fast vector & matrix operations
   LAPACKE interface :  Fast linear algebra routines
   SCALAPACK package :  Parallel linear algebra routines
   Shared memory     :  Shared parallel matrices
   BLAS/LAPACK       :  OpenBLAS 0.3.15  USE64BITINT DYNAMIC_ARCH NO_AFFINITY Sandybridge SINGLE_THREADED
        Core in use  :  Sandybridge
   Copyright (c) 2011-2014, The OpenBLAS Project


Your calculation utilizes the atom-pairwise dispersion correction
with the Becke-Johnson damping scheme (D3BJ)
Cite in your paper:
S.Grimme, S.Ehrlich, L.Goerigk, J Comput Chem, (2011), 32, 1456–1465 
S.Grimme, J.Antony, S.Ehrlich and H.Krieg, J.Chem.Phys., 132, (2010), 154104 
   

Your calculation utilizes the SMD solvation module
Please cite in your paper:
A.V. Marenich, C.J. Cramer, D.G. Truhlar J. Phys. Chem. B, 113, (2009), 6378 

================================================================================

----- Orbital basis set information -----
Your calculation utilizes the basis: aug-cc-pVTZ 
    H, B-Ne : Obtained from the ccRepo (grant-hill.group.shef.ac.uk/ccrepo) Feb. 2017
              R. A. Kendall, T. H. Dunning, Jr., R. J. Harrison, J. Chem. Phys. 96, 6796 (1992)
         He : Obtained from the ccRepo (grant-hill.group.shef.ac.uk/ccrepo) Feb. 2017
              D. E. Woon, T. H. Dunning, Jr., J. Chem. Phys. 100, 2975 (1994)
  Li-Be, Na : Obtained from the ccRepo (grant-hill.group.shef.ac.uk/ccrepo) Feb. 2017
              B. P. Prascher, D. E. Woon, K. A. Peterson, T. H. Dunning, Jr., A. K. Wilson, Theor. Chem. Acc. 128, 69 (2011)
         Mg : Obtained from the Peterson Research Group Website (tyr0.chem.wsu.edu/~kipeters) Feb. 2017
              B. P. Prascher, D. E. Woon, K. A. Peterson, T. H. Dunning, Jr., A. K. Wilson, Theor. Chem. Acc. 128, 69 (2011)
      Al-Ar : Obtained from the ccRepo (grant-hill.group.shef.ac.uk/ccrepo) Feb. 2017
              D. E. Woon, T. H. Dunning, Jr., J. Chem. Phys. 98, 1358 (1993)
      Sc-Zn : Obtained from the ccRepo (grant-hill.group.shef.ac.uk/ccrepo) Feb. 2017
              N. B. Balabanov, K. A. Peterson, J. Chem. Phys. 123, 064107 (2005)
              N. B. Balabanov, K. A. Peterson, J. Chem. Phys. 125, 074110 (2006)
      Ga-Kr : Obtained from the ccRepo (grant-hill.group.shef.ac.uk/ccrepo) Feb. 2017
              A. K. Wilson, D. E. Woon, K. A. Peterson, T. H. Dunning, Jr., J. Chem. Phys. 110, 7667 (1999)
     Ag, Au : Obtained from the Peterson Research Group Website (tyr0.chem.wsu.edu/~kipeters) Feb. 2017
              K. A. Peterson, C. Puzzarini, Theor. Chem. Acc. 114, 283 (2005)

The basis set includes element-specific modifications.

Your calculation utilizes the basis: cc-pVTZ 
       H, B-Ne : Obtained from the ccRepo (grant-hill.group.shef.ac.uk/ccrepo) Feb. 2017
                 T. H. Dunning, Jr., J. Chem. Phys. 90, 1007 (1989)
            He : Obtained from the ccRepo (grant-hill.group.shef.ac.uk/ccrepo) Feb. 2017
                 D. E. Woon, T. H. Dunning, Jr., J. Chem. Phys. 100, 2975 (1994)
  Li-Be, Na-Mg : Obtained from the ccRepo (grant-hill.group.shef.ac.uk/ccrepo) Feb. 2017
                 B. P. Prascher, D. E. Woon, K. A. Peterson, T. H. Dunning, Jr., A. K. Wilson, Theor. Chem. Acc. 128, 69 (2011)
         Al-Ar : Obtained from the ccRepo (grant-hill.group.shef.ac.uk/ccrepo) Feb. 2017
                 D. E. Woon, T. H. Dunning, Jr., J. Chem. Phys. 98, 1358 (1993)
            Ca : Obtained from the Peterson Research Group Website (tyr0.chem.wsu.edu/~kipeters) Feb. 2017
                 J. Koput, K. A. Peterson, J. Phys. Chem. 106, 9595 (2002)
         Sc-Zn : Obtained from the ccRepo (grant-hill.group.shef.ac.uk/ccrepo) Feb. 2017
                 N. B. Balabanov, K. A. Peterson, J. Chem. Phys. 123, 064107 (2005)
                 N. B. Balabanov, K. A. Peterson, J. Chem. Phys. 125, 074110 (2006)
         Ga-Kr : Obtained from the ccRepo (grant-hill.group.shef.ac.uk/ccrepo) Feb. 2017
                 A. K. Wilson, D. E. Woon, K. A. Peterson, T. H. Dunning, Jr., J. Chem. Phys. 110, 7667 (1999)
             Y : Obtained from the ccRepo (grant-hill.group.shef.ac.uk/ccrepo) Feb. 2017
                 K. A. Peterson, D. Figgen, M. Dolg, H. Stoll, J. Chem. Phys. 126, 124101 (2007)
        Ag, Au : Obtained from the Peterson Research Group Website (tyr0.chem.wsu.edu/~kipeters) Feb. 2017
                 K. A. Peterson, C. Puzzarini, Theor. Chem. Acc. 114, 283 (2005)

----- AuxJ basis set information -----
Your calculation utilizes the auxiliary basis: aug-cc-pVTZ/JK 
  H, B-F, Al-Cl, Ga-Br : Obtained from the TURBOMOLE 7.0 basis set library

The basis set includes element-specific modifications.

Your calculation utilizes the auxiliary basis: cc-pVTZ/JK 
  H, B-F, Al-Cl, Ga-Br : Obtained from the TURBOMOLE 7.0 basis set library

----- AuxC basis set information -----
Your calculation utilizes the auxiliary basis: aug-cc-pVTZ/C 
  H-He, B-F, Al-Ar, Ga-Kr : Obtained from the EMSL Basis Set Exchange (bse.pnl.gov) Feb. 2017
                            F. Weigend, A. Kohn, C. Hattig, J. Chem. Phys. 116, 3175 (2002)
                   Be, Mg : Obtained from the TURBOMOLE 7.0 basis set library
                            C. Haettig, Phys. Chem. Chem. Phys. 7, 59 (2005)
                       Ne : Obtained from the EMSL Basis Set Exchange (bse.pnl.gov) Feb. 2017
                            C. Haettig, Phys. Chem. Chem. Phys. 7, 59 (2005)
                            F. Weigend, A. Kohn, C. Hattig, J. Chem. Phys. 116, 3175 (2002)
                    Sc-Zn : Obtained from the EMSL Basis Set Exchange (bse.pnl.gov) Feb. 2017
                            J. G. Hill, J. A. Platts, J. Chem. Phys. 128, 044104 (2008)

The basis set includes element-specific modifications.

Your calculation utilizes the auxiliary basis: cc-pVTZ/C 
  Obtained from the EMSL Basis Set Exchange (bse.pnl.gov) Feb. 2017
  H-He, B-F, Al-Ar, Ga-Kr : F. Weigend, A. Kohn, C. Hattig, J. Chem. Phys. 116, 3175 (2002)
             Li-Be, Na-Mg : C. Haettig, Phys. Chem. Chem. Phys. 7, 59 (2005)
                       Ne : C. Haettig, Phys. Chem. Chem. Phys. 7, 59 (2005)
                            F. Weigend, A. Kohn, C. Hattig, J. Chem. Phys. 116, 3175 (2002)
                    Sc-Zn : J. G. Hill, J. A. Platts, J. Chem. Phys. 128, 044104 (2008)

================================================================================
                                        WARNINGS
                       Please study these warnings very carefully!
================================================================================


WARNING: Geometry Optimization
  ===> : Switching off AutoStart
         For restart on a previous wavefunction, please use MOREAD

INFO   : the flag for use of the SHARK integral package has been found!



***************************************
The coordinates will be read from file: 
***************************************


Your calculation utilizes the atom-pairwise dispersion correction
with the Becke-Johnson damping scheme (D3BJ)
Cite in your paper:
S.Grimme, S.Ehrlich, L.Goerigk, J Comput Chem, (2011), 32, 1456–1465 
S.Grimme, J.Antony, S.Ehrlich and H.Krieg, J.Chem.Phys., 132, (2010), 154104 
   

Your calculation utilizes the SMD solvation module
Please cite in your paper:
A.V. Marenich, C.J. Cramer, D.G. Truhlar J. Phys. Chem. B, 113, (2009), 6378 

================================================================================

----- Orbital basis set information -----
Your calculation utilizes the basis: aug-cc-pVTZ 
    H, B-Ne : Obtained from the ccRepo (grant-hill.group.shef.ac.uk/ccrepo) Feb. 2017
              R. A. Kendall, T. H. Dunning, Jr., R. J. Harrison, J. Chem. Phys. 96, 6796 (1992)
         He : Obtained from the ccRepo (grant-hill.group.shef.ac.uk/ccrepo) Feb. 2017
              D. E. Woon, T. H. Dunning, Jr., J. Chem. Phys. 100, 2975 (1994)
  Li-Be, Na : Obtained from the ccRepo (grant-hill.group.shef.ac.uk/ccrepo) Feb. 2017
              B. P. Prascher, D. E. Woon, K. A. Peterson, T. H. Dunning, Jr., A. K. Wilson, Theor. Chem. Acc. 128, 69 (2011)
         Mg : Obtained from the Peterson Research Group Website (tyr0.chem.wsu.edu/~kipeters) Feb. 2017
              B. P. Prascher, D. E. Woon, K. A. Peterson, T. H. Dunning, Jr., A. K. Wilson, Theor. Chem. Acc. 128, 69 (2011)
      Al-Ar : Obtained from the ccRepo (grant-hill.group.shef.ac.uk/ccrepo) Feb. 2017
              D. E. Woon, T. H. Dunning, Jr., J. Chem. Phys. 98, 1358 (1993)
      Sc-Zn : Obtained from the ccRepo (grant-hill.group.shef.ac.uk/ccrepo) Feb. 2017
              N. B. Balabanov, K. A. Peterson, J. Chem. Phys. 123, 064107 (2005)
              N. B. Balabanov, K. A. Peterson, J. Chem. Phys. 125, 074110 (2006)
      Ga-Kr : Obtained from the ccRepo (grant-hill.group.shef.ac.uk/ccrepo) Feb. 2017
              A. K. Wilson, D. E. Woon, K. A. Peterson, T. H. Dunning, Jr., J. Chem. Phys. 110, 7667 (1999)
     Ag, Au : Obtained from the Peterson Research Group Website (tyr0.chem.wsu.edu/~kipeters) Feb. 2017
              K. A. Peterson, C. Puzzarini, Theor. Chem. Acc. 114, 283 (2005)

The basis set includes element-specific modifications.

Your calculation utilizes the basis: cc-pVTZ 
       H, B-Ne : Obtained from the ccRepo (grant-hill.group.shef.ac.uk/ccrepo) Feb. 2017
                 T. H. Dunning, Jr., J. Chem. Phys. 90, 1007 (1989)
            He : Obtained from the ccRepo (grant-hill.group.shef.ac.uk/ccrepo) Feb. 2017
                 D. E. Woon, T. H. Dunning, Jr., J. Chem. Phys. 100, 2975 (1994)
  Li-Be, Na-Mg : Obtained from the ccRepo (grant-hill.group.shef.ac.uk/ccrepo) Feb. 2017
                 B. P. Prascher, D. E. Woon, K. A. Peterson, T. H. Dunning, Jr., A. K. Wilson, Theor. Chem. Acc. 128, 69 (2011)
         Al-Ar : Obtained from the ccRepo (grant-hill.group.shef.ac.uk/ccrepo) Feb. 2017
                 D. E. Woon, T. H. Dunning, Jr., J. Chem. Phys. 98, 1358 (1993)
            Ca : Obtained from the Peterson Research Group Website (tyr0.chem.wsu.edu/~kipeters) Feb. 2017
                 J. Koput, K. A. Peterson, J. Phys. Chem. 106, 9595 (2002)
         Sc-Zn : Obtained from the ccRepo (grant-hill.group.shef.ac.uk/ccrepo) Feb. 2017
                 N. B. Balabanov, K. A. Peterson, J. Chem. Phys. 123, 064107 (2005)
                 N. B. Balabanov, K. A. Peterson, J. Chem. Phys. 125, 074110 (2006)
         Ga-Kr : Obtained from the ccRepo (grant-hill.group.shef.ac.uk/ccrepo) Feb. 2017
                 A. K. Wilson, D. E. Woon, K. A. Peterson, T. H. Dunning, Jr., J. Chem. Phys. 110, 7667 (1999)
             Y : Obtained from the ccRepo (grant-hill.group.shef.ac.uk/ccrepo) Feb. 2017
                 K. A. Peterson, D. Figgen, M. Dolg, H. Stoll, J. Chem. Phys. 126, 124101 (2007)
        Ag, Au : Obtained from the Peterson Research Group Website (tyr0.chem.wsu.edu/~kipeters) Feb. 2017
                 K. A. Peterson, C. Puzzarini, Theor. Chem. Acc. 114, 283 (2005)

----- AuxJ basis set information -----
Your calculation utilizes the auxiliary basis: aug-cc-pVTZ/JK 
  H, B-F, Al-Cl, Ga-Br : Obtained from the TURBOMOLE 7.0 basis set library

The basis set includes element-specific modifications.

Your calculation utilizes the auxiliary basis: cc-pVTZ/JK 
  H, B-F, Al-Cl, Ga-Br : Obtained from the TURBOMOLE 7.0 basis set library

----- AuxC basis set information -----
Your calculation utilizes the auxiliary basis: aug-cc-pVTZ/C 
  H-He, B-F, Al-Ar, Ga-Kr : Obtained from the EMSL Basis Set Exchange (bse.pnl.gov) Feb. 2017
                            F. Weigend, A. Kohn, C. Hattig, J. Chem. Phys. 116, 3175 (2002)
                   Be, Mg : Obtained from the TURBOMOLE 7.0 basis set library
                            C. Haettig, Phys. Chem. Chem. Phys. 7, 59 (2005)
                       Ne : Obtained from the EMSL Basis Set Exchange (bse.pnl.gov) Feb. 2017
                            C. Haettig, Phys. Chem. Chem. Phys. 7, 59 (2005)
                            F. Weigend, A. Kohn, C. Hattig, J. Chem. Phys. 116, 3175 (2002)
                    Sc-Zn : Obtained from the EMSL Basis Set Exchange (bse.pnl.gov) Feb. 2017
                            J. G. Hill, J. A. Platts, J. Chem. Phys. 128, 044104 (2008)

The basis set includes element-specific modifications.

Your calculation utilizes the auxiliary basis: cc-pVTZ/C 
  Obtained from the EMSL Basis Set Exchange (bse.pnl.gov) Feb. 2017
  H-He, B-F, Al-Ar, Ga-Kr : F. Weigend, A. Kohn, C. Hattig, J. Chem. Phys. 116, 3175 (2002)
             Li-Be, Na-Mg : C. Haettig, Phys. Chem. Chem. Phys. 7, 59 (2005)
                       Ne : C. Haettig, Phys. Chem. Chem. Phys. 7, 59 (2005)
                            F. Weigend, A. Kohn, C. Hattig, J. Chem. Phys. 116, 3175 (2002)
                    Sc-Zn : J. G. Hill, J. A. Platts, J. Chem. Phys. 128, 044104 (2008)

================================================================================
                                        WARNINGS
                       Please study these warnings very carefully!
================================================================================

INFO   : Checking CIS options ...
  ===> : (D) CORRECTION FOUND - SETTING MODE=3
  ===> : JK MODE FOUND - ACTIVATING RI-MP2 CODE
  ===> : MP2 AND CIS FOUND - CHECKING
WARNING: CIS(D) and MP2 runs must have the same orbital window
  ===> : adjusting orbital windows

WARNING: No MP2 level density has been requested!
         To caclulate MP2 level properties use
         %mp2 Density relaxed end
         or
         %mp2 Density unrelaxed end
         Otherwise for double-hybrid DFT only the energy is correct!

WARNING: The frozen-core approximation is turned on by default for 
         the MP2 part of double-hybrid DFT.

INFO   : the flag for use of the SHARK integral package has been found!

================================================================================
                                       INPUT FILE
================================================================================
NAME = optpbed3-b2plyp-test-487.inp
|  1> ! pbe0 d3bj aug-cc-PVTZ RIJCOSX Opt
|  2> %maxcore 4000
|  3> %basis
|  4>  AuxJ "aug-cc-PVTZ/JK"
|  5>  AuxC "aug-cc-PVTZ/C"
|  6>  newGTO H "cc-PVTZ" end
|  7>  newAuxJGTO H "cc-PVTZ/JK" end
|  8>  newAuxCGTO H "cc-PVTZ/C" end
|  9> end
| 10> %cpcm
| 11>  SMD true
| 12>  SMDsolvent "acetonitrile"
| 13> end
| 14> %pal nprocs 4 end
| 15> * xyz 0 1
| 16> C          6.08440       -0.18070       -1.02370
| 17> C          5.50520       -0.72560        0.27650
| 18> C          3.97950       -0.78160        0.27340
| 19> C          3.34970        0.60980        0.21630
| 20> N          1.90050        0.53400        0.29850
| 21> C          1.31500        0.57100        1.53160
| 22> S          2.24080        0.63860        2.90570
| 23> C         -0.12990        0.53890        1.62670
| 24> C         -0.76940        0.68930        2.84680
| 25> C         -2.15650        0.71390        2.91110
| 26> C         -2.91420        0.51040        1.78230
| 27> C         -2.31080        0.27790        0.53310
| 28> C         -3.06440        0.04510       -0.66470
| 29> N         -4.41960       -0.17030       -0.59720
| 30> C         -4.96920       -1.15370        0.31150
| 31> C         -5.23620        0.02810       -1.77060
| 32> C         -2.39380        0.09680       -1.88440
| 33> C         -1.02020        0.22180       -1.95060
| 34> C         -0.24420        0.31580       -0.80160
| 35> C         -0.89710        0.36730        0.45090
| 36> C          1.19070        0.38840       -0.86670
| 37> S          1.97780        0.28380       -2.32400
| 38> H          5.68030       -0.72250       -1.87580
| 39> H          5.85210        0.87370       -1.14700
| 40> H          7.16650       -0.28970       -1.02830
| 41> H          5.84110       -0.11250        1.11550
| 42> H          5.88130       -1.73860        0.43590
| 43> H          3.63800       -1.28090        1.18340
| 44> H          3.63590       -1.36280       -0.58540
| 45> H          3.70530        1.21460        1.05280
| 46> H          3.60150        1.10110       -0.72410
| 47> H         -0.17650        0.82100        3.73860
| 48> H         -2.64050        0.89930        3.85800
| 49> H         -3.98780        0.57680        1.84920
| 50> H         -4.20980       -1.50940        1.00240
| 51> H         -5.80520       -0.73320        0.87640
| 52> H         -5.34230       -2.01320       -0.25710
| 53> H         -5.19740       -0.82080       -2.46430
| 54> H         -4.92510        0.93190       -2.29050
| 55> H         -6.26940        0.15570       -1.44600
| 56> H         -2.93930       -0.02010       -2.80650
| 57> H         -0.52720        0.21110       -2.91060
| 58> *
| 59> 
| 60> 
| 61> $new_job
| 62> ! b2plyp aug-cc-PVTZ RIJCOSX SP
| 63> %maxcore 4000
| 64> %basis
| 65>  AuxJ "aug-cc-PVTZ/JK"
| 66>  AuxC "aug-cc-PVTZ/C"
| 67>  newGTO H "cc-PVTZ" end
| 68>  newAuxJGTO H "cc-PVTZ/JK" end
| 69>  newAuxCGTO H "cc-PVTZ/C" end
| 70> end
| 71> %cpcm
| 72>  SMD true
| 73>  SMDsolvent "acetonitrile"
| 74> end
| 75> %pal nprocs 4 end
| 76> %tddft
| 77>  nroots 10
| 78>  maxdim 7
| 79> end
| 80> * xyzfile 0 1
| 81> 
| 82>                          ****END OF INPUT****
================================================================================


                 $$$$$$$$$$$$$$$$$$$$$$$$$$$$$$$$$$$$$$$$$$$$$$ 
                 $ THERE ARE  2 JOBS TO BE PROCESSED THIS RUN $
                 $$$$$$$$$$$$$$$$$$$$$$$$$$$$$$$$$$$$$$$$$$$$$$ 




                 $$$$$$$$$$$$$$$$  JOB NUMBER  1 $$$$$$$$$$$$$$


                       *****************************
                       * Geometry Optimization Run *
                       *****************************

Geometry optimization settings:
Update method            Update   .... BFGS
Choice of coordinates    CoordSys .... Z-matrix Internals
Initial Hessian          InHess   .... Almoef's Model

Convergence Tolerances:
Energy Change            TolE     ....  5.0000e-06 Eh
Max. Gradient            TolMAXG  ....  3.0000e-04 Eh/bohr
RMS Gradient             TolRMSG  ....  1.0000e-04 Eh/bohr
Max. Displacement        TolMAXD  ....  4.0000e-03 bohr
RMS Displacement         TolRMSD  ....  2.0000e-03 bohr
Strict Convergence                ....  False
------------------------------------------------------------------------------
                        ORCA OPTIMIZATION COORDINATE SETUP
------------------------------------------------------------------------------

The optimization will be done in new redundant internal coordinates
Making redundant internal coordinates   ...  (new redundants) done
Evaluating the initial hessian          ...  (Almloef) done
Evaluating the coordinates              ...  done
Calculating the B-matrix                .... done
Calculating the G-matrix                .... done
Diagonalizing the G-matrix              .... done
Small eigenvalue found = 5.384e-03
Small eigenvalue found = 6.113e-03
Small eigenvalue found = 1.267e-02
Small eigenvalue found = 2.116e-02
Small eigenvalue found = 2.864e-02
The first mode is                       ....  111
The number of degrees of freedom        ....  120

    -----------------------------------------------------------------
                    Redundant Internal Coordinates


    -----------------------------------------------------------------
         Definition                    Initial Value    Approx d2E/dq
    -----------------------------------------------------------------
      1. B(C   1,C   0)                  1.5241         0.381747   
      2. B(C   2,C   1)                  1.5267         0.378089   
      3. B(C   3,C   2)                  1.5284         0.375824   
      4. B(N   4,C   3)                  1.4535         0.443153   
      5. B(C   5,N   4)                  1.3655         0.612197   
      6. B(S   6,C   5)                  1.6583         0.628803   
      7. B(C   7,C   5)                  1.4484         0.504189   
      8. B(C   8,C   7)                  1.3857         0.634694   
      9. B(C   9,C   8)                  1.3888         0.627540   
     10. B(C  10,C   9)                  1.3747         0.660998   
     11. B(C  11,C  10)                  1.4066         0.587738   
     12. B(C  12,C  11)                  1.4342         0.531219   
     13. B(N  13,C  12)                  1.3739         0.593757   
     14. B(C  14,N  13)                  1.4474         0.453263   
     15. B(C  15,N  13)                  1.4433         0.460114   
     16. B(C  16,C  12)                  1.3929         0.618277   
     17. B(C  17,C  16)                  1.3809         0.646123   
     18. B(C  18,C  17)                  1.3897         0.625529   
     19. B(C  19,C  18)                  1.4134         0.573340   
     20. B(C  19,C  11)                  1.4189         0.561849   
     21. B(C  19,C   7)                  1.4144         0.571213   
     22. B(C  20,C  18)                  1.4382         0.523387   
     23. B(C  20,N   4)                  1.3721         0.597593   
     24. B(S  21,C  20)                  1.6596         0.625772   
     25. B(H  22,C   0)                  1.0876         0.363262   
     26. B(H  23,C   0)                  1.0867         0.364487   
     27. B(H  24,C   0)                  1.0876         0.363308   
     28. B(H  25,C   1)                  1.0921         0.357357   
     29. B(H  26,C   1)                  1.0923         0.357125   
     30. B(H  27,C   2)                  1.0927         0.356528   
     31. B(H  28,C   2)                  1.0924         0.356907   
     32. B(H  29,C   3)                  1.0918         0.357763   
     33. B(H  30,C   3)                  1.0905         0.359475   
     34. B(H  31,C   8)                  1.0790         0.374987   
     35. B(H  32,C   9)                  1.0795         0.374307   
     36. B(H  33,C  10)                  1.0777         0.376703   
     37. B(H  34,C  14)                  1.0865         0.364716   
     38. B(H  35,C  14)                  1.0931         0.356046   
     39. B(H  36,C  14)                  1.0960         0.352230   
     40. B(H  37,C  15)                  1.0970         0.350989   
     41. B(H  38,C  15)                  1.0881         0.362639   
     42. B(H  39,C  15)                  1.0905         0.359464   
     43. B(H  40,C  16)                  1.0777         0.376702   
     44. B(H  41,C  17)                  1.0792         0.374616   
     45. A(C   1,C   0,H  22)          110.4298         0.325943   
     46. A(H  23,C   0,H  24)          108.0261         0.291800   
     47. A(H  22,C   0,H  24)          108.4473         0.291646   
     48. A(C   1,C   0,H  23)          111.2507         0.326123   
     49. A(H  22,C   0,H  23)          108.3625         0.291794   
     50. A(C   1,C   0,H  24)          110.2358         0.325949   
     51. A(C   0,C   1,H  25)          109.7423         0.325065   
     52. A(C   0,C   1,C   2)          113.0261         0.365449   
     53. A(C   0,C   1,H  26)          108.9788         0.325031   
     54. A(H  25,C   1,H  26)          107.6163         0.290112   
     55. A(C   2,C   1,H  25)          109.2398         0.324551   
     56. A(C   2,C   1,H  26)          108.0820         0.324517   
     57. A(C   1,C   2,H  28)          109.5986         0.324484   
     58. A(C   3,C   2,H  28)          108.9880         0.324164   
     59. A(C   1,C   2,H  27)          109.1100         0.324428   
     60. A(H  27,C   2,H  28)          108.2576         0.289979   
     61. A(C   3,C   2,H  27)          108.5612         0.324108   
     62. A(C   1,C   2,C   3)          112.2395         0.364472   
     63. A(N   4,C   3,H  29)          108.0775         0.331224   
     64. A(H  29,C   3,H  30)          109.6304         0.290463   
     65. A(C   2,C   3,H  30)          110.3180         0.324546   
     66. A(C   2,C   3,N   4)          111.1778         0.372203   
     67. A(C   2,C   3,H  29)          109.9669         0.324292   
     68. A(N   4,C   3,H  30)          107.6072         0.331486   
     69. A(C   3,N   4,C   5)          118.4995         0.402669   
     70. A(C   5,N   4,C  20)          123.2235         0.424631   
     71. A(C   3,N   4,C  20)          118.2473         0.400960   
     72. A(N   4,C   5,C   7)          119.1060         0.414645   
     73. A(N   4,C   5,S   6)          120.6635         0.455371   
     74. A(S   6,C   5,C   7)          120.2285         0.442533   
     75. A(C   8,C   7,C  19)          119.6560         0.429525   
     76. A(C   5,C   7,C  19)          119.2893         0.412237   
     77. A(C   5,C   7,C   8)          121.0502         0.420040   
     78. A(C   9,C   8,H  31)          120.5573         0.356069   
     79. A(C   7,C   8,H  31)          119.1696         0.356756   
     80. A(C   7,C   8,C   9)          120.2393         0.436851   
     81. A(C   8,C   9,H  32)          119.4375         0.355960   
     82. A(C   8,C   9,C  10)          120.6552         0.440063   
     83. A(C  10,C   9,H  32)          119.9068         0.359117   
     84. A(C  11,C  10,H  33)          119.5136         0.352410   
     85. A(C   9,C  10,H  33)          119.2737         0.359507   
     86. A(C   9,C  10,C  11)          121.1488         0.434894   
     87. A(C  10,C  11,C  12)          122.8972         0.418199   
     88. A(C  12,C  11,C  19)          119.0372         0.414859   
     89. A(C  10,C  11,C  19)          117.9320         0.422402   
     90. A(C  11,C  12,N  13)          120.1812         0.416244   
     91. A(N  13,C  12,C  16)          121.5846         0.427680   
     92. A(C  11,C  12,C  16)          118.1868         0.421995   
     93. A(C  12,N  13,C  15)          119.7759         0.403165   
     94. A(C  12,N  13,C  14)          120.7928         0.402100   
     95. A(C  14,N  13,C  15)          112.8913         0.384541   
     96. A(N  13,C  14,H  34)          110.8703         0.333527   
     97. A(H  34,C  14,H  36)          108.1244         0.290412   
     98. A(H  35,C  14,H  36)          108.0250         0.289318   
     99. A(N  13,C  14,H  36)          109.6561         0.331606   
    100. A(H  34,C  14,H  35)          109.3818         0.290904   
    101. A(N  13,C  14,H  35)          110.7016         0.332199   
    102. A(H  38,C  15,H  39)          108.4170         0.291080   
    103. A(N  13,C  15,H  39)          108.0684         0.333554   
    104. A(H  37,C  15,H  39)          108.1979         0.289592   
    105. A(H  37,C  15,H  38)          109.3003         0.289991   
    106. A(N  13,C  15,H  38)          109.9304         0.334042   
    107. A(N  13,C  15,H  37)          112.8137         0.332237   
    108. A(C  17,C  16,H  40)          118.1833         0.358117   
    109. A(C  12,C  16,C  17)          121.6188         0.437085   
    110. A(C  12,C  16,H  40)          120.1000         0.355447   
    111. A(C  16,C  17,C  18)          121.4631         0.438005   
    112. A(C  18,C  17,H  41)          118.7539         0.355816   
    113. A(C  16,C  17,H  41)          119.7453         0.357779   
    114. A(C  17,C  18,C  20)          121.5408         0.421754   
    115. A(C  17,C  18,C  19)          118.5031         0.428691   
    116. A(C  19,C  18,C  20)          119.9436         0.415257   
    117. A(C  11,C  19,C  18)          120.6161         0.420536   
    118. A(C   7,C  19,C  18)          119.3753         0.421779   
    119. A(C   7,C  19,C  11)          119.9942         0.420257   
    120. A(C  18,C  20,S  21)          120.6473         0.445146   
    121. A(N   4,C  20,S  21)          120.4667         0.452976   
    122. A(N   4,C  20,C  18)          118.8835         0.415621   
    123. D(H  25,C   1,C   0,H  23)    -54.1119         0.011609   
    124. D(H  25,C   1,C   0,H  24)     65.7050         0.011609   
    125. D(H  26,C   1,C   0,H  24)    -51.9051         0.011609   
    126. D(H  25,C   1,C   0,H  22)   -174.4802         0.011609   
    127. D(C   2,C   1,C   0,H  23)     68.0924         0.011609   
    128. D(C   2,C   1,C   0,H  22)    -52.2759         0.011609   
    129. D(C   2,C   1,C   0,H  24)   -172.0907         0.011609   
    130. D(H  26,C   1,C   0,H  23)   -171.7220         0.011609   
    131. D(H  26,C   1,C   0,H  22)     67.9097         0.011609   
    132. D(H  27,C   2,C   1,H  26)     53.1000         0.011399   
    133. D(C   3,C   2,C   1,C   0)    -65.8297         0.011399   
    134. D(H  28,C   2,C   1,H  25)    177.9024         0.011399   
    135. D(C   3,C   2,C   1,H  25)     56.6555         0.011399   
    136. D(H  27,C   2,C   1,H  25)    -63.7177         0.011399   
    137. D(C   3,C   2,C   1,H  26)    173.4732         0.011399   
    138. D(H  27,C   2,C   1,C   0)    173.7971         0.011399   
    139. D(H  28,C   2,C   1,H  26)    -65.2799         0.011399   
    140. D(H  28,C   2,C   1,C   0)     55.4172         0.011399   
    141. D(H  29,C   3,C   2,C   1)    -56.7810         0.011271   
    142. D(H  30,C   3,C   2,H  28)    -57.3351         0.011271   
    143. D(H  30,C   3,C   2,H  27)   -175.0477         0.011271   
    144. D(H  29,C   3,C   2,H  27)     63.9096         0.011271   
    145. D(N   4,C   3,C   2,H  28)     61.9644         0.011271   
    146. D(H  30,C   3,C   2,C   1)     64.2617         0.011271   
    147. D(H  29,C   3,C   2,H  28)   -178.3778         0.011271   
    148. D(N   4,C   3,C   2,H  27)    -55.7482         0.011271   
    149. D(N   4,C   3,C   2,C   1)   -176.4388         0.011271   
    150. D(C  20,N   4,C   3,C   2)    -88.4172         0.016748   
    151. D(C   5,N   4,C   3,H  30)   -149.4267         0.016748   
    152. D(C   5,N   4,C   3,H  29)    -31.1093         0.016748   
    153. D(C   5,N   4,C   3,C   2)     89.6670         0.016748   
    154. D(C  20,N   4,C   3,H  30)     32.4891         0.016748   
    155. D(C  20,N   4,C   3,H  29)    150.8065         0.016748   
    156. D(C   7,C   5,N   4,C  20)     -3.9467         0.030289   
    157. D(C   7,C   5,N   4,C   3)    178.0708         0.030289   
    158. D(S   6,C   5,N   4,C  20)    175.5301         0.030289   
    159. D(S   6,C   5,N   4,C   3)     -2.4524         0.030289   
    160. D(C  19,C   7,C   5,S   6)   -174.6850         0.017318   
    161. D(C  19,C   7,C   5,N   4)      4.7941         0.017318   
    162. D(C   8,C   7,C   5,S   6)      6.0874         0.017318   
    163. D(C   8,C   7,C   5,N   4)   -174.4335         0.017318   
    164. D(H  31,C   8,C   7,C  19)   -179.9195         0.027958   
    165. D(H  31,C   8,C   7,C   5)     -0.6947         0.027958   
    166. D(C   9,C   8,C   7,C  19)     -2.0238         0.027958   
    167. D(C   9,C   8,C   7,C   5)    177.2010         0.027958   
    168. D(H  32,C   9,C   8,H  31)      2.0361         0.027291   
    169. D(H  32,C   9,C   8,C   7)   -175.8301         0.027291   
    170. D(C  10,C   9,C   8,H  31)   -178.2341         0.027291   
    171. D(C  10,C   9,C   8,C   7)      3.8997         0.027291   
    172. D(H  33,C  10,C   9,H  32)      2.3756         0.030495   
    173. D(H  33,C  10,C   9,C   8)   -177.3529         0.030495   
    174. D(C  11,C  10,C   9,H  32)    179.4562         0.030495   
    175. D(C  11,C  10,C   9,C   8)     -0.2723         0.030495   
    176. D(C  19,C  11,C  10,H  33)    172.0484         0.023763   
    177. D(C  19,C  11,C  10,C   9)     -5.0253         0.023763   
    178. D(C  12,C  11,C  10,H  33)     -3.7034         0.023763   
    179. D(C  12,C  11,C  10,C   9)    179.2229         0.023763   
    180. D(C  16,C  12,C  11,C  19)     -8.5662         0.019264   
    181. D(C  16,C  12,C  11,C  10)    167.1408         0.019264   
    182. D(N  13,C  12,C  11,C  19)    173.8955         0.019264   
    183. D(N  13,C  12,C  11,C  10)    -10.3975         0.019264   
    184. D(C  14,N  13,C  12,C  16)    132.0040         0.028366   
    185. D(C  14,N  13,C  12,C  11)    -50.5431         0.028366   
    186. D(C  15,N  13,C  12,C  16)    -17.6134         0.028366   
    187. D(C  15,N  13,C  12,C  11)    159.8395         0.028366   
    188. D(H  36,C  14,N  13,C  15)     42.7153         0.017529   
    189. D(H  36,C  14,N  13,C  12)   -108.8259         0.017529   
    190. D(H  35,C  14,N  13,C  15)    -76.3784         0.017529   
    191. D(H  35,C  14,N  13,C  12)    132.0804         0.017529   
    192. D(H  34,C  14,N  13,C  15)    162.0369         0.017529   
    193. D(H  34,C  14,N  13,C  12)     10.4956         0.017529   
    194. D(H  39,C  15,N  13,C  14)     47.8441         0.018072   
    195. D(H  39,C  15,N  13,C  12)   -160.2949         0.018072   
    196. D(H  38,C  15,N  13,C  14)    165.9942         0.018072   
    197. D(H  38,C  15,N  13,C  12)    -42.1448         0.018072   
    198. D(H  37,C  15,N  13,C  14)    -71.7340         0.018072   
    199. D(H  37,C  15,N  13,C  12)     80.1270         0.018072   
    200. D(H  40,C  16,C  12,N  13)      0.8318         0.026443   
    201. D(H  40,C  16,C  12,C  11)   -176.6703         0.026443   
    202. D(C  17,C  16,C  12,N  13)   -175.5058         0.026443   
    203. D(C  17,C  16,C  12,C  11)      6.9922         0.026443   
    204. D(H  41,C  17,C  16,H  40)      0.6578         0.029043   
    205. D(H  41,C  17,C  16,C  12)    177.0632         0.029043   
    206. D(C  18,C  17,C  16,H  40)   -177.0823         0.029043   
    207. D(C  18,C  17,C  16,C  12)     -0.6770         0.029043   
    208. D(C  20,C  18,C  17,H  41)     -0.4649         0.027106   
    209. D(C  20,C  18,C  17,C  16)    177.2970         0.027106   
    210. D(C  19,C  18,C  17,H  41)    178.2461         0.027106   
    211. D(C  19,C  18,C  17,C  16)     -3.9919         0.027106   
    212. D(C  11,C  19,C  18,C  20)   -179.1062         0.022561   
    213. D(C  11,C  19,C  18,C  17)      2.1616         0.022561   
    214. D(C   7,C  19,C  18,C  20)      2.2742         0.022561   
    215. D(C   7,C  19,C  18,C  17)   -176.4580         0.022561   
    216. D(C  18,C  19,C  11,C  12)      4.1077         0.021629   
    217. D(C  18,C  19,C  11,C  10)   -171.8127         0.021629   
    218. D(C   7,C  19,C  11,C  12)   -177.2812         0.021629   
    219. D(C   7,C  19,C  11,C  10)      6.7983         0.021629   
    220. D(C  18,C  19,C   7,C   8)    175.2477         0.022386   
    221. D(C  18,C  19,C   7,C   5)     -3.9908         0.022386   
    222. D(C  11,C  19,C   7,C   8)     -3.3806         0.022386   
    223. D(C  11,C  19,C   7,C   5)    177.3809         0.022386   
    224. D(S  21,C  20,C  18,C  19)    178.1546         0.018687   
    225. D(S  21,C  20,C  18,C  17)     -3.1526         0.018687   
    226. D(N   4,C  20,C  18,C  19)     -1.2787         0.018687   
    227. D(N   4,C  20,C  18,C  17)    177.4140         0.018687   
    228. D(S  21,C  20,N   4,C   5)   -177.2444         0.028759   
    229. D(S  21,C  20,N   4,C   3)      0.7428         0.028759   
    230. D(C  18,C  20,N   4,C   5)      2.1900         0.028759   
    231. D(C  18,C  20,N   4,C   3)   -179.8228         0.028759   
    -----------------------------------------------------------------

Number of atoms                         .... 42
Number of degrees of freedom            .... 231

         *************************************************************
         *                GEOMETRY OPTIMIZATION CYCLE   1            *
         *************************************************************
---------------------------------
CARTESIAN COORDINATES (ANGSTROEM)
---------------------------------
  C      6.084400   -0.180700   -1.023700
  C      5.505200   -0.725600    0.276500
  C      3.979500   -0.781600    0.273400
  C      3.349700    0.609800    0.216300
  N      1.900500    0.534000    0.298500
  C      1.315000    0.571000    1.531600
  S      2.240800    0.638600    2.905700
  C     -0.129900    0.538900    1.626700
  C     -0.769400    0.689300    2.846800
  C     -2.156500    0.713900    2.911100
  C     -2.914200    0.510400    1.782300
  C     -2.310800    0.277900    0.533100
  C     -3.064400    0.045100   -0.664700
  N     -4.419600   -0.170300   -0.597200
  C     -4.969200   -1.153700    0.311500
  C     -5.236200    0.028100   -1.770600
  C     -2.393800    0.096800   -1.884400
  C     -1.020200    0.221800   -1.950600
  C     -0.244200    0.315800   -0.801600
  C     -0.897100    0.367300    0.450900
  C      1.190700    0.388400   -0.866700
  S      1.977800    0.283800   -2.324000
  H      5.680300   -0.722500   -1.875800
  H      5.852100    0.873700   -1.147000
  H      7.166500   -0.289700   -1.028300
  H      5.841100   -0.112500    1.115500
  H      5.881300   -1.738600    0.435900
  H      3.638000   -1.280900    1.183400
  H      3.635900   -1.362800   -0.585400
  H      3.705300    1.214600    1.052800
  H      3.601500    1.101100   -0.724100
  H     -0.176500    0.821000    3.738600
  H     -2.640500    0.899300    3.858000
  H     -3.987800    0.576800    1.849200
  H     -4.209800   -1.509400    1.002400
  H     -5.805200   -0.733200    0.876400
  H     -5.342300   -2.013200   -0.257100
  H     -5.197400   -0.820800   -2.464300
  H     -4.925100    0.931900   -2.290500
  H     -6.269400    0.155700   -1.446000
  H     -2.939300   -0.020100   -2.806500
  H     -0.527200    0.211100   -2.910600

----------------------------
CARTESIAN COORDINATES (A.U.)
----------------------------
  NO LB      ZA    FRAG     MASS         X           Y           Z
   0 C     6.0000    0    12.011   11.497850   -0.341474   -1.934513
   1 C     6.0000    0    12.011   10.403320   -1.371185    0.522509
   2 C     6.0000    0    12.011    7.520165   -1.477010    0.516651
   3 C     6.0000    0    12.011    6.330016    1.152355    0.408748
   4 N     7.0000    0    14.007    3.591425    1.009114    0.564083
   5 C     6.0000    0    12.011    2.484990    1.079034    2.894305
   6 S    16.0000    0    32.060    4.234498    1.206779    5.490977
   7 C     6.0000    0    12.011   -0.245475    1.018373    3.074018
   8 C     6.0000    0    12.011   -1.453955    1.302588    5.379672
   9 C     6.0000    0    12.011   -4.075194    1.349075    5.501182
  10 C     6.0000    0    12.011   -5.507040    0.964516    3.368059
  11 C     6.0000    0    12.011   -4.366779    0.525155    1.007413
  12 C     6.0000    0    12.011   -5.790877    0.085227   -1.256101
  13 N     7.0000    0    14.007   -8.351834   -0.321820   -1.128544
  14 C     6.0000    0    12.011   -9.390427   -2.180177    0.588650
  15 C     6.0000    0    12.011   -9.894984    0.053101   -3.345949
  16 C     6.0000    0    12.011   -4.523626    0.182925   -3.561000
  17 C     6.0000    0    12.011   -1.927899    0.419141   -3.686100
  18 C     6.0000    0    12.011   -0.461471    0.596776   -1.514804
  19 C     6.0000    0    12.011   -1.695273    0.694096    0.852078
  20 C     6.0000    0    12.011    2.250097    0.733970   -1.637826
  21 S    16.0000    0    32.060    3.737500    0.536304   -4.391724
  22 H     1.0000    0     1.008   10.734211   -1.365327   -3.544748
  23 H     1.0000    0     1.008   11.058866    1.651054   -2.167516
  24 H     1.0000    0     1.008   13.542722   -0.547454   -1.943205
  25 H     1.0000    0     1.008   11.038079   -0.212594    2.107990
  26 H     1.0000    0     1.008   11.114046   -3.285478    0.823732
  27 H     1.0000    0     1.008    6.874824   -2.420550    2.236302
  28 H     1.0000    0     1.008    6.870855   -2.575319   -1.106246
  29 H     1.0000    0     1.008    7.002002    2.295261    1.989504
  30 H     1.0000    0     1.008    6.805849    2.080777   -1.368351
  31 H     1.0000    0     1.008   -0.333537    1.551465    7.064930
  32 H     1.0000    0     1.008   -4.989822    1.699431    7.290563
  33 H     1.0000    0     1.008   -7.535850    1.089994    3.494482
  34 H     1.0000    0     1.008   -7.955369   -2.852353    1.894261
  35 H     1.0000    0     1.008  -10.970238   -1.385547    1.656156
  36 H     1.0000    0     1.008  -10.095484   -3.804397   -0.485849
  37 H     1.0000    0     1.008   -9.821663   -1.551087   -4.656852
  38 H     1.0000    0     1.008   -9.307090    1.761036   -4.328418
  39 H     1.0000    0     1.008  -11.847449    0.294230   -2.732544
  40 H     1.0000    0     1.008   -5.554472   -0.037983   -5.303516
  41 H     1.0000    0     1.008   -0.996264    0.398921   -5.500237

--------------------------------
INTERNAL COORDINATES (ANGSTROEM)
--------------------------------
 C      0   0   0     0.000000000000     0.00000000     0.00000000
 C      1   0   0     1.524109146354     0.00000000     0.00000000
 C      2   1   0     1.526730526321   113.02609440     0.00000000
 C      3   2   1     1.528365928042   112.23951259   294.17032714
 N      4   3   2     1.453507179205   111.17783598   183.56118857
 C      5   4   3     1.365545627213   118.49946196    89.66697133
 S      6   5   4     1.658259994693   120.66350237   357.54757536
 C      6   5   4     1.448382004169   119.10595202   178.07082867
 C      8   6   5     1.385721624281   121.05023105   185.56646915
 C      9   8   6     1.388807423655   120.23929793   177.20101598
 C     10   9   8     1.374667588910   120.65517639     3.89967416
 C     11  10   9     1.406644393584   121.14881601   359.72771514
 C     12  11  10     1.434166531474   122.89715377   179.22288542
 N     13  12  11     1.373870608900   120.18123902   349.60246770
 C     14  13  12     1.447367061253   120.79278209   309.45692651
 C     14  13  12     1.443282952161   119.77585261   159.83951355
 C     13  12  11     1.392855103735   118.18684805   167.14084468
 C     17  13  12     1.380863642798   121.61882544     6.99216155
 C     18  17  13     1.389680898624   121.46309988   359.32300033
 C     19  18  17     1.413395524968   118.50307928   356.00808464
 C      5   4   3     1.372117502257   118.24734769   271.58282853
 S     21   5   4     1.659575505965   120.46671499     0.74284370
 H      1   2   3     1.087620549640   110.42978422   307.72410283
 H      1   2   3     1.086703979932   111.25070800    68.09242058
 H      1   2   3     1.087585660994   110.23584437   187.90932483
 H      2   1   3     1.092081233242   109.74233823   237.79567414
 H      2   1   3     1.092258472158   108.97882608   120.18560580
 H      3   2   1     1.092713475711   109.11001680   173.79713520
 H      3   2   1     1.092424752557   109.59857971    55.41720769
 H      4   3   2     1.091772251891   109.96687818   303.21900463
 H      4   3   2     1.090472874491   110.31798510    64.26168101
 H      9   8   6     1.078972909762   119.16958068   359.30533577
 H     10   9   8     1.079466891572   119.43746692   184.16989922
 H     11  10   9     1.077729803801   119.27373210   182.64707382
 H     15  14  13     1.086532861905   110.87034598    10.49562200
 H     15  14  13     1.093082000584   110.70159513   132.08039676
 H     15  14  13     1.096015428724   109.65606745   251.17407961
 H     16  14  13     1.096975997914   112.81369890    80.12703448
 H     16  14  13     1.088087156436   109.93035598   317.85516447
 H     16  14  13     1.090481159856   108.06844848   199.70512240
 H     17  13  12     1.077731074990   120.09999661   183.32973103
 H     18  17  13     1.079242090543   119.74533758   177.06317696

---------------------------
INTERNAL COORDINATES (A.U.)
---------------------------
 C      0   0   0     0.000000000000     0.00000000     0.00000000
 C      1   0   0     2.880148884814     0.00000000     0.00000000
 C      2   1   0     2.885102575044   113.02609440     0.00000000
 C      3   2   1     2.888193036416   112.23951259   294.17032714
 N      4   3   2     2.746730502386   111.17783598   183.56118857
 C      5   4   3     2.580507258806   118.49946196    89.66697133
 S      6   5   4     3.133657248808   120.66350237   357.54757536
 C      6   5   4     2.737045325179   119.10595202   178.07082867
 C      8   6   5     2.618634367744   121.05023105   185.56646915
 C      9   8   6     2.624465683465   120.23929793   177.20101598
 C     10   9   8     2.597745268218   120.65517639     3.89967416
 C     11  10   9     2.658172671689   121.14881601   359.72771514
 C     12  11  10     2.710181974922   122.89715377   179.22288542
 N     13  12  11     2.596239194265   120.18123902   349.60246770
 C     14  13  12     2.735127361027   120.79278209   309.45692651
 C     14  13  12     2.727409513343   119.77585261   159.83951355
 C     13  12  11     2.632114690293   118.18684805   167.14084468
 C     17  13  12     2.609454113176   121.61882544     6.99216155
 C     18  17  13     2.626116311941   121.46309988   359.32300033
 C     19  18  17     2.670930461100   118.50307928   356.00808464
 C      5   4   3     2.592926302826   118.24734769   271.58282853
 S     21   5   4     3.136143204838   120.46671499     0.74284370
 H      1   2   3     2.055304976445   110.42978422   307.72410283
 H      1   2   3     2.053572910714   111.25070800    68.09242058
 H      1   2   3     2.055239046459   110.23584437   187.90932483
 H      2   1   3     2.063734446823   109.74233823   237.79567414
 H      2   1   3     2.064069379833   108.97882608   120.18560580
 H      3   2   1     2.064929211939   109.11001680   173.79713520
 H      3   2   1     2.064383604250   109.59857971    55.41720769
 H      4   3   2     2.063150556689   109.96687818   303.21900463
 H      4   3   2     2.060695089257   110.31798510    64.26168101
 H      9   8   6     2.038963305370   119.16958068   359.30533577
 H     10   9   8     2.039896795706   119.43746692   184.16989922
 H     11  10   9     2.036614175548   119.27373210   182.64707382
 H     15  14  13     2.053249544507   110.87034598    10.49562200
 H     15  14  13     2.065625623022   110.70159513   132.08039676
 H     15  14  13     2.071168998840   109.65606745   251.17407961
 H     16  14  13     2.072984211543   112.81369890    80.12703448
 H     16  14  13     2.056186735500   109.93035598   317.85516447
 H     16  14  13     2.060710746328   108.06844848   199.70512240
 H     17  13  12     2.036616577748   120.09999661   183.32973103
 H     18  17  13     2.039471983327   119.74533758   177.06317696

---------------------
BASIS SET INFORMATION
---------------------
There are 4 groups of distinct atoms

 Group   1 Type C   : 19s6p3d2f contracted to 5s4p3d2f pattern {88111/3111/111/11}
 Group   2 Type N   : 19s6p3d2f contracted to 5s4p3d2f pattern {88111/3111/111/11}
 Group   3 Type S   : 42s17p3d2f contracted to 6s5p3d2f pattern {131313111/77111/111/11}
 Group   4 Type H   : 5s2p1d contracted to 3s2p1d pattern {311/11/1}

Atom   0C    basis set group =>   1
Atom   1C    basis set group =>   1
Atom   2C    basis set group =>   1
Atom   3C    basis set group =>   1
Atom   4N    basis set group =>   2
Atom   5C    basis set group =>   1
Atom   6S    basis set group =>   3
Atom   7C    basis set group =>   1
Atom   8C    basis set group =>   1
Atom   9C    basis set group =>   1
Atom  10C    basis set group =>   1
Atom  11C    basis set group =>   1
Atom  12C    basis set group =>   1
Atom  13N    basis set group =>   2
Atom  14C    basis set group =>   1
Atom  15C    basis set group =>   1
Atom  16C    basis set group =>   1
Atom  17C    basis set group =>   1
Atom  18C    basis set group =>   1
Atom  19C    basis set group =>   1
Atom  20C    basis set group =>   1
Atom  21S    basis set group =>   3
Atom  22H    basis set group =>   4
Atom  23H    basis set group =>   4
Atom  24H    basis set group =>   4
Atom  25H    basis set group =>   4
Atom  26H    basis set group =>   4
Atom  27H    basis set group =>   4
Atom  28H    basis set group =>   4
Atom  29H    basis set group =>   4
Atom  30H    basis set group =>   4
Atom  31H    basis set group =>   4
Atom  32H    basis set group =>   4
Atom  33H    basis set group =>   4
Atom  34H    basis set group =>   4
Atom  35H    basis set group =>   4
Atom  36H    basis set group =>   4
Atom  37H    basis set group =>   4
Atom  38H    basis set group =>   4
Atom  39H    basis set group =>   4
Atom  40H    basis set group =>   4
Atom  41H    basis set group =>   4
---------------------------------
AUXILIARY/J BASIS SET INFORMATION
---------------------------------
There are 4 groups of distinct atoms

 Group   1 Type C   : 10s7p5d2f1g contracted to 10s7p5d2f1g pattern {1111111111/1111111/11111/11/1}
 Group   2 Type N   : 10s7p5d2f1g contracted to 10s7p5d2f1g pattern {1111111111/1111111/11111/11/1}
 Group   3 Type S   : 13s11p9d3f1g contracted to 13s11p9d3f1g pattern {1111111111111/11111111111/111111111/111/1}
 Group   4 Type H   : 4s3p2d1f contracted to 4s3p2d1f pattern {1111/111/11/1}

Atom   0C    basis set group =>   1
Atom   1C    basis set group =>   1
Atom   2C    basis set group =>   1
Atom   3C    basis set group =>   1
Atom   4N    basis set group =>   2
Atom   5C    basis set group =>   1
Atom   6S    basis set group =>   3
Atom   7C    basis set group =>   1
Atom   8C    basis set group =>   1
Atom   9C    basis set group =>   1
Atom  10C    basis set group =>   1
Atom  11C    basis set group =>   1
Atom  12C    basis set group =>   1
Atom  13N    basis set group =>   2
Atom  14C    basis set group =>   1
Atom  15C    basis set group =>   1
Atom  16C    basis set group =>   1
Atom  17C    basis set group =>   1
Atom  18C    basis set group =>   1
Atom  19C    basis set group =>   1
Atom  20C    basis set group =>   1
Atom  21S    basis set group =>   3
Atom  22H    basis set group =>   4
Atom  23H    basis set group =>   4
Atom  24H    basis set group =>   4
Atom  25H    basis set group =>   4
Atom  26H    basis set group =>   4
Atom  27H    basis set group =>   4
Atom  28H    basis set group =>   4
Atom  29H    basis set group =>   4
Atom  30H    basis set group =>   4
Atom  31H    basis set group =>   4
Atom  32H    basis set group =>   4
Atom  33H    basis set group =>   4
Atom  34H    basis set group =>   4
Atom  35H    basis set group =>   4
Atom  36H    basis set group =>   4
Atom  37H    basis set group =>   4
Atom  38H    basis set group =>   4
Atom  39H    basis set group =>   4
Atom  40H    basis set group =>   4
Atom  41H    basis set group =>   4
---------------------------------
AUXILIARY/C BASIS SET INFORMATION
---------------------------------
There are 4 groups of distinct atoms

 Group   1 Type C   : 9s7p6d4f2g contracted to 9s7p6d4f2g pattern {111111111/1111111/111111/1111/11}
 Group   2 Type N   : 9s7p6d4f2g contracted to 9s7p6d4f2g pattern {111111111/1111111/111111/1111/11}
 Group   3 Type S   : 11s9p8d6f3g contracted to 11s9p8d6f3g pattern {11111111111/111111111/11111111/111111/111}
 Group   4 Type H   : 4s3p2d1f contracted to 4s3p2d1f pattern {1111/111/11/1}

Atom   0C    basis set group =>   1
Atom   1C    basis set group =>   1
Atom   2C    basis set group =>   1
Atom   3C    basis set group =>   1
Atom   4N    basis set group =>   2
Atom   5C    basis set group =>   1
Atom   6S    basis set group =>   3
Atom   7C    basis set group =>   1
Atom   8C    basis set group =>   1
Atom   9C    basis set group =>   1
Atom  10C    basis set group =>   1
Atom  11C    basis set group =>   1
Atom  12C    basis set group =>   1
Atom  13N    basis set group =>   2
Atom  14C    basis set group =>   1
Atom  15C    basis set group =>   1
Atom  16C    basis set group =>   1
Atom  17C    basis set group =>   1
Atom  18C    basis set group =>   1
Atom  19C    basis set group =>   1
Atom  20C    basis set group =>   1
Atom  21S    basis set group =>   3
Atom  22H    basis set group =>   4
Atom  23H    basis set group =>   4
Atom  24H    basis set group =>   4
Atom  25H    basis set group =>   4
Atom  26H    basis set group =>   4
Atom  27H    basis set group =>   4
Atom  28H    basis set group =>   4
Atom  29H    basis set group =>   4
Atom  30H    basis set group =>   4
Atom  31H    basis set group =>   4
Atom  32H    basis set group =>   4
Atom  33H    basis set group =>   4
Atom  34H    basis set group =>   4
Atom  35H    basis set group =>   4
Atom  36H    basis set group =>   4
Atom  37H    basis set group =>   4
Atom  38H    basis set group =>   4
Atom  39H    basis set group =>   4
Atom  40H    basis set group =>   4
Atom  41H    basis set group =>   4


           ************************************************************
           *        Program running with 4 parallel MPI-processes     *
           *              working on a common directory               *
           ************************************************************
------------------------------------------------------------------------------
                           ORCA GTO INTEGRAL CALCULATION
                           -- RI-GTO INTEGRALS CHOSEN --
------------------------------------------------------------------------------
------------------------------------------------------------------------------
                   ___                                                        
                  /   \      - P O W E R E D   B Y -                         
                 /     \                                                     
                 |  |  |   _    _      __       _____    __    __             
                 |  |  |  | |  | |    /  \     |  _  \  |  |  /  |          
                  \  \/   | |  | |   /    \    | | | |  |  | /  /          
                 / \  \   | |__| |  /  /\  \   | |_| |  |  |/  /          
                |  |  |   |  __  | /  /__\  \  |    /   |      \           
                |  |  |   | |  | | |   __   |  |    \   |  |\   \          
                \     /   | |  | | |  |  |  |  | |\  \  |  | \   \       
                 \___/    |_|  |_| |__|  |__|  |_| \__\ |__|  \__/        
                                                                              
                      - O R C A' S   B I G   F R I E N D -                    
                                      &                                       
                       - I N T E G R A L  F E E D E R -                       
                                                                              
 v1 FN, 2020, v2 2021                                                         
------------------------------------------------------------------------------


Reading SHARK input file optpbed3-b2plyp-test-487.SHARKINP.tmp ... ok
----------------------
SHARK INTEGRAL PACKAGE
----------------------

Number of atoms                             ...     42
Number of basis functions                   ...   1470
Number of shells                            ...    582
Maximum angular momentum                    ...      3
Integral batch strategy                     ... SHARK/LIBINT Hybrid
RI-J (if used) integral strategy            ... SPLIT-RIJ (Revised 2003 algorithm where possible)
Printlevel                                  ...      1
Contraction scheme used                     ... PARTIAL GENERAL contraction
Coulomb Range Separation                    ... NOT USED
Exchange Range Separation                   ... NOT USED
Finite Nucleus Model                        ... NOT USED
Auxiliary Coulomb fitting basis             ... AVAILABLE
   # of basis functions in Aux-J            ...   2422
   # of shells in Aux-J                     ...    774
   Maximum angular momentum in Aux-J        ...      4
Auxiliary J/K fitting basis                 ... NOT available
Auxiliary Correlation fitting basis         ... AVAILABLE
   # of basis functions in Aux-C            ...   3014
   # of shells in Aux-C                     ...    834
   Maximum angular momentum in Aux-C        ...      4
Auxiliary 'external' fitting basis          ... NOT available
Integral threshold                          ...     2.500000e-11
Primitive cut-off                           ...     2.500000e-12
Primitive pair pre-selection threshold      ...     2.500000e-12

Calculating pre-screening integrals         ... done (  0.3 sec) Dimension = 582
Calculating pre-screening integrals (ORCA)  ... done (  0.9 sec) Dimension = 432
Organizing shell pair data                  ... done (  2.2 sec)
Shell pair information
Total number of shell pairs                 ...    169653
Shell pairs after pre-screening             ...    104350
Total number of primitive shell pairs       ...    219573
Primitive shell pairs kept                  ...    121431
          la=0 lb=0:  23601 shell pairs
          la=1 lb=0:  27212 shell pairs
          la=1 lb=1:   7184 shell pairs
          la=2 lb=0:  17177 shell pairs
          la=2 lb=1:   8834 shell pairs
          la=2 lb=2:   2809 shell pairs
          la=3 lb=0:   9138 shell pairs
          la=3 lb=1:   4634 shell pairs
          la=3 lb=2:   2932 shell pairs
          la=3 lb=3:    829 shell pairs

Calculating one electron integrals          ... done (  0.3 sec)
Calculating RI/J V-Matrix + Cholesky decomp.... done (  0.6 sec)
Calculating RI/C V-Matrix + Cholesky decomp.... done (  0.9 sec)
Calculating Nuclear repulsion               ... done (  0.0 sec) ENN=   2057.483540455309 Eh

SHARK setup successfully completed in   7.1 seconds

Maximum memory used throughout the entire GTOINT-calculation: 161.9 MB


           ************************************************************
           *        Program running with 4 parallel MPI-processes     *
           *              working on a common directory               *
           ************************************************************
-------------------------------------------------------------------------------
                                 ORCA SCF
-------------------------------------------------------------------------------

------------
SCF SETTINGS
------------
Hamiltonian:
 Density Functional     Method          .... DFT(GTOs)
 Exchange Functional    Exchange        .... PBE
   PBE kappa parameter   XKappa         ....  0.804000
   PBE mue parameter    XMuePBE         ....  0.219520
 Correlation Functional Correlation     .... PBE
   PBE beta parameter  CBetaPBE         ....  0.066725
 LDA part of GGA corr.  LDAOpt          .... PW91-LDA
 Gradients option       PostSCFGGA      .... off
 Hybrid DFT is turned on
   Fraction HF Exchange ScalHFX         ....  0.250000
   Scaling of DF-GGA-X  ScalDFX         ....  0.750000
   Scaling of DF-GGA-C  ScalDFC         ....  1.000000
   Scaling of DF-LDA-C  ScalLDAC        ....  1.000000
   Perturbative correction              ....  0.000000
   Density functional embedding theory  .... OFF
   NL short-range parameter             ....  6.900000
 RI-approximation to the Coulomb term is turned on
   Number of AuxJ basis functions       .... 2422
   RIJ-COSX (HFX calculated with COS-X)).... on


General Settings:
 Integral files         IntName         .... optpbed3-b2plyp-test-487
 Hartree-Fock type      HFTyp           .... RHF
 Total Charge           Charge          ....    0
 Multiplicity           Mult            ....    1
 Number of Electrons    NEL             ....  174
 Basis Dimension        Dim             .... 1300
 Nuclear Repulsion      ENuc            ....   2057.4835404553 Eh

Convergence Acceleration:
 DIIS                   CNVDIIS         .... on
   Start iteration      DIISMaxIt       ....    12
   Startup error        DIISStart       ....  0.200000
   # of expansion vecs  DIISMaxEq       ....     5
   Bias factor          DIISBfac        ....   1.050
   Max. coefficient     DIISMaxC        ....  10.000
 Trust-Rad. Augm. Hess. CNVTRAH         .... auto
   Auto Start mean grad. ratio tolernc. ....  1.125000
   Auto Start start iteration           ....    20
   Auto Start num. interpolation iter.  ....    10
   Max. Number of Micro iterations      ....    16
   Max. Number of Macro iterations      .... Maxiter - #DIIS iter
   Number of Davidson start vectors     ....     2
   Converg. threshold I  (grad. norm)   ....   1.000e-05
   Converg. threshold II (energy diff.) ....   1.000e-08
   Grad. Scal. Fac. for Micro threshold ....   0.100
   Minimum threshold for Micro iter.    ....   0.010
   NR start threshold (gradient norm)   ....   0.001
   Initial trust radius                 ....   0.400
   Minimum AH scaling param. (alpha)    ....   1.000
   Maximum AH scaling param. (alpha)    .... 1000.000
   Orbital update algorithm             .... Taylor
   White noise on init. David. guess    .... on
   Maximum white noise                  ....   0.010
   Quad. conv. algorithm                .... NR
 SOSCF                  CNVSOSCF        .... on
   Start iteration      SOSCFMaxIt      ....   150
   Startup grad/error   SOSCFStart      ....  0.003300
 Level Shifting         CNVShift        .... on
   Level shift para.    LevelShift      ....    0.2500
   Turn off err/grad.   ShiftErr        ....    0.0010
 Zerner damping         CNVZerner       .... off
 Static damping         CNVDamp         .... on
   Fraction old density DampFac         ....    0.7000
   Max. Damping (<1)    DampMax         ....    0.9800
   Min. Damping (>=0)   DampMin         ....    0.0000
   Turn off err/grad.   DampErr         ....    0.1000
 Fernandez-Rico         CNVRico         .... off

SCF Procedure:
 Maximum # iterations   MaxIter         ....   125
 SCF integral mode      SCFMode         .... Direct
   Integral package                     .... SHARK and LIBINT hybrid scheme
 Reset frequency        DirectResetFreq ....    20
 Integral Threshold     Thresh          ....  2.500e-11 Eh
 Primitive CutOff       TCut            ....  2.500e-12 Eh

Convergence Tolerance:
 Convergence Check Mode ConvCheckMode   .... Total+1el-Energy
 Convergence forced     ConvForced      .... 0
 Energy Change          TolE            ....  1.000e-08 Eh
 1-El. energy change                    ....  1.000e-05 Eh
 Orbital Gradient       TolG            ....  1.000e-05
 Orbital Rotation angle TolX            ....  1.000e-05
 DIIS Error             TolErr          ....  5.000e-07


Diagonalization of the overlap matrix:
Smallest eigenvalue                        ... 1.490e-07
Time for diagonalization                   ...    0.473 sec
Threshold for overlap eigenvalues          ... 1.000e-08
Number of eigenvalues below threshold      ... 0
Time for construction of square roots      ...    0.508 sec
Total time needed                          ...    0.989 sec

Time for model grid setup =    1.458 sec

------------------------------
INITIAL GUESS: MODEL POTENTIAL
------------------------------
Loading Hartree-Fock densities                     ... done
Calculating cut-offs                               ... done
Initializing the effective Hamiltonian             ... done
Setting up the integral package (SHARK)            ... done
Starting the Coulomb interaction                   ... done (   4.9 sec)
Reading the grid                                   ... done
Mapping shells                                     ... done
Starting the XC term evaluation                    ... done (   3.4 sec)
  promolecular density results
     # of electrons  =    173.992002722
     EX              =   -161.021329484
     EC              =     -6.037040372
     EX+EC           =   -167.058369856
Transforming the Hamiltonian                       ... done (   0.3 sec)
Diagonalizing the Hamiltonian                      ... done (   0.5 sec)
Back transforming the eigenvectors                 ... done (   0.1 sec)
Now organizing SCF variables                       ... done
                      ------------------
                      INITIAL GUESS DONE (  10.8 sec)
                      ------------------
-------------------
DFT GRID GENERATION
-------------------

General Integration Accuracy     IntAcc      ... 4.388
Radial Grid Type                 RadialGrid  ... OptM3 with GC (2021)
Angular Grid (max. ang.)         AngularGrid ... 4 (Lebedev-302)
Angular grid pruning method      GridPruning ... 4 (adaptive)
Weight generation scheme         WeightScheme... Becke
Basis function cutoff            BFCut       ... 1.0000e-11
Integration weight cutoff        WCut        ... 1.0000e-14
Angular grids for H and He will be reduced by one unit
Partially contracted basis set               ... off
Rotationally invariant grid construction     ... off

Total number of grid points                  ...   201759
Total number of batches                      ...     3174
Average number of points per batch           ...       63
Average number of grid points per atom       ...     4804
Time for grid setup =    4.126 sec

--------------------
COSX GRID GENERATION
--------------------

GRIDX 1
-------
General Integration Accuracy     IntAcc      ... 3.816
Radial Grid Type                 RadialGrid  ... OptM3 with GC (2021)
Angular Grid (max. ang.)         AngularGrid ... 1 (Lebedev-50)
Angular grid pruning method      GridPruning ... 4 (adaptive)
Weight generation scheme         WeightScheme... Becke
Basis function cutoff            BFCut       ... 1.0000e-11
Integration weight cutoff        WCut        ... 1.0000e-14
Angular grids for H and He will be reduced by one unit
Partially contracted basis set               ... on
Rotationally invariant grid construction     ... off

Total number of grid points                  ...    25518
Total number of batches                      ...      422
Average number of points per batch           ...       60
Average number of grid points per atom       ...      608
UseSFitting                                  ... on

GRIDX 2
-------
General Integration Accuracy     IntAcc      ... 4.020
Radial Grid Type                 RadialGrid  ... OptM3 with GC (2021)
Angular Grid (max. ang.)         AngularGrid ... 2 (Lebedev-110)
Angular grid pruning method      GridPruning ... 4 (adaptive)
Weight generation scheme         WeightScheme... Becke
Basis function cutoff            BFCut       ... 1.0000e-11
Integration weight cutoff        WCut        ... 1.0000e-14
Angular grids for H and He will be reduced by one unit
Partially contracted basis set               ... on
Rotationally invariant grid construction     ... off

Total number of grid points                  ...    58385
Total number of batches                      ...      936
Average number of points per batch           ...       62
Average number of grid points per atom       ...     1390
UseSFitting                                  ... on

GRIDX 3
-------
General Integration Accuracy     IntAcc      ... 4.338
Radial Grid Type                 RadialGrid  ... OptM3 with GC (2021)
Angular Grid (max. ang.)         AngularGrid ... 3 (Lebedev-194)
Angular grid pruning method      GridPruning ... 4 (adaptive)
Weight generation scheme         WeightScheme... Becke
Basis function cutoff            BFCut       ... 1.0000e-11
Integration weight cutoff        WCut        ... 1.0000e-14
Angular grids for H and He will be reduced by one unit
Partially contracted basis set               ... on
Rotationally invariant grid construction     ... off

Total number of grid points                  ...   127149
Total number of batches                      ...     2007
Average number of points per batch           ...       63
Average number of grid points per atom       ...     3027
UseSFitting                                  ... on

Time for X-Grid setup             =   11.812 sec


--------------------
CPCM SOLVATION MODEL
--------------------
CPCM parameters:
  Epsilon                                         ...      35.6880
  Refrac                                          ...       1.3442
  Rsolv                                           ...       1.3000
  Surface type                                    ... GAUSSIAN VDW
  Epsilon function type                           ...         CPCM
Solvent:                                     ... ACETONITRILE
SMD-CDS solvent descriptors:
  Soln                                       ...    1.3442
  Soln25                                     ...    1.3416
  Sola                                       ...    0.0700
  Solb                                       ...    0.3200
  Solg                                       ...   41.2500
  Solc                                       ...    0.0000
  Solh                                       ...    0.0000
Radii:
 Radius for C  used is    3.4960 Bohr (=   1.8500 Ang.)
 Radius for N  used is    3.5716 Bohr (=   1.8900 Ang.)
 Radius for S  used is    4.7054 Bohr (=   2.4900 Ang.)
 Radius for H  used is    2.2677 Bohr (=   1.2000 Ang.)
Calculating surface                               ...        done! (  0.0s)
GEPOL surface points                              ...         2235
GEPOL Volume                                      ...    2443.2524
GEPOL Surface-area                                ...    1252.1101
Calculating surface distance matrix               ...        done! (  0.1s)
Performing Cholesky decomposition & store         ...        done! (  0.4s)
Overall time for CPCM initialization              ...                 0.5s
 re-compute Schwartz prescreening matrix in partically contracted basis (1) ...done (   0.315 sec)
--------------
SCF ITERATIONS
--------------
ITER       Energy         Delta-E        Max-DP      RMS-DP      [F,P]     Damp
               ***  Starting incremental Fock matrix formation  ***
  0  -1602.5407446719   0.000000000000 0.55865648  0.00189925  0.1893749 0.7000
  1  -1602.7186892407  -0.177944568755 0.46746515  0.00159433  0.1002875 0.7000
                               ***Turning on DIIS***
  2  -1602.8023038937  -0.083614653012 1.09729686  0.00382877  0.0399086 0.0000
  3  -1602.9244056090  -0.122101715299 0.06960334  0.00059197  0.0526958 0.0000
  4  -1602.9528930732  -0.028487464196 0.04663750  0.00027691  0.0071029 0.0000
  5  -1602.9539492032  -0.001056130041 0.05280683  0.00020238  0.0034547 0.0000
                      *** Initiating the SOSCF procedure ***
                           *** Shutting down DIIS ***
                      *** Re-Reading the Fockian *** 
                      *** Removing any level shift *** 
ITER      Energy       Delta-E        Grad      Rot      Max-DP    RMS-DP
  6  -1602.95406445  -0.0001152463  0.000756  0.000756  0.041474  0.000181
               *** Restarting incremental Fock matrix formation ***
  7  -1602.95407820  -0.0000137489  0.000532  0.005099  0.110412  0.001174
  8  -1602.95409260  -0.0000144032  0.000111  0.002526  0.040923  0.000360
  9  -1602.95409322  -0.0000006162  0.000102  0.000616  0.029332  0.000279
 10  -1602.95409494  -0.0000017258  0.000034  0.000157  0.046759  0.000186
 11  -1602.95409493   0.0000000104  0.000039  0.000088  0.025199  0.000130
 12  -1602.95409504  -0.0000001052  0.000007  0.000059  0.072663  0.000298
 13  -1602.95409505  -0.0000000153  0.000006  0.000017  0.065756  0.000289
 14  -1602.95409503   0.0000000203  0.000003  0.000044  0.185041  0.000688
 15  -1602.95409502   0.0000000141  0.000004  0.000024  0.071762  0.000324
 16  -1602.95409504  -0.0000000188  0.000003  0.000034  0.369277  0.001467
 17  -1602.95409499   0.0000000435  0.000006  0.000021  0.229704  0.000887
 18  -1602.95409500  -0.0000000072  0.000003  0.000016  0.101477  0.000410
                  ***Gradient check signals convergence***
              ***Rediagonalizing the Fockian in SOSCF/NRSCF***

               *****************************************************
               *                     SUCCESS                       *
               *           SCF CONVERGED AFTER  19 CYCLES          *
               *****************************************************

Old exchange energy                            =    -40.965051350 Eh
New exchange energy                            =    -40.965146805 Eh
Exchange energy change after final integration =     -0.000095455 Eh
Total energy after final integration           =  -1602.954190527 Eh
Final COS-X integration done in                =   233.124 sec

SMD CDS free energy correction energy :                -6.09757     Kcal/mol
Total Energy after SMD CDS correction =             -1602.963907617 Eh

----------------
TOTAL SCF ENERGY
[...]
   Transformed RI Coulomb         ...     2.73 sec
   Transformed RI-exchange        ...   382.02 sec
   (ab|v) reading and digestion   ...   298.98 sec
   Final sigma-completion         ...     0.05 sec
   Done building sigma-vectors             Size of expansion space: 30
   Lowest Energy          :     0.110797873035
   Maximum Energy change  :     0.195099961736 (vector 9)
   Maximum residual norm  :     0.010620960791

                       ****Iteration    1****
              <<< Entering MO-section for Build Sigma(Double) >>>
   Forming the XC and CPCM contribution:
   Time for densities:            0.365
   Time for XC-Integration:      28.664
   Time for LR-CPCM terms:       17.830
   Time for Sigma-Completion:     0.298
   Time for building 10 sigma-vectors
   Data Preparation Phase         ...     0.01 sec
   Transformed RI Coulomb         ...     1.11 sec
   Transformed RI-exchange        ...   697.10 sec
   (ab|v) reading and digestion   ...   668.89 sec
   Final sigma-completion         ...     0.02 sec
   Done building sigma-vectors             Size of expansion space: 40
   Lowest Energy          :     0.102530186769
   Maximum Energy change  :     0.013433040605 (vector 1)
   Maximum residual norm  :     0.000637774702

                       ****Iteration    2****
              <<< Entering MO-section for Build Sigma(Double) >>>
   Forming the XC and CPCM contribution:
   Time for densities:            0.365
   Time for XC-Integration:      29.249
   Time for LR-CPCM terms:       17.981
   Time for Sigma-Completion:     0.315
   Time for building 10 sigma-vectors
   Data Preparation Phase         ...     0.01 sec
   Transformed RI Coulomb         ...     1.12 sec
   Transformed RI-exchange        ...   688.20 sec
   (ab|v) reading and digestion   ...   660.04 sec
   Final sigma-completion         ...     0.02 sec
   Done building sigma-vectors             Size of expansion space: 50
   Lowest Energy          :     0.101904177890
   Maximum Energy change  :     0.001608224695 (vector 3)
   Maximum residual norm  :     0.000074811074

                       ****Iteration    3****
              <<< Entering MO-section for Build Sigma(Double) >>>
   Forming the XC and CPCM contribution:
   Time for densities:            0.364
   Time for XC-Integration:      31.167
   Time for LR-CPCM terms:       18.342
   Time for Sigma-Completion:     0.353
   Time for building 10 sigma-vectors
   Data Preparation Phase         ...     0.01 sec
   Transformed RI Coulomb         ...     1.13 sec
   Transformed RI-exchange        ...   764.77 sec
   (ab|v) reading and digestion   ...   683.62 sec
   Final sigma-completion         ...     0.02 sec
   Done building sigma-vectors             Size of expansion space: 60
   Lowest Energy          :     0.101851887528
   Maximum Energy change  :     0.000161532464 (vector 8)
   Maximum residual norm  :     0.000023271006

                       ****Iteration    4****
              <<< Entering MO-section for Build Sigma(Double) >>>
   Forming the XC and CPCM contribution:
   Time for densities:            0.372
   Time for XC-Integration:      32.307
   Time for LR-CPCM terms:       18.529
   Time for Sigma-Completion:     0.397
   Time for building 10 sigma-vectors
   Data Preparation Phase         ...     0.01 sec
   Transformed RI Coulomb         ...     1.19 sec
   Transformed RI-exchange        ...   807.85 sec
   (ab|v) reading and digestion   ...   686.96 sec
   Final sigma-completion         ...     0.02 sec
   Done building sigma-vectors             Size of expansion space: 70
   Lowest Energy          :     0.101848858676
   Maximum Energy change  :     0.000045033781 (vector 8)
   Maximum residual norm  :     0.000003924432
   Rebuilding the expansion space

                       ****Iteration    5****
              <<< Entering MO-section for Build Sigma(Double) >>>
   Forming the XC and CPCM contribution:
   Time for densities:            0.741
   Time for XC-Integration:      57.594
   Time for LR-CPCM terms:       28.537
   Time for Sigma-Completion:     0.577
   Time for building 20 sigma-vectors
   Data Preparation Phase         ...     0.03 sec
   Transformed RI Coulomb         ...     2.01 sec
   Transformed RI-exchange        ...  1437.77 sec
   (ab|v) reading and digestion   ...  1346.99 sec
   Final sigma-completion         ...     0.04 sec
   Done building sigma-vectors             Size of expansion space: 20
   Lowest Energy          :     0.101848718306
   Maximum Energy change  :     0.000006277606 (vector 8)
   Maximum residual norm  :     0.000000769425

      *** CONVERGENCE OF RESIDUAL NORM REACHED ***

Storing the converged CI vectors               ... optpbed3-b2plyp-test-487_job2.cis1

                 *** DAVIDSON DONE ***

Total time for solving the CIS problem:  5202.180sec

------------------
DOUBLES CORRECTION (Double precision version)
------------------

The (D) correction will be scaled by  0.2700
Doing v(i,a)*T(i,a) terms (RI)                    ... ok
Doing u(i,j,a,b) terms for state   0              ... ok
Doing u(i,j,a,b) terms for state   1              ... ok
Doing u(i,j,a,b) terms for state   2              ... ok
Doing u(i,j,a,b) terms for state   3              ... ok
Doing u(i,j,a,b) terms for state   4              ... ok
Doing u(i,j,a,b) terms for state   5              ... ok
Doing u(i,j,a,b) terms for state   6              ... ok
Doing u(i,j,a,b) terms for state   7              ... ok
Doing u(i,j,a,b) terms for state   8              ... ok
Doing u(i,j,a,b) terms for state   9              ... ok

Contributions to the (D) correction(s) (in eV)

STATE  Final   Init.   Total   v(ext)   v(int)  v(3)    u
       omega   omega     (D)                             
-----------------------------------------------------------------------------
   0   2.201   2.771  -0.570   0.652   0.842  -0.048  -2.016
   1   2.185   2.813  -0.628   0.657   0.734  -0.031  -1.988
   2   2.547   3.145  -0.598   0.658   0.628  -0.013  -1.870
   3   3.154   3.884  -0.731   0.639   0.780  -0.042  -2.108
   4   3.560   4.109  -0.548   0.614   0.953  -0.039  -2.077
   5   3.734   4.210  -0.476   0.632   0.946  -0.030  -2.024
   6   3.626   4.419  -0.793   0.642   0.895  -0.043  -2.288
   7   3.496   4.849  -1.353   0.620   0.630  -0.005  -2.599
   8   4.175   4.912  -0.737   0.509   0.953  -0.048  -2.151
   9   4.572   4.928  -0.356   0.114   0.969  -0.010  -1.430

(D)-timings
 V(i,a)*T(i,a) terms           ...  1958.852 sec
 U(i,j,a,b) 3-internal         ...    24.266 sec
 U(i,j,a,b) 3-external         ...   597.416 sec
 U(i,j,a,b) pair terms         ...  1018.301 sec
 Total measured time           ...  7801.712 sec

 Time for (ab|v) I/O           ...   172.463 sec


------------------------------------
TD-DFT/TDA EXCITED STATES (SINGLETS)
------------------------------------

the weight of the individual excitations are printed if larger than 1.0e-02

STATE  1:  E=   0.080903 au      2.201 eV    17756.2 cm**-1 <S**2> =   0.000000
    83a ->  87a  :     0.014070 (c=  0.11861689)
    83a ->  88a  :     0.011169 (c= -0.10568423)
    84a ->  87a  :     0.016219 (c=  0.12735285)
    85a ->  87a  :     0.250476 (c=  0.50047579)
    86a ->  87a  :     0.650150 (c= -0.80631878)

STATE  2:  E=   0.080290 au      2.185 eV    17621.7 cm**-1 <S**2> =   0.000000
    83a ->  88a  :     0.020622 (c=  0.14360324)
    84a ->  88a  :     0.026337 (c=  0.16228625)
    85a ->  87a  :     0.589779 (c= -0.76797051)
    85a ->  93a  :     0.011588 (c=  0.10764734)
    86a ->  87a  :     0.298008 (c= -0.54590107)

STATE  3:  E=   0.093591 au      2.547 eV    20540.8 cm**-1 <S**2> =   0.000000
    83a ->  87a  :     0.342162 (c=  0.58494632)
    84a ->  87a  :     0.409063 (c=  0.63958020)
    84a ->  93a  :     0.010061 (c= -0.10030313)
    85a ->  87a  :     0.030504 (c= -0.17465337)
    85a ->  88a  :     0.139480 (c= -0.37347001)

STATE  4:  E=   0.115893 au      3.154 eV    25435.7 cm**-1 <S**2> =   0.000000
    81a ->  87a  :     0.030523 (c=  0.17470935)
    83a ->  87a  :     0.485255 (c=  0.69660281)
    84a ->  87a  :     0.419373 (c= -0.64758997)

STATE  5:  E=   0.130843 au      3.560 eV    28716.8 cm**-1 <S**2> =   0.000000
    80a ->  87a  :     0.026636 (c= -0.16320521)
    81a ->  87a  :     0.036302 (c= -0.19052997)
    82a ->  87a  :     0.105251 (c=  0.32442381)
    86a ->  88a  :     0.772598 (c=  0.87897539)

STATE  6:  E=   0.137216 au      3.734 eV    30115.5 cm**-1 <S**2> =   0.000000
    81a ->  87a  :     0.615095 (c= -0.78427990)
    84a ->  87a  :     0.012634 (c= -0.11240237)
    86a ->  88a  :     0.041301 (c= -0.20322634)
    86a ->  90a  :     0.015459 (c=  0.12433585)
    86a ->  91a  :     0.230946 (c=  0.48056810)
    86a ->  92a  :     0.022506 (c= -0.15002097)

STATE  7:  E=   0.133253 au      3.626 eV    29245.7 cm**-1 <S**2> =   0.000000
    82a ->  87a  :     0.785404 (c= -0.88623037)
    83a ->  87a  :     0.015783 (c= -0.12563065)
    86a ->  88a  :     0.121838 (c=  0.34905335)

STATE  8:  E=   0.128460 au      3.496 eV    28193.6 cm**-1 <S**2> =   0.000000
    83a ->  87a  :     0.076590 (c= -0.27674875)
    83a ->  88a  :     0.024251 (c=  0.15572798)
    84a ->  87a  :     0.052107 (c= -0.22826867)
    84a ->  88a  :     0.024650 (c=  0.15700186)
    85a ->  87a  :     0.029669 (c=  0.17224787)
    85a ->  88a  :     0.733675 (c= -0.85654825)

STATE  9:  E=   0.153418 au      4.175 eV    33671.3 cm**-1 <S**2> =   0.000000
    80a ->  87a  :     0.015568 (c= -0.12477134)
    81a ->  87a  :     0.219825 (c= -0.46885540)
    82a ->  87a  :     0.012653 (c= -0.11248351)
    84a ->  87a  :     0.012275 (c= -0.11079253)
    85a ->  88a  :     0.012365 (c= -0.11119836)
    86a ->  89a  :     0.063903 (c= -0.25279131)
    86a ->  90a  :     0.047424 (c= -0.21777103)
    86a ->  91a  :     0.514139 (c= -0.71703465)
    86a ->  92a  :     0.029182 (c=  0.17082675)

STATE 10:  E=   0.168025 au      4.572 eV    36877.3 cm**-1 <S**2> =   0.000000
    81a ->  87a  :     0.022042 (c=  0.14846491)
    86a ->  89a  :     0.699800 (c= -0.83654043)
    86a ->  91a  :     0.033709 (c=  0.18359901)
    86a ->  92a  :     0.028888 (c= -0.16996463)
    86a ->  93a  :     0.084545 (c= -0.29076619)
    86a ->  94a  :     0.011863 (c=  0.10891680)
    86a ->  95a  :     0.019036 (c= -0.13797041)
    86a ->  97a  :     0.033594 (c=  0.18328790)


-----------------------------
TD-DFT/TDA-EXCITATION SPECTRA
-----------------------------

Center of mass = (  0.2712,  0.3956,  0.3386)
Calculating the Dipole integrals                  ... done
Transforming integrals                            ... done
Calculating the Linear Momentum integrals         ... done
Transforming integrals                            ... done
Calculating angular momentum integrals            ... done
Transforming integrals                            ... done

-----------------------------------------------------------------------------
         ABSORPTION SPECTRUM VIA TRANSITION ELECTRIC DIPOLE MOMENTS
-----------------------------------------------------------------------------
State   Energy    Wavelength  fosc         T2        TX        TY        TZ  
        (cm-1)      (nm)                 (au**2)    (au)      (au)      (au) 
-----------------------------------------------------------------------------
   1   17756.2    563.2   0.384545682   7.12973   2.65335   0.24028   0.17810
   2   17621.7    567.5   0.195491522   3.65221   1.88622   0.26280   0.15909
   3   20540.8    486.8   0.016990308   0.27231  -0.47548  -0.04322  -0.21061
   4   25435.7    393.1   0.160327613   2.07511   0.35073  -0.16044   1.38793
   5   28716.8    348.2   0.157828328   1.80936  -0.85704  -0.25680   1.00444
   6   30115.5    332.1   0.027957648   0.30562   0.23407  -0.00787   0.50077
   7   29245.7    341.9   0.146305056   1.64692  -0.47902   0.21658   1.17071
   8   28193.6    354.7   0.001363530   0.01592   0.07073  -0.04297  -0.09525
   9   33671.3    297.0   0.432366024   4.22734   0.29281   0.32522   2.00894
  10   36877.3    271.2   0.055849346   0.49858  -0.24677   0.23455  -0.61860

-----------------------------------------------------------------------------
         ABSORPTION SPECTRUM VIA TRANSITION VELOCITY DIPOLE MOMENTS
-----------------------------------------------------------------------------
State   Energy    Wavelength   fosc        P2         PX        PY        PZ  
        (cm-1)      (nm)                 (au**2)     (au)      (au)      (au) 
-----------------------------------------------------------------------------
   1   17756.2    563.2   0.061710244   0.00749  -0.08360  -0.01811  -0.01309
   2   17621.7    567.5   0.039008391   0.00470  -0.06804  -0.00774  -0.00296
   3   20540.8    486.8   0.003450562   0.00048   0.02175   0.00337  -0.00008
   4   25435.7    393.1   0.017380664   0.00302  -0.01721  -0.00032  -0.05220
   5   28716.8    348.2   0.058081033   0.01140   0.10237   0.02444  -0.01797
   6   30115.5    332.1   0.000848648   0.00017  -0.00826   0.00172  -0.01017
   7   29245.7    341.9   0.019881588   0.00397   0.02134  -0.01818  -0.05646
   8   28193.6    354.7   0.000459653   0.00009  -0.00392   0.00584   0.00625
   9   33671.3    297.0   0.059819746   0.01377  -0.05360  -0.04187  -0.09560
  10   36877.3    271.2   0.011747084   0.00296   0.03751  -0.03337   0.02097

-------------------------------------------------------------------
                             CD SPECTRUM
-------------------------------------------------------------------
State  Energy     Wavelength     R         MX        MY        MZ   
       (cm-1)       (nm)     (1e40*cgs)   (au)      (au)      (au)  
-------------------------------------------------------------------
   1   17756.2    563.2     70.26263   0.05942  -0.08970   0.07259
   2   17621.7    567.5     -8.26725   0.01087   0.05035  -0.32230
   3   20540.8    486.8    -27.85400   0.12224   0.00653   0.00322
   4   25435.7    393.1     72.57321   0.07932  -0.48447   0.03486
   5   28716.8    348.2    -64.24389  -0.06673   0.91488   0.04130
   6   30115.5    332.1     -4.61649  -0.01558   0.38740  -0.00618
   7   29245.7    341.9    -43.38840   0.11204  -0.11625  -0.01126
   8   28193.6    354.7      7.08004   0.05786  -0.02843  -0.10188
   9   33671.3    297.0    -81.42241   0.16333   0.29432  -0.15742
  10   36877.3    271.2    -13.41445   0.26712  -0.03258  -0.07292

-------------------------------------------------------------------
         CD SPECTRUM VIA TRANSITION VELOCITY DIPOLE MOMENTS        
-------------------------------------------------------------------
State  Energy     Wavelength     R         MX        MY        MZ   
       (cm-1)       (nm)     (1e40*cgs)   (au)      (au)      (au)  
-------------------------------------------------------------------
   1   17756.2    563.2    -25.02138   0.05942  -0.08970   0.07259
   2   17621.7    567.5     -1.02771   0.01087   0.05035  -0.32230
   3   20540.8    486.8     13.50217   0.12224   0.00653   0.00322
   4   25435.7    393.1    -12.33353   0.07932  -0.48447   0.03486
   5   28716.8    348.2     53.26649  -0.06673   0.91488   0.04130
   6   30115.5    332.1      2.94790  -0.01558   0.38740  -0.00618
   7   29245.7    341.9     18.18643   0.11204  -0.11625  -0.01126
   8   28193.6    354.7     -3.77863   0.05786  -0.02843  -0.10188
   9   33671.3    297.0    -18.52242   0.16333   0.29432  -0.15742
  10   36877.3    271.2     26.87314   0.26712  -0.03258  -0.07292

Total run time:    13018.690 sec

           *** ORCA-CIS/TD-DFT FINISHED WITHOUT ERROR ***

Maximum memory used throughout the entire CIS-calculation: 2120.7 MB

-----------------------
CIS/TD-DFT TOTAL ENERGY
-----------------------

    E(SCF)  =  -1602.028835186 Eh
    DE(CIS) =      0.080903225 Eh (Root  1)
    ----------------------------- ---------
    E(tot)  =  -1601.947931961 Eh



-------------------------------------------------------------------------------
                          DFT DISPERSION CORRECTION                            
                                                                               
                              DFTD3 V3.1  Rev 1                                
                          USING Becke-Johnson damping                          
-------------------------------------------------------------------------------
The B2PLYP functional is recognized
Active option DFTDOPT                   ...         4   

molecular C6(AA) [au] = 22753.755623 


            DFT-D V3
 parameters
 s6 scaling factor         :     0.6400 
 a1 scaling factor         :     0.3065 
 s8 scaling factor         :     0.9147 
 a2 scaling factor         :     5.0570 
 ad hoc parameters k1-k3   :    16.0000     1.3333    -4.0000 

 Edisp/kcal,au: -31.268083869494  -0.049828858091 
 E6   /kcal   : -17.300283398 
 E8   /kcal   : -13.967800471 
 % E8         :  44.671111058 

-------------------------   ----------------
Dispersion correction           -0.049828858
-------------------------   ----------------


-------------------------   --------------------
FINAL SINGLE POINT ENERGY     -1601.997760819100
-------------------------   --------------------


                            ***************************************
                            *     ORCA property calculations      *
                            ***************************************


  WARNING: The energy has been calculated at the MP2 level but the densities
           used in the property calculations are still SCF densities
           MP2 response densities have not been calculated 
           use %mp2 Density relaxed end
           or  %mp2 Density unrelaxed end

                                    ---------------------
                                    Active property flags
                                    ---------------------
   (+) Dipole Moment


------------------------------------------------------------------------------
                       ORCA ELECTRIC PROPERTIES CALCULATION
------------------------------------------------------------------------------

Dipole Moment Calculation                       ... on
Quadrupole Moment Calculation                   ... off
Polarizability Calculation                      ... off
GBWName                                         ... optpbed3-b2plyp-test-487_job2.gbw
Electron density                                ... optpbed3-b2plyp-test-487_job2.scfp
The origin for moment calculation is the CENTER OF MASS  = ( 0.271240,  0.395592  0.338621)

-------------
DIPOLE MOMENT
-------------
                                X             Y             Z
Electronic contribution:     -5.73784       7.04122       5.62383
Nuclear contribution   :     -0.03670      -7.88225      -5.68144
                        -----------------------------------------
Total Dipole Moment    :     -5.77453      -0.84102      -0.05761
                        -----------------------------------------
Magnitude (a.u.)       :      5.83574
Magnitude (Debye)      :     14.83328



--------------------
Rotational spectrum 
--------------------
 
Rotational constants in cm-1:     0.015310     0.005006     0.003945 
Rotational constants in MHz :   458.987883   150.071383   118.262359 

 Dipole components along the rotational axes: 
x,y,z [a.u.] :     5.782683    -0.110767     0.777302 
x,y,z [Debye]:    14.698412    -0.281548     1.975745 

 

Timings for individual modules:

Sum of individual times         ...    16724.584 sec (= 278.743 min)
GTO integral calculation        ...        6.729 sec (=   0.112 min)   0.0 %
SCF iterations                  ...     1645.654 sec (=  27.428 min)   9.8 %
MP2 module                      ...     2049.282 sec (=  34.155 min)  12.3 %
CIS module                      ...    13022.920 sec (= 217.049 min)  77.9 %



                             ****ORCA TERMINATED NORMALLY****
TOTAL RUN TIME: 0 days 12 hours 19 minutes 41 seconds 883 msec
