
                                 *****************
                                 * O   R   C   A *
                                 *****************

                                            #,                                       
                                            ###                                      
                                            ####                                     
                                            #####                                    
                                            ######                                   
                                           ########,                                 
                                     ,,################,,,,,                         
                               ,,#################################,,                 
                          ,,##########################################,,             
                       ,#########################################, ''#####,          
                    ,#############################################,,   '####,        
                  ,##################################################,,,,####,       
                ,###########''''           ''''###############################       
              ,#####''   ,,,,##########,,,,          '''####'''          '####       
            ,##' ,,,,###########################,,,                        '##       
           ' ,,###''''                  '''############,,,                           
         ,,##''                                '''############,,,,        ,,,,,,###''
      ,#''                                            '''#######################'''  
     '                                                          ''''####''''         
             ,#######,   #######,   ,#######,      ##                                
            ,#'     '#,  ##    ##  ,#'     '#,    #''#        ######   ,####,        
            ##       ##  ##   ,#'  ##            #'  '#       #        #'  '#        
            ##       ##  #######   ##           ,######,      #####,   #    #        
            '#,     ,#'  ##    ##  '#,     ,#' ,#      #,         ##   #,  ,#        
             '#######'   ##     ##  '#######'  #'      '#     #####' # '####'        



                  #######################################################
                  #                        -***-                        #
                  #          Department of theory and spectroscopy      #
                  #    Directorship and core code : Frank Neese         #
                  #        Max Planck Institute fuer Kohlenforschung    #
                  #                Kaiser Wilhelm Platz 1               #
                  #                 D-45470 Muelheim/Ruhr               #
                  #                      Germany                        #
                  #                                                     #
                  #                  All rights reserved                #
                  #                        -***-                        #
                  #######################################################


                         Program Version 5.0.2 -  RELEASE  -


 With contributions from (in alphabetic order):
   Daniel Aravena         : Magnetic Suceptibility
   Michael Atanasov       : Ab Initio Ligand Field Theory (pilot matlab implementation)
   Alexander A. Auer      : GIAO ZORA, VPT2 properties, NMR spectrum
   Ute Becker             : Parallelization
   Giovanni Bistoni       : ED, misc. LED, open-shell LED, HFLD
   Martin Brehm           : Molecular dynamics
   Dmytro Bykov           : SCF Hessian
   Vijay G. Chilkuri      : MRCI spin determinant printing, contributions to CSF-ICE
   Dipayan Datta          : RHF DLPNO-CCSD density
   Achintya Kumar Dutta   : EOM-CC, STEOM-CC
   Dmitry Ganyushin       : Spin-Orbit,Spin-Spin,Magnetic field MRCI
   Miquel Garcia          : C-PCM and meta-GGA Hessian, CC/C-PCM, Gaussian charge scheme
   Yang Guo               : DLPNO-NEVPT2, F12-NEVPT2, CIM, IAO-localization
   Andreas Hansen         : Spin unrestricted coupled pair/coupled cluster methods
   Benjamin Helmich-Paris : MC-RPA, TRAH-SCF, COSX integrals
   Lee Huntington         : MR-EOM, pCC
   Robert Izsak           : Overlap fitted RIJCOSX, COSX-SCS-MP3, EOM
   Marcus Kettner         : VPT2
   Christian Kollmar      : KDIIS, OOCD, Brueckner-CCSD(T), CCSD density, CASPT2, CASPT2-K
   Simone Kossmann        : Meta GGA functionals, TD-DFT gradient, OOMP2, MP2 Hessian
   Martin Krupicka        : Initial AUTO-CI
   Lucas Lang             : DCDCAS
   Marvin Lechner         : AUTO-CI (C++ implementation), FIC-MRCC
   Dagmar Lenk            : GEPOL surface, SMD
   Dimitrios Liakos       : Extrapolation schemes; Compound Job, initial MDCI parallelization
   Dimitrios Manganas     : Further ROCIS development; embedding schemes
   Dimitrios Pantazis     : SARC Basis sets
   Anastasios Papadopoulos: AUTO-CI, single reference methods and gradients
   Taras Petrenko         : DFT Hessian,TD-DFT gradient, ASA, ECA, R-Raman, ABS, FL, XAS/XES, NRVS
   Peter Pinski           : DLPNO-MP2, DLPNO-MP2 Gradient
   Christoph Reimann      : Effective Core Potentials
   Marius Retegan         : Local ZFS, SOC
   Christoph Riplinger    : Optimizer, TS searches, QM/MM, DLPNO-CCSD(T), (RO)-DLPNO pert. Triples
   Tobias Risthaus        : Range-separated hybrids, TD-DFT gradient, RPA, STAB
   Michael Roemelt        : Original ROCIS implementation
   Masaaki Saitow         : Open-shell DLPNO-CCSD energy and density
   Barbara Sandhoefer     : DKH picture change effects
   Avijit Sen             : IP-ROCIS
   Kantharuban Sivalingam : CASSCF convergence, NEVPT2, FIC-MRCI
   Bernardo de Souza      : ESD, SOC TD-DFT
   Georgi Stoychev        : AutoAux, RI-MP2 NMR, DLPNO-MP2 response
   Willem Van den Heuvel  : Paramagnetic NMR
   Boris Wezisla          : Elementary symmetry handling
   Frank Wennmohs         : Technical directorship


 We gratefully acknowledge several colleagues who have allowed us to
 interface, adapt or use parts of their codes:
   Stefan Grimme, W. Hujo, H. Kruse, P. Pracht,  : VdW corrections, initial TS optimization,
                  C. Bannwarth, S. Ehlert          DFT functionals, gCP, sTDA/sTD-DF
   Ed Valeev, F. Pavosevic, A. Kumar             : LibInt (2-el integral package), F12 methods
   Garnet Chan, S. Sharma, J. Yang, R. Olivares  : DMRG
   Ulf Ekstrom                                   : XCFun DFT Library
   Mihaly Kallay                                 : mrcc  (arbitrary order and MRCC methods)
   Jiri Pittner, Ondrej Demel                    : Mk-CCSD
   Frank Weinhold                                : gennbo (NPA and NBO analysis)
   Christopher J. Cramer and Donald G. Truhlar   : smd solvation model
   Lars Goerigk                                  : TD-DFT with DH, B97 family of functionals
   V. Asgeirsson, H. Jonsson                     : NEB implementation
   FAccTs GmbH                                   : IRC, NEB, NEB-TS, DLPNO-Multilevel, CI-OPT
                                                   MM, QMMM, 2- and 3-layer-ONIOM, Crystal-QMMM,
                                                   LR-CPCM, SF, NACMEs, symmetry and pop. for TD-DFT,
                                                   nearIR, NL-DFT gradient (VV10), updates on ESD,
                                                   ML-optimized integration grids
   S Lehtola, MJT Oliveira, MAL Marques          : LibXC Library
   Liviu Ungur et al                             : ANISO software


 Your calculation uses the libint2 library for the computation of 2-el integrals
 For citations please refer to: http://libint.valeyev.net

 Your ORCA version has been built with support for libXC version: 5.1.0
 For citations please refer to: https://tddft.org/programs/libxc/

 This ORCA versions uses:
   CBLAS   interface :  Fast vector & matrix operations
   LAPACKE interface :  Fast linear algebra routines
   SCALAPACK package :  Parallel linear algebra routines
   Shared memory     :  Shared parallel matrices
   BLAS/LAPACK       :  OpenBLAS 0.3.15  USE64BITINT DYNAMIC_ARCH NO_AFFINITY Haswell SINGLE_THREADED
        Core in use  :  Haswell
   Copyright (c) 2011-2014, The OpenBLAS Project


Your calculation utilizes the atom-pairwise dispersion correction
with the Becke-Johnson damping scheme (D3BJ)
Cite in your paper:
S.Grimme, S.Ehrlich, L.Goerigk, J Comput Chem, (2011), 32, 1456–1465 
S.Grimme, J.Antony, S.Ehrlich and H.Krieg, J.Chem.Phys., 132, (2010), 154104 
   

Your calculation utilizes the SMD solvation module
Please cite in your paper:
A.V. Marenich, C.J. Cramer, D.G. Truhlar J. Phys. Chem. B, 113, (2009), 6378 

================================================================================

----- Orbital basis set information -----
Your calculation utilizes the basis: aug-cc-pVTZ 
    H, B-Ne : Obtained from the ccRepo (grant-hill.group.shef.ac.uk/ccrepo) Feb. 2017
              R. A. Kendall, T. H. Dunning, Jr., R. J. Harrison, J. Chem. Phys. 96, 6796 (1992)
         He : Obtained from the ccRepo (grant-hill.group.shef.ac.uk/ccrepo) Feb. 2017
              D. E. Woon, T. H. Dunning, Jr., J. Chem. Phys. 100, 2975 (1994)
  Li-Be, Na : Obtained from the ccRepo (grant-hill.group.shef.ac.uk/ccrepo) Feb. 2017
              B. P. Prascher, D. E. Woon, K. A. Peterson, T. H. Dunning, Jr., A. K. Wilson, Theor. Chem. Acc. 128, 69 (2011)
         Mg : Obtained from the Peterson Research Group Website (tyr0.chem.wsu.edu/~kipeters) Feb. 2017
              B. P. Prascher, D. E. Woon, K. A. Peterson, T. H. Dunning, Jr., A. K. Wilson, Theor. Chem. Acc. 128, 69 (2011)
      Al-Ar : Obtained from the ccRepo (grant-hill.group.shef.ac.uk/ccrepo) Feb. 2017
              D. E. Woon, T. H. Dunning, Jr., J. Chem. Phys. 98, 1358 (1993)
      Sc-Zn : Obtained from the ccRepo (grant-hill.group.shef.ac.uk/ccrepo) Feb. 2017
              N. B. Balabanov, K. A. Peterson, J. Chem. Phys. 123, 064107 (2005)
              N. B. Balabanov, K. A. Peterson, J. Chem. Phys. 125, 074110 (2006)
      Ga-Kr : Obtained from the ccRepo (grant-hill.group.shef.ac.uk/ccrepo) Feb. 2017
              A. K. Wilson, D. E. Woon, K. A. Peterson, T. H. Dunning, Jr., J. Chem. Phys. 110, 7667 (1999)
     Ag, Au : Obtained from the Peterson Research Group Website (tyr0.chem.wsu.edu/~kipeters) Feb. 2017
              K. A. Peterson, C. Puzzarini, Theor. Chem. Acc. 114, 283 (2005)

The basis set includes element-specific modifications.

Your calculation utilizes the basis: cc-pVTZ 
       H, B-Ne : Obtained from the ccRepo (grant-hill.group.shef.ac.uk/ccrepo) Feb. 2017
                 T. H. Dunning, Jr., J. Chem. Phys. 90, 1007 (1989)
            He : Obtained from the ccRepo (grant-hill.group.shef.ac.uk/ccrepo) Feb. 2017
                 D. E. Woon, T. H. Dunning, Jr., J. Chem. Phys. 100, 2975 (1994)
  Li-Be, Na-Mg : Obtained from the ccRepo (grant-hill.group.shef.ac.uk/ccrepo) Feb. 2017
                 B. P. Prascher, D. E. Woon, K. A. Peterson, T. H. Dunning, Jr., A. K. Wilson, Theor. Chem. Acc. 128, 69 (2011)
         Al-Ar : Obtained from the ccRepo (grant-hill.group.shef.ac.uk/ccrepo) Feb. 2017
                 D. E. Woon, T. H. Dunning, Jr., J. Chem. Phys. 98, 1358 (1993)
            Ca : Obtained from the Peterson Research Group Website (tyr0.chem.wsu.edu/~kipeters) Feb. 2017
                 J. Koput, K. A. Peterson, J. Phys. Chem. 106, 9595 (2002)
         Sc-Zn : Obtained from the ccRepo (grant-hill.group.shef.ac.uk/ccrepo) Feb. 2017
                 N. B. Balabanov, K. A. Peterson, J. Chem. Phys. 123, 064107 (2005)
                 N. B. Balabanov, K. A. Peterson, J. Chem. Phys. 125, 074110 (2006)
         Ga-Kr : Obtained from the ccRepo (grant-hill.group.shef.ac.uk/ccrepo) Feb. 2017
                 A. K. Wilson, D. E. Woon, K. A. Peterson, T. H. Dunning, Jr., J. Chem. Phys. 110, 7667 (1999)
             Y : Obtained from the ccRepo (grant-hill.group.shef.ac.uk/ccrepo) Feb. 2017
                 K. A. Peterson, D. Figgen, M. Dolg, H. Stoll, J. Chem. Phys. 126, 124101 (2007)
        Ag, Au : Obtained from the Peterson Research Group Website (tyr0.chem.wsu.edu/~kipeters) Feb. 2017
                 K. A. Peterson, C. Puzzarini, Theor. Chem. Acc. 114, 283 (2005)

----- AuxJ basis set information -----
Your calculation utilizes the auxiliary basis: aug-cc-pVTZ/JK 
  H, B-F, Al-Cl, Ga-Br : Obtained from the TURBOMOLE 7.0 basis set library

The basis set includes element-specific modifications.

Your calculation utilizes the auxiliary basis: cc-pVTZ/JK 
  H, B-F, Al-Cl, Ga-Br : Obtained from the TURBOMOLE 7.0 basis set library

----- AuxC basis set information -----
Your calculation utilizes the auxiliary basis: aug-cc-pVTZ/C 
  H-He, B-F, Al-Ar, Ga-Kr : Obtained from the EMSL Basis Set Exchange (bse.pnl.gov) Feb. 2017
                            F. Weigend, A. Kohn, C. Hattig, J. Chem. Phys. 116, 3175 (2002)
                   Be, Mg : Obtained from the TURBOMOLE 7.0 basis set library
                            C. Haettig, Phys. Chem. Chem. Phys. 7, 59 (2005)
                       Ne : Obtained from the EMSL Basis Set Exchange (bse.pnl.gov) Feb. 2017
                            C. Haettig, Phys. Chem. Chem. Phys. 7, 59 (2005)
                            F. Weigend, A. Kohn, C. Hattig, J. Chem. Phys. 116, 3175 (2002)
                    Sc-Zn : Obtained from the EMSL Basis Set Exchange (bse.pnl.gov) Feb. 2017
                            J. G. Hill, J. A. Platts, J. Chem. Phys. 128, 044104 (2008)

The basis set includes element-specific modifications.

Your calculation utilizes the auxiliary basis: cc-pVTZ/C 
  Obtained from the EMSL Basis Set Exchange (bse.pnl.gov) Feb. 2017
  H-He, B-F, Al-Ar, Ga-Kr : F. Weigend, A. Kohn, C. Hattig, J. Chem. Phys. 116, 3175 (2002)
             Li-Be, Na-Mg : C. Haettig, Phys. Chem. Chem. Phys. 7, 59 (2005)
                       Ne : C. Haettig, Phys. Chem. Chem. Phys. 7, 59 (2005)
                            F. Weigend, A. Kohn, C. Hattig, J. Chem. Phys. 116, 3175 (2002)
                    Sc-Zn : J. G. Hill, J. A. Platts, J. Chem. Phys. 128, 044104 (2008)

================================================================================
                                        WARNINGS
                       Please study these warnings very carefully!
================================================================================


WARNING: Geometry Optimization
  ===> : Switching off AutoStart
         For restart on a previous wavefunction, please use MOREAD

INFO   : the flag for use of the SHARK integral package has been found!



***************************************
The coordinates will be read from file: 
***************************************


Your calculation utilizes the atom-pairwise dispersion correction
with the Becke-Johnson damping scheme (D3BJ)
Cite in your paper:
S.Grimme, S.Ehrlich, L.Goerigk, J Comput Chem, (2011), 32, 1456–1465 
S.Grimme, J.Antony, S.Ehrlich and H.Krieg, J.Chem.Phys., 132, (2010), 154104 
   

Your calculation utilizes the SMD solvation module
Please cite in your paper:
A.V. Marenich, C.J. Cramer, D.G. Truhlar J. Phys. Chem. B, 113, (2009), 6378 

================================================================================

----- Orbital basis set information -----
Your calculation utilizes the basis: aug-cc-pVTZ 
    H, B-Ne : Obtained from the ccRepo (grant-hill.group.shef.ac.uk/ccrepo) Feb. 2017
              R. A. Kendall, T. H. Dunning, Jr., R. J. Harrison, J. Chem. Phys. 96, 6796 (1992)
         He : Obtained from the ccRepo (grant-hill.group.shef.ac.uk/ccrepo) Feb. 2017
              D. E. Woon, T. H. Dunning, Jr., J. Chem. Phys. 100, 2975 (1994)
  Li-Be, Na : Obtained from the ccRepo (grant-hill.group.shef.ac.uk/ccrepo) Feb. 2017
              B. P. Prascher, D. E. Woon, K. A. Peterson, T. H. Dunning, Jr., A. K. Wilson, Theor. Chem. Acc. 128, 69 (2011)
         Mg : Obtained from the Peterson Research Group Website (tyr0.chem.wsu.edu/~kipeters) Feb. 2017
              B. P. Prascher, D. E. Woon, K. A. Peterson, T. H. Dunning, Jr., A. K. Wilson, Theor. Chem. Acc. 128, 69 (2011)
      Al-Ar : Obtained from the ccRepo (grant-hill.group.shef.ac.uk/ccrepo) Feb. 2017
              D. E. Woon, T. H. Dunning, Jr., J. Chem. Phys. 98, 1358 (1993)
      Sc-Zn : Obtained from the ccRepo (grant-hill.group.shef.ac.uk/ccrepo) Feb. 2017
              N. B. Balabanov, K. A. Peterson, J. Chem. Phys. 123, 064107 (2005)
              N. B. Balabanov, K. A. Peterson, J. Chem. Phys. 125, 074110 (2006)
      Ga-Kr : Obtained from the ccRepo (grant-hill.group.shef.ac.uk/ccrepo) Feb. 2017
              A. K. Wilson, D. E. Woon, K. A. Peterson, T. H. Dunning, Jr., J. Chem. Phys. 110, 7667 (1999)
     Ag, Au : Obtained from the Peterson Research Group Website (tyr0.chem.wsu.edu/~kipeters) Feb. 2017
              K. A. Peterson, C. Puzzarini, Theor. Chem. Acc. 114, 283 (2005)

The basis set includes element-specific modifications.

Your calculation utilizes the basis: cc-pVTZ 
       H, B-Ne : Obtained from the ccRepo (grant-hill.group.shef.ac.uk/ccrepo) Feb. 2017
                 T. H. Dunning, Jr., J. Chem. Phys. 90, 1007 (1989)
            He : Obtained from the ccRepo (grant-hill.group.shef.ac.uk/ccrepo) Feb. 2017
                 D. E. Woon, T. H. Dunning, Jr., J. Chem. Phys. 100, 2975 (1994)
  Li-Be, Na-Mg : Obtained from the ccRepo (grant-hill.group.shef.ac.uk/ccrepo) Feb. 2017
                 B. P. Prascher, D. E. Woon, K. A. Peterson, T. H. Dunning, Jr., A. K. Wilson, Theor. Chem. Acc. 128, 69 (2011)
         Al-Ar : Obtained from the ccRepo (grant-hill.group.shef.ac.uk/ccrepo) Feb. 2017
                 D. E. Woon, T. H. Dunning, Jr., J. Chem. Phys. 98, 1358 (1993)
            Ca : Obtained from the Peterson Research Group Website (tyr0.chem.wsu.edu/~kipeters) Feb. 2017
                 J. Koput, K. A. Peterson, J. Phys. Chem. 106, 9595 (2002)
         Sc-Zn : Obtained from the ccRepo (grant-hill.group.shef.ac.uk/ccrepo) Feb. 2017
                 N. B. Balabanov, K. A. Peterson, J. Chem. Phys. 123, 064107 (2005)
                 N. B. Balabanov, K. A. Peterson, J. Chem. Phys. 125, 074110 (2006)
         Ga-Kr : Obtained from the ccRepo (grant-hill.group.shef.ac.uk/ccrepo) Feb. 2017
                 A. K. Wilson, D. E. Woon, K. A. Peterson, T. H. Dunning, Jr., J. Chem. Phys. 110, 7667 (1999)
             Y : Obtained from the ccRepo (grant-hill.group.shef.ac.uk/ccrepo) Feb. 2017
                 K. A. Peterson, D. Figgen, M. Dolg, H. Stoll, J. Chem. Phys. 126, 124101 (2007)
        Ag, Au : Obtained from the Peterson Research Group Website (tyr0.chem.wsu.edu/~kipeters) Feb. 2017
                 K. A. Peterson, C. Puzzarini, Theor. Chem. Acc. 114, 283 (2005)

----- AuxJ basis set information -----
Your calculation utilizes the auxiliary basis: aug-cc-pVTZ/JK 
  H, B-F, Al-Cl, Ga-Br : Obtained from the TURBOMOLE 7.0 basis set library

The basis set includes element-specific modifications.

Your calculation utilizes the auxiliary basis: cc-pVTZ/JK 
  H, B-F, Al-Cl, Ga-Br : Obtained from the TURBOMOLE 7.0 basis set library

----- AuxC basis set information -----
Your calculation utilizes the auxiliary basis: aug-cc-pVTZ/C 
  H-He, B-F, Al-Ar, Ga-Kr : Obtained from the EMSL Basis Set Exchange (bse.pnl.gov) Feb. 2017
                            F. Weigend, A. Kohn, C. Hattig, J. Chem. Phys. 116, 3175 (2002)
                   Be, Mg : Obtained from the TURBOMOLE 7.0 basis set library
                            C. Haettig, Phys. Chem. Chem. Phys. 7, 59 (2005)
                       Ne : Obtained from the EMSL Basis Set Exchange (bse.pnl.gov) Feb. 2017
                            C. Haettig, Phys. Chem. Chem. Phys. 7, 59 (2005)
                            F. Weigend, A. Kohn, C. Hattig, J. Chem. Phys. 116, 3175 (2002)
                    Sc-Zn : Obtained from the EMSL Basis Set Exchange (bse.pnl.gov) Feb. 2017
                            J. G. Hill, J. A. Platts, J. Chem. Phys. 128, 044104 (2008)

The basis set includes element-specific modifications.

Your calculation utilizes the auxiliary basis: cc-pVTZ/C 
  Obtained from the EMSL Basis Set Exchange (bse.pnl.gov) Feb. 2017
  H-He, B-F, Al-Ar, Ga-Kr : F. Weigend, A. Kohn, C. Hattig, J. Chem. Phys. 116, 3175 (2002)
             Li-Be, Na-Mg : C. Haettig, Phys. Chem. Chem. Phys. 7, 59 (2005)
                       Ne : C. Haettig, Phys. Chem. Chem. Phys. 7, 59 (2005)
                            F. Weigend, A. Kohn, C. Hattig, J. Chem. Phys. 116, 3175 (2002)
                    Sc-Zn : J. G. Hill, J. A. Platts, J. Chem. Phys. 128, 044104 (2008)

================================================================================
                                        WARNINGS
                       Please study these warnings very carefully!
================================================================================

INFO   : Checking CIS options ...
  ===> : (D) CORRECTION FOUND - SETTING MODE=3
  ===> : JK MODE FOUND - ACTIVATING RI-MP2 CODE
  ===> : MP2 AND CIS FOUND - CHECKING
WARNING: CIS(D) and MP2 runs must have the same orbital window
  ===> : adjusting orbital windows

WARNING: No MP2 level density has been requested!
         To caclulate MP2 level properties use
         %mp2 Density relaxed end
         or
         %mp2 Density unrelaxed end
         Otherwise for double-hybrid DFT only the energy is correct!

WARNING: The frozen-core approximation is turned on by default for 
         the MP2 part of double-hybrid DFT.

INFO   : the flag for use of the SHARK integral package has been found!

================================================================================
                                       INPUT FILE
================================================================================
NAME = optpbed3-b2plyp-test-625.inp
|  1> ! pbe0 d3bj aug-cc-PVTZ RIJCOSX Opt
|  2> %maxcore 4000
|  3> %basis
|  4>  AuxJ "aug-cc-PVTZ/JK"
|  5>  AuxC "aug-cc-PVTZ/C"
|  6>  newGTO H "cc-PVTZ" end
|  7>  newAuxJGTO H "cc-PVTZ/JK" end
|  8>  newAuxCGTO H "cc-PVTZ/C" end
|  9> end
| 10> %cpcm
| 11>  SMD true
| 12>  SMDsolvent "toluene"
| 13> end
| 14> %pal nprocs 4 end
| 15> * xyz 0 1
| 16> C          3.21180       -1.23590        4.97670
| 17> C          2.98830       -1.99210        3.68100
| 18> O          2.12650       -1.21320        2.84780
| 19> C          1.82320       -1.74960        1.64830
| 20> O          2.25870       -2.82430        1.30860
| 21> C          0.93120       -0.93320        0.79780
| 22> C          0.62370       -1.48590       -0.43000
| 23> C         -0.20270       -0.85950       -1.36410
| 24> C         -0.46230       -1.50760       -2.60480
| 25> C         -1.25570       -0.93430       -3.53380
| 26> C         -1.85190        0.33490       -3.29140
| 27> C         -2.67410        0.91360       -4.27090
| 28> C         -3.26530        2.13420       -4.07210
| 29> C         -3.04470        2.81170       -2.87370
| 30> C         -2.24390        2.26460       -1.90130
| 31> C         -1.62100        1.01690       -2.06860
| 32> C         -0.77150        0.40630       -1.07180
| 33> C         -0.45850        0.97660        0.18580
| 34> C         -0.92850        2.22130        0.64760
| 35> N         -1.20530        3.19870        1.19190
| 36> C          0.38260        0.33320        1.13020
| 37> N          0.64330        0.92730        2.31180
| 38> H          3.86550       -1.81280        5.62380
| 39> H          3.67430       -0.27240        4.77720
| 40> H          2.26580       -1.07230        5.48690
| 41> H          2.51820       -2.96510        3.86000
| 42> H          3.93020       -2.16350        3.14870
| 43> H          1.05040       -2.45010       -0.66560
| 44> H         -0.00370       -2.47020       -2.77530
| 45> H         -1.45530       -1.42230       -4.47650
| 46> H         -2.83280        0.37240       -5.19290
| 47> H         -3.89590        2.56970       -4.83280
| 48> H         -3.50560        3.77360       -2.70650
| 49> H         -2.09760        2.81690       -0.99060
| 50> H          1.23970        0.46690        2.97560
| 51> H          0.24260        1.82490        2.52310
| 52> *
| 53> 
| 54> 
| 55> $new_job
| 56> ! b2plyp aug-cc-PVTZ RIJCOSX SP
| 57> %maxcore 4000
| 58> %basis
| 59>  AuxJ "aug-cc-PVTZ/JK"
| 60>  AuxC "aug-cc-PVTZ/C"
| 61>  newGTO H "cc-PVTZ" end
| 62>  newAuxJGTO H "cc-PVTZ/JK" end
| 63>  newAuxCGTO H "cc-PVTZ/C" end
| 64> end
| 65> %cpcm
| 66>  SMD true
| 67>  SMDsolvent "toluene"
| 68> end
| 69> %pal nprocs 4 end
| 70> %tddft
| 71>  nroots 10
| 72>  maxdim 7
| 73> end
| 74> * xyzfile 0 1
| 75> 
| 76>                          ****END OF INPUT****
================================================================================


                 $$$$$$$$$$$$$$$$$$$$$$$$$$$$$$$$$$$$$$$$$$$$$$ 
                 $ THERE ARE  2 JOBS TO BE PROCESSED THIS RUN $
                 $$$$$$$$$$$$$$$$$$$$$$$$$$$$$$$$$$$$$$$$$$$$$$ 




                 $$$$$$$$$$$$$$$$  JOB NUMBER  1 $$$$$$$$$$$$$$


                       *****************************
                       * Geometry Optimization Run *
                       *****************************

Geometry optimization settings:
Update method            Update   .... BFGS
Choice of coordinates    CoordSys .... Z-matrix Internals
Initial Hessian          InHess   .... Almoef's Model

Convergence Tolerances:
Energy Change            TolE     ....  5.0000e-06 Eh
Max. Gradient            TolMAXG  ....  3.0000e-04 Eh/bohr
RMS Gradient             TolRMSG  ....  1.0000e-04 Eh/bohr
Max. Displacement        TolMAXD  ....  4.0000e-03 bohr
RMS Displacement         TolRMSD  ....  2.0000e-03 bohr
Strict Convergence                ....  False
------------------------------------------------------------------------------
                        ORCA OPTIMIZATION COORDINATE SETUP
------------------------------------------------------------------------------

The optimization will be done in new redundant internal coordinates
Making redundant internal coordinates   ...  (new redundants) done
Evaluating the initial hessian          ...  (Almloef) done
Evaluating the coordinates              ...  done
Calculating the B-matrix                .... done
Calculating the G-matrix                .... done
Diagonalizing the G-matrix              .... done
Small eigenvalue found = 3.227e-03
Small eigenvalue found = 1.193e-02
Small eigenvalue found = 1.741e-02
Small eigenvalue found = 2.975e-02
The first mode is                       ....   86
The number of degrees of freedom        ....  102

    -----------------------------------------------------------------
                    Redundant Internal Coordinates


    -----------------------------------------------------------------
         Definition                    Initial Value    Approx d2E/dq
    -----------------------------------------------------------------
      1. B(C   1,C   0)                  1.5168         0.392162   
      2. B(O   2,C   1)                  1.4295         0.483927   
      3. B(C   3,O   2)                  1.3485         0.651701   
      4. B(O   4,C   3)                  1.2083         1.090774   
      5. B(C   5,C   3)                  1.4784         0.451626   
      6. B(C   6,C   5)                  1.3811         0.645485   
      7. B(C   7,C   6)                  1.3957         0.611947   
      8. B(C   8,C   7)                  1.4236         0.552156   
      9. B(C   9,C   8)                  1.3495         0.724980   
     10. B(C  10,C   9)                  1.4231         0.553355   
     11. B(C  11,C  10)                  1.4037         0.594166   
     12. B(C  12,C  11)                  1.3707         0.670627   
     13. B(C  13,C  12)                  1.3942         0.615198   
     14. B(C  14,C  13)                  1.3734         0.664143   
     15. B(C  15,C  10)                  1.4190         0.561571   
     16. B(C  15,C  14)                  1.4045         0.592286   
     17. B(C  16,C  15)                  1.4450         0.510449   
     18. B(C  16,C   7)                  1.4182         0.563360   
     19. B(C  17,C  16)                  1.4159         0.568092   
     20. B(C  18,C  17)                  1.4083         0.584076   
     21. B(N  19,C  18)                  1.1525         1.339172   
     22. B(C  20,C  17)                  1.4189         0.561843   
     23. B(C  20,C   5)                  1.4196         0.560452   
     24. B(N  21,C  20)                  1.3480         0.652961   
     25. B(H  22,C   0)                  1.0858         0.365752   
     26. B(H  23,C   0)                  1.0872         0.363802   
     27. B(H  24,C   0)                  1.0872         0.363835   
     28. B(H  25,C   1)                  1.0953         0.353108   
     29. B(H  26,C   1)                  1.0954         0.353029   
     30. B(H  27,C   6)                  1.0804         0.373028   
     31. B(H  28,C   8)                  1.0798         0.373840   
     32. B(H  29,C   9)                  1.0801         0.373405   
     33. B(H  30,C  11)                  1.0808         0.372454   
     34. B(H  31,C  12)                  1.0798         0.373841   
     35. B(H  32,C  13)                  1.0796         0.374060   
     36. B(H  33,C  14)                  1.0751         0.380377   
     37. B(H  34,N  21)                  1.0041         0.442129   
     38. B(H  35,N  21)                  1.0054         0.440030   
     39. A(C   1,C   0,H  22)          109.4470         0.327759   
     40. A(H  23,C   0,H  24)          108.8389         0.291780   
     41. A(H  22,C   0,H  23)          108.9120         0.292022   
     42. A(C   1,C   0,H  23)          110.3502         0.327471   
     43. A(H  22,C   0,H  24)          108.9138         0.292026   
     44. A(C   1,C   0,H  24)          110.3460         0.327476   
     45. A(C   0,C   1,H  26)          111.4950         0.325854   
     46. A(O   2,C   1,H  26)          108.6871         0.335354   
     47. A(H  25,C   1,H  26)          108.0265         0.289046   
     48. A(C   0,C   1,O   2)          108.3655         0.380697   
     49. A(C   0,C   1,H  25)          111.5007         0.325866   
     50. A(O   2,C   1,H  25)          108.6943         0.335367   
     51. A(C   1,O   2,C   3)          115.9313         0.413542   
     52. A(O   2,C   3,O   4)          121.5193         0.479083   
     53. A(O   4,C   3,C   5)          123.1545         0.450991   
     54. A(O   2,C   3,C   5)          115.3262         0.411158   
     55. A(C   3,C   5,C  20)          126.2359         0.402928   
     56. A(C   6,C   5,C  20)          118.6275         0.429358   
     57. A(C   3,C   5,C   6)          115.1366         0.413127   
     58. A(C   5,C   6,H  27)          117.5850         0.357461   
     59. A(C   5,C   6,C   7)          123.1758         0.436198   
     60. A(C   7,C   6,H  27)          119.2391         0.354238   
     61. A(C   8,C   7,C  16)          120.8515         0.417923   
     62. A(C   6,C   7,C  16)          120.0091         0.425667   
     63. A(C   6,C   7,C   8)          119.1394         0.424139   
     64. A(C   7,C   8,H  28)          117.7743         0.348265   
     65. A(C   9,C   8,H  28)          121.3122         0.364747   
     66. A(C   7,C   8,C   9)          120.9135         0.437246   
     67. A(C  10,C   9,H  29)          118.3072         0.348324   
     68. A(C   8,C   9,H  29)          121.1660         0.364674   
     69. A(C   8,C   9,C  10)          120.5268         0.437417   
     70. A(C   9,C  10,C  15)          120.4812         0.417847   
     71. A(C   9,C  10,C  11)          119.6196         0.422074   
     72. A(C  11,C  10,C  15)          119.8992         0.423187   
     73. A(C  10,C  11,H  30)          118.3488         0.352382   
     74. A(C  10,C  11,C  12)          121.2348         0.436884   
     75. A(C  12,C  11,H  30)          120.4163         0.359698   
     76. A(C  13,C  12,H  31)          120.1294         0.354687   
     77. A(C  11,C  12,H  31)          120.5870         0.359926   
     78. A(C  11,C  12,C  13)          119.2837         0.439634   
     79. A(C  12,C  13,H  32)          119.9014         0.354723   
     80. A(C  14,C  13,H  32)          119.6161         0.359367   
     81. A(C  12,C  13,C  14)          120.4825         0.438863   
     82. A(C  15,C  14,H  33)          119.7956         0.353450   
     83. A(C  13,C  14,H  33)          118.3250         0.360394   
     84. A(C  13,C  14,C  15)          121.8794         0.435871   
     85. A(C  14,C  15,C  16)          123.6363         0.415810   
     86. A(C  10,C  15,C  16)          119.1433         0.411895   
     87. A(C  10,C  15,C  14)          117.2204         0.422947   
     88. A(C  15,C  16,C  17)          124.9215         0.412740   
     89. A(C   7,C  16,C  17)          116.9948         0.420048   
     90. A(C   7,C  16,C  15)          118.0837         0.412127   
     91. A(C  18,C  17,C  20)          112.3546         0.421930   
     92. A(C  16,C  17,C  20)          122.6543         0.419846   
     93. A(C  16,C  17,C  18)          124.9912         0.422765   
     94. A(C  17,C  18,N  19)          169.9196         0.490924   
     95. A(C  17,C  20,N  21)          119.8821         0.427629   
     96. A(C   5,C  20,N  21)          121.5794         0.427438   
     97. A(C   5,C  20,C  17)          118.5385         0.418833   
     98. A(H  34,N  21,H  35)          120.4713         0.305123   
     99. A(C  20,N  21,H  35)          120.0397         0.362887   
    100. A(C  20,N  21,H  34)          119.4889         0.363182   
    101. D(H  25,C   1,C   0,H  22)     60.4254         0.012221   
    102. D(O   2,C   1,C   0,H  23)    -60.1478         0.012221   
    103. D(H  26,C   1,C   0,H  22)    -60.4114         0.012221   
    104. D(H  25,C   1,C   0,H  23)   -179.7355         0.012221   
    105. D(H  25,C   1,C   0,H  24)    -59.4133         0.012221   
    106. D(H  26,C   1,C   0,H  23)     59.4276         0.012221   
    107. D(O   2,C   1,C   0,H  22)   -179.9868         0.012221   
    108. D(H  26,C   1,C   0,H  24)    179.7498         0.012221   
    109. D(O   2,C   1,C   0,H  24)     60.1745         0.012221   
    110. D(C   3,O   2,C   1,H  26)     58.8093         0.018481   
    111. D(C   3,O   2,C   1,C   0)   -179.8680         0.018481   
    112. D(C   3,O   2,C   1,H  25)    -58.5340         0.018481   
    113. D(C   5,C   3,O   2,C   1)    179.9916         0.031402   
    114. D(O   4,C   3,O   2,C   1)      0.0179         0.031402   
    115. D(C   6,C   5,C   3,O   2)    179.9674         0.013902   
    116. D(C  20,C   5,C   3,O   4)    179.9582         0.013902   
    117. D(C  20,C   5,C   3,O   2)     -0.0150         0.013902   
    118. D(C   6,C   5,C   3,O   4)     -0.0594         0.013902   
    119. D(H  27,C   6,C   5,C  20)    179.9913         0.028982   
    120. D(C   7,C   6,C   5,C  20)     -0.0056         0.028982   
    121. D(H  27,C   6,C   5,C   3)      0.0075         0.028982   
    122. D(C   7,C   6,C   5,C   3)   -179.9894         0.028982   
    123. D(C  16,C   7,C   6,H  27)    179.9984         0.025873   
    124. D(C  16,C   7,C   6,C   5)     -0.0047         0.025873   
    125. D(C   8,C   7,C   6,H  27)     -0.0126         0.025873   
    126. D(C   8,C   7,C   6,C   5)    179.9843         0.025873   
    127. D(H  28,C   8,C   7,C  16)   -179.9953         0.020862   
    128. D(H  28,C   8,C   7,C   6)      0.0158         0.020862   
    129. D(C   9,C   8,C   7,C  16)      0.0031         0.020862   
    130. D(C   9,C   8,C   7,C   6)   -179.9859         0.020862   
    131. D(C  10,C   9,C   8,C   7)     -0.0137         0.037246   
    132. D(H  29,C   9,C   8,H  28)     -0.0095         0.037246   
    133. D(H  29,C   9,C   8,C   7)    179.9922         0.037246   
    134. D(C  10,C   9,C   8,H  28)    179.9846         0.037246   
    135. D(C  15,C  10,C   9,H  29)    179.9902         0.020956   
    136. D(C  15,C  10,C   9,C   8)     -0.0041         0.020956   
    137. D(C  11,C  10,C   9,H  29)      0.0039         0.020956   
    138. D(C  11,C  10,C   9,C   8)   -179.9904         0.020956   
    139. D(H  30,C  11,C  10,C  15)    179.9940         0.024312   
    140. D(H  30,C  11,C  10,C   9)     -0.0196         0.024312   
    141. D(C  12,C  11,C  10,C  15)     -0.0059         0.024312   
    142. D(C  12,C  11,C  10,C   9)    179.9804         0.024312   
    143. D(H  31,C  12,C  11,H  30)     -0.0022         0.031458   
    144. D(H  31,C  12,C  11,C  10)    179.9978         0.031458   
    145. D(C  13,C  12,C  11,H  30)    179.9860         0.031458   
    146. D(C  13,C  12,C  11,C  10)     -0.0141         0.031458   
    147. D(H  32,C  13,C  12,H  31)      0.0036         0.026165   
    148. D(H  32,C  13,C  12,C  11)   -179.9846         0.026165   
    149. D(C  14,C  13,C  12,H  31)   -179.9944         0.026165   
    150. D(C  14,C  13,C  12,C  11)      0.0174         0.026165   
    151. D(H  33,C  14,C  13,H  32)      0.0074         0.030807   
    152. D(H  33,C  14,C  13,C  12)   -179.9946         0.030807   
    153. D(C  15,C  14,C  13,H  32)   -179.9985         0.030807   
    154. D(C  15,C  14,C  13,C  12)     -0.0005         0.030807   
    155. D(C  16,C  15,C  14,H  33)     -0.0208         0.024151   
    156. D(C  16,C  15,C  14,C  13)    179.9852         0.024151   
    157. D(C  10,C  15,C  14,H  33)    179.9750         0.024151   
    158. D(C  10,C  15,C  14,C  13)     -0.0190         0.024151   
    159. D(C  16,C  15,C  10,C  11)   -179.9820         0.021607   
    160. D(C  16,C  15,C  10,C   9)      0.0318         0.021607   
    161. D(C  14,C  15,C  10,C  11)      0.0220         0.021607   
    162. D(C  14,C  15,C  10,C   9)   -179.9642         0.021607   
    163. D(C  15,C  16,C   7,C   6)   -179.9867         0.021750   
    164. D(C  17,C  16,C  15,C  14)     -0.0517         0.017757   
    165. D(C  17,C  16,C  15,C  10)    179.9525         0.017757   
    166. D(C   7,C  16,C  15,C  14)    179.9546         0.017757   
    167. D(C   7,C  16,C  15,C  10)     -0.0411         0.017757   
    168. D(C  17,C  16,C   7,C   8)   -179.9697         0.021750   
    169. D(C  17,C  16,C   7,C   6)      0.0191         0.021750   
    170. D(C  15,C  16,C   7,C   8)      0.0244         0.021750   
    171. D(C  20,C  17,C  16,C  15)    179.9819         0.022132   
    172. D(C  20,C  17,C  16,C   7)     -0.0244         0.022132   
    173. D(C  18,C  17,C  16,C  15)     -0.0393         0.022132   
    174. D(C  18,C  17,C  16,C   7)    179.9544         0.022132   
    175. D(N  19,C  18,C  17,C  20)      0.0947         0.021286   
    176. D(N  19,C  18,C  17,C  16)   -179.8859         0.021286   
    177. D(N  21,C  20,C  17,C  18)      0.0358         0.021628   
    178. D(N  21,C  20,C  17,C  16)   -179.9830         0.021628   
    179. D(C   5,C  20,C  17,C  18)   -179.9665         0.021628   
    180. D(C   5,C  20,C  17,C  16)      0.0146         0.021628   
    181. D(N  21,C  20,C   5,C   6)    179.9984         0.021517   
    182. D(N  21,C  20,C   5,C   3)     -0.0197         0.021517   
    183. D(C  17,C  20,C   5,C   6)      0.0008         0.021517   
    184. D(C  17,C  20,C   5,C   3)    179.9827         0.021517   
    185. D(H  35,N  21,C  20,C  17)     -0.0240         0.034823   
    186. D(H  35,N  21,C  20,C   5)    179.9785         0.034823   
    187. D(H  34,N  21,C  20,C  17)   -179.9694         0.034823   
    188. D(H  34,N  21,C  20,C   5)      0.0331         0.034823   
    -----------------------------------------------------------------

Number of atoms                         .... 36
Number of degrees of freedom            .... 188

         *************************************************************
         *                GEOMETRY OPTIMIZATION CYCLE   1            *
         *************************************************************
---------------------------------
CARTESIAN COORDINATES (ANGSTROEM)
---------------------------------
  C      3.211800   -1.235900    4.976700
  C      2.988300   -1.992100    3.681000
  O      2.126500   -1.213200    2.847800
  C      1.823200   -1.749600    1.648300
  O      2.258700   -2.824300    1.308600
  C      0.931200   -0.933200    0.797800
  C      0.623700   -1.485900   -0.430000
  C     -0.202700   -0.859500   -1.364100
  C     -0.462300   -1.507600   -2.604800
  C     -1.255700   -0.934300   -3.533800
  C     -1.851900    0.334900   -3.291400
  C     -2.674100    0.913600   -4.270900
  C     -3.265300    2.134200   -4.072100
  C     -3.044700    2.811700   -2.873700
  C     -2.243900    2.264600   -1.901300
  C     -1.621000    1.016900   -2.068600
  C     -0.771500    0.406300   -1.071800
  C     -0.458500    0.976600    0.185800
  C     -0.928500    2.221300    0.647600
  N     -1.205300    3.198700    1.191900
  C      0.382600    0.333200    1.130200
  N      0.643300    0.927300    2.311800
  H      3.865500   -1.812800    5.623800
  H      3.674300   -0.272400    4.777200
  H      2.265800   -1.072300    5.486900
  H      2.518200   -2.965100    3.860000
  H      3.930200   -2.163500    3.148700
  H      1.050400   -2.450100   -0.665600
  H     -0.003700   -2.470200   -2.775300
  H     -1.455300   -1.422300   -4.476500
  H     -2.832800    0.372400   -5.192900
  H     -3.895900    2.569700   -4.832800
  H     -3.505600    3.773600   -2.706500
  H     -2.097600    2.816900   -0.990600
  H      1.239700    0.466900    2.975600
  H      0.242600    1.824900    2.523100

----------------------------
CARTESIAN COORDINATES (A.U.)
----------------------------
  NO LB      ZA    FRAG     MASS         X           Y           Z
   0 C     6.0000    0    12.011    6.069422   -2.335513    9.404600
   1 C     6.0000    0    12.011    5.647069   -3.764523    6.956082
   2 O     8.0000    0    15.999    4.018503   -2.292616    5.381562
   3 C     6.0000    0    12.011    3.445349   -3.306265    3.114836
   4 O     8.0000    0    15.999    4.268324   -5.337154    2.472896
   5 C     6.0000    0    12.011    1.759713   -1.763492    1.507624
   6 C     6.0000    0    12.011    1.178622   -2.807944   -0.812582
   7 C     6.0000    0    12.011   -0.383047   -1.624220   -2.577775
   8 C     6.0000    0    12.011   -0.873620   -2.848951   -4.922359
   9 C     6.0000    0    12.011   -2.372929   -1.765571   -6.677914
  10 C     6.0000    0    12.011   -3.499584    0.632869   -6.219845
  11 C     6.0000    0    12.011   -5.053317    1.726454   -8.070831
  12 C     6.0000    0    12.011   -6.170523    4.033054   -7.695154
  13 C     6.0000    0    12.011   -5.753649    5.313343   -5.430506
  14 C     6.0000    0    12.011   -4.240356    4.279474   -3.592936
  15 C     6.0000    0    12.011   -3.063246    1.921663   -3.909087
  16 C     6.0000    0    12.011   -1.457924    0.767796   -2.025408
  17 C     6.0000    0    12.011   -0.866439    1.845507    0.351111
  18 C     6.0000    0    12.011   -1.754611    4.197649    1.223787
  19 N     7.0000    0    14.007   -2.277687    6.044667    2.252365
  20 C     6.0000    0    12.011    0.723009    0.629657    2.135768
  21 N     7.0000    0    14.007    1.215661    1.752343    4.368669
  22 H     1.0000    0     1.008    7.304736   -3.425696   10.627442
  23 H     1.0000    0     1.008    6.943421   -0.514761    9.027600
  24 H     1.0000    0     1.008    4.281741   -2.026353   10.368738
  25 H     1.0000    0     1.008    4.758708   -5.603227    7.294343
  26 H     1.0000    0     1.008    7.427002   -4.088422    5.950181
  27 H     1.0000    0     1.008    1.984968   -4.630018   -1.257802
  28 H     1.0000    0     1.008   -0.006992   -4.668001   -5.244557
  29 H     1.0000    0     1.008   -2.750118   -2.687757   -8.459359
  30 H     1.0000    0     1.008   -5.353216    0.703734   -9.813159
  31 H     1.0000    0     1.008   -7.362184    4.856029   -9.132668
  32 H     1.0000    0     1.008   -6.624624    7.131071   -5.114544
  33 H     1.0000    0     1.008   -3.963890    5.323170   -1.871963
  34 H     1.0000    0     1.008    2.342693    0.882313    5.623069
  35 H     1.0000    0     1.008    0.458448    3.448561    4.767968

--------------------------------
INTERNAL COORDINATES (ANGSTROEM)
--------------------------------
 C      0   0   0     0.000000000000     0.00000000     0.00000000
 C      1   0   0     1.516782509129     0.00000000     0.00000000
 O      2   1   0     1.429547722183   108.36545701     0.00000000
 C      3   2   1     1.348523674245   115.93132874   180.13200419
 O      4   3   2     1.208319672107   121.51930237     0.00000000
 C      4   3   2     1.478351517739   115.32620226   179.99158218
 C      6   4   3     1.381132281862   115.13656034   179.96735879
 C      7   6   4     1.395656379629   123.17582846   180.01056502
 C      8   7   6     1.423644007468   119.13938016   179.98427962
 C      9   8   7     1.349517487845   120.91352340   180.01414183
 C     10   9   8     1.423053351073   120.52677685     0.00000000
 C     11  10   9     1.403683290490   119.61959701   180.00961837
 C     12  11  10     1.370730914512   121.23481852   179.98043985
 C     13  12  11     1.394214176517   119.28365697     0.00000000
 C     14  13  12     1.373375698780   120.48250372     0.00000000
 C     15  14  13     1.404545830509   121.87940365     0.00000000
 C      8   7   6     1.418175719014   120.00912620     0.00000000
 C     17   8   7     1.415898601595   116.99481432     0.00000000
 C     18  17   8     1.408345600341   124.99115791   179.95435637
 N     19  18  17     1.152471904213   169.91961368   180.11405857
 C     18  17   8     1.418909486190   122.65428181   359.97562407
 N     21  18  17     1.347997722550   119.88213568   180.01697909
 H      1   2   3     1.085760429377   109.44699664   180.01319648
 H      1   2   3     1.087216054885   110.35016818   299.85223927
 H      1   2   3     1.087191335506   110.34598804    60.17446789
 H      2   1   3     1.095337395509   111.50069272   240.41222619
 H      2   1   3     1.095398037245   111.49497676   119.57537611
 H      7   6   4     1.080398949463   117.58503263     0.00000000
 H      9   8   7     1.079806913295   117.77430203     0.00000000
 H     10   9   8     1.080123812347   121.16602596   179.99224534
 H     12  11  10     1.080817806108   118.34883169     0.00000000
 H     13  12  11     1.079806047399   120.58698940   179.99777647
 H     14  13  12     1.079646358768   119.90142275   180.01535880
 H     15  14  13     1.075087656891   118.32501425   180.00536894
 H     22  21  18     1.004137221698   119.48890483   180.03062715
 H     22  21  18     1.005432215517   120.03972264   359.97604820

---------------------------
INTERNAL COORDINATES (A.U.)
---------------------------
 C      0   0   0     0.000000000000     0.00000000     0.00000000
 C      1   0   0     2.866303546976     0.00000000     0.00000000
 O      2   1   0     2.701453690298   108.36545701     0.00000000
 C      3   2   1     2.548340429433   115.93132874   180.13200419
 O      4   3   2     2.283393262511   121.51930237     0.00000000
 C      4   3   2     2.793679498193   115.32620226   179.99158218
 C      6   4   3     2.609961767436   115.13656034   179.96735879
 C      7   6   4     2.637408334559   123.17582846   180.01056502
 C      8   7   6     2.690297286313   119.13938016   179.98427962
 C      9   8   7     2.550218464965   120.91352340   180.01414183
 C     10   9   8     2.689181107487   120.52677685     0.00000000
 C     11  10   9     2.652576997787   119.61959701   180.00961837
 C     12  11  10     2.590306031728   121.23481852   179.98043985
 C     13  12  11     2.634682965647   119.28365697     0.00000000
 C     14  13  12     2.595303949677   120.48250372     0.00000000
 C     15  14  13     2.654206962203   121.87940365     0.00000000
 C      8   7   6     2.679963718713   120.00912620     0.00000000
 C     17   8   7     2.675660590418   116.99481432     0.00000000
 C     18  17   8     2.661387486558   124.99115791   179.95435637
 N     19  18  17     2.177856276001   169.91961368   180.11405857
 C     18  17   8     2.681350337722   122.65428181   359.97562407
 N     21  18  17     2.547346524769   119.88213568   180.01697909
 H      1   2   3     2.051789858570   109.44699664   180.01319648
 H      1   2   3     2.054540592135   110.35016818   299.85223927
 H      1   2   3     2.054493879279   110.34598804    60.17446789
 H      2   1   3     2.069887701754   111.50069272   240.41222619
 H      2   1   3     2.070002298028   111.49497676   119.57537611
 H      7   6   4     2.041658129861   117.58503263     0.00000000
 H      9   8   7     2.040539343643   117.77430203     0.00000000
 H     10   9   8     2.041138196064   121.16602596   179.99224534
 H     12  11  10     2.042449654210   118.34883169     0.00000000
 H     13  12  11     2.040537707337   120.58698940   179.99777647
 H     14  13  12     2.040235939556   119.90142275   180.01535880
 H     15  14  13     2.031621241484   118.32501425   180.00536894
 H     22  21  18     1.897544349886   119.48890483   180.03062715
 H     22  21  18     1.899991533549   120.03972264   359.97604820

---------------------
BASIS SET INFORMATION
---------------------
There are 4 groups of distinct atoms

 Group   1 Type C   : 19s6p3d2f contracted to 5s4p3d2f pattern {88111/3111/111/11}
 Group   2 Type O   : 19s6p3d2f contracted to 5s4p3d2f pattern {88111/3111/111/11}
 Group   3 Type N   : 19s6p3d2f contracted to 5s4p3d2f pattern {88111/3111/111/11}
 Group   4 Type H   : 5s2p1d contracted to 3s2p1d pattern {311/11/1}

Atom   0C    basis set group =>   1
Atom   1C    basis set group =>   1
Atom   2O    basis set group =>   2
Atom   3C    basis set group =>   1
Atom   4O    basis set group =>   2
Atom   5C    basis set group =>   1
Atom   6C    basis set group =>   1
Atom   7C    basis set group =>   1
Atom   8C    basis set group =>   1
Atom   9C    basis set group =>   1
Atom  10C    basis set group =>   1
Atom  11C    basis set group =>   1
Atom  12C    basis set group =>   1
Atom  13C    basis set group =>   1
Atom  14C    basis set group =>   1
Atom  15C    basis set group =>   1
Atom  16C    basis set group =>   1
Atom  17C    basis set group =>   1
Atom  18C    basis set group =>   1
Atom  19N    basis set group =>   3
Atom  20C    basis set group =>   1
Atom  21N    basis set group =>   3
Atom  22H    basis set group =>   4
Atom  23H    basis set group =>   4
Atom  24H    basis set group =>   4
Atom  25H    basis set group =>   4
Atom  26H    basis set group =>   4
Atom  27H    basis set group =>   4
Atom  28H    basis set group =>   4
Atom  29H    basis set group =>   4
Atom  30H    basis set group =>   4
Atom  31H    basis set group =>   4
Atom  32H    basis set group =>   4
Atom  33H    basis set group =>   4
Atom  34H    basis set group =>   4
Atom  35H    basis set group =>   4
---------------------------------
AUXILIARY/J BASIS SET INFORMATION
---------------------------------
There are 4 groups of distinct atoms

 Group   1 Type C   : 10s7p5d2f1g contracted to 10s7p5d2f1g pattern {1111111111/1111111/11111/11/1}
 Group   2 Type O   : 10s7p5d2f1g contracted to 10s7p5d2f1g pattern {1111111111/1111111/11111/11/1}
 Group   3 Type N   : 10s7p5d2f1g contracted to 10s7p5d2f1g pattern {1111111111/1111111/11111/11/1}
 Group   4 Type H   : 4s3p2d1f contracted to 4s3p2d1f pattern {1111/111/11/1}

Atom   0C    basis set group =>   1
Atom   1C    basis set group =>   1
Atom   2O    basis set group =>   2
Atom   3C    basis set group =>   1
Atom   4O    basis set group =>   2
Atom   5C    basis set group =>   1
Atom   6C    basis set group =>   1
Atom   7C    basis set group =>   1
Atom   8C    basis set group =>   1
Atom   9C    basis set group =>   1
Atom  10C    basis set group =>   1
Atom  11C    basis set group =>   1
Atom  12C    basis set group =>   1
Atom  13C    basis set group =>   1
Atom  14C    basis set group =>   1
Atom  15C    basis set group =>   1
Atom  16C    basis set group =>   1
Atom  17C    basis set group =>   1
Atom  18C    basis set group =>   1
Atom  19N    basis set group =>   3
Atom  20C    basis set group =>   1
Atom  21N    basis set group =>   3
Atom  22H    basis set group =>   4
Atom  23H    basis set group =>   4
Atom  24H    basis set group =>   4
Atom  25H    basis set group =>   4
Atom  26H    basis set group =>   4
Atom  27H    basis set group =>   4
Atom  28H    basis set group =>   4
Atom  29H    basis set group =>   4
Atom  30H    basis set group =>   4
Atom  31H    basis set group =>   4
Atom  32H    basis set group =>   4
Atom  33H    basis set group =>   4
Atom  34H    basis set group =>   4
Atom  35H    basis set group =>   4
---------------------------------
AUXILIARY/C BASIS SET INFORMATION
---------------------------------
There are 4 groups of distinct atoms

 Group   1 Type C   : 9s7p6d4f2g contracted to 9s7p6d4f2g pattern {111111111/1111111/111111/1111/11}
 Group   2 Type O   : 9s7p6d4f2g contracted to 9s7p6d4f2g pattern {111111111/1111111/111111/1111/11}
 Group   3 Type N   : 9s7p6d4f2g contracted to 9s7p6d4f2g pattern {111111111/1111111/111111/1111/11}
 Group   4 Type H   : 4s3p2d1f contracted to 4s3p2d1f pattern {1111/111/11/1}

Atom   0C    basis set group =>   1
Atom   1C    basis set group =>   1
Atom   2O    basis set group =>   2
Atom   3C    basis set group =>   1
Atom   4O    basis set group =>   2
Atom   5C    basis set group =>   1
Atom   6C    basis set group =>   1
Atom   7C    basis set group =>   1
Atom   8C    basis set group =>   1
Atom   9C    basis set group =>   1
Atom  10C    basis set group =>   1
Atom  11C    basis set group =>   1
Atom  12C    basis set group =>   1
Atom  13C    basis set group =>   1
Atom  14C    basis set group =>   1
Atom  15C    basis set group =>   1
Atom  16C    basis set group =>   1
Atom  17C    basis set group =>   1
Atom  18C    basis set group =>   1
Atom  19N    basis set group =>   3
Atom  20C    basis set group =>   1
Atom  21N    basis set group =>   3
Atom  22H    basis set group =>   4
Atom  23H    basis set group =>   4
Atom  24H    basis set group =>   4
Atom  25H    basis set group =>   4
Atom  26H    basis set group =>   4
Atom  27H    basis set group =>   4
Atom  28H    basis set group =>   4
Atom  29H    basis set group =>   4
Atom  30H    basis set group =>   4
Atom  31H    basis set group =>   4
Atom  32H    basis set group =>   4
Atom  33H    basis set group =>   4
Atom  34H    basis set group =>   4
Atom  35H    basis set group =>   4


           ************************************************************
           *        Program running with 4 parallel MPI-processes     *
           *              working on a common directory               *
           ************************************************************
------------------------------------------------------------------------------
                           ORCA GTO INTEGRAL CALCULATION
                           -- RI-GTO INTEGRALS CHOSEN --
------------------------------------------------------------------------------
------------------------------------------------------------------------------
                   ___                                                        
                  /   \      - P O W E R E D   B Y -                         
                 /     \                                                     
                 |  |  |   _    _      __       _____    __    __             
                 |  |  |  | |  | |    /  \     |  _  \  |  |  /  |          
                  \  \/   | |  | |   /    \    | | | |  |  | /  /          
                 / \  \   | |__| |  /  /\  \   | |_| |  |  |/  /          
                |  |  |   |  __  | /  /__\  \  |    /   |      \           
                |  |  |   | |  | | |   __   |  |    \   |  |\   \          
                \     /   | |  | | |  |  |  |  | |\  \  |  | \   \       
                 \___/    |_|  |_| |__|  |__|  |_| \__\ |__|  \__/        
                                                                              
                      - O R C A' S   B I G   F R I E N D -                    
                                      &                                       
                       - I N T E G R A L  F E E D E R -                       
                                                                              
 v1 FN, 2020, v2 2021                                                         
------------------------------------------------------------------------------


Reading SHARK input file optpbed3-b2plyp-test-625.SHARKINP.tmp ... ok
----------------------
SHARK INTEGRAL PACKAGE
----------------------

Number of atoms                             ...     36
Number of basis functions                   ...   1340
Number of shells                            ...    524
Maximum angular momentum                    ...      3
Integral batch strategy                     ... SHARK/LIBINT Hybrid
RI-J (if used) integral strategy            ... SPLIT-RIJ (Revised 2003 algorithm where possible)
Printlevel                                  ...      1
Contraction scheme used                     ... PARTIAL GENERAL contraction
Coulomb Range Separation                    ... NOT USED
Exchange Range Separation                   ... NOT USED
Finite Nucleus Model                        ... NOT USED
Auxiliary Coulomb fitting basis             ... AVAILABLE
   # of basis functions in Aux-J            ...   2158
   # of shells in Aux-J                     ...    690
   Maximum angular momentum in Aux-J        ...      4
Auxiliary J/K fitting basis                 ... NOT available
Auxiliary Correlation fitting basis         ... AVAILABLE
   # of basis functions in Aux-C            ...   2752
   # of shells in Aux-C                     ...    756
   Maximum angular momentum in Aux-C        ...      4
Auxiliary 'external' fitting basis          ... NOT available
Integral threshold                          ...     2.500000e-11
Primitive cut-off                           ...     2.500000e-12
Primitive pair pre-selection threshold      ...     2.500000e-12

Calculating pre-screening integrals         ... done (  0.3 sec) Dimension = 524
Calculating pre-screening integrals (ORCA)  ... done (  0.7 sec) Dimension = 392
Organizing shell pair data                  ... done (  1.6 sec)
Shell pair information
Total number of shell pairs                 ...    137550
Shell pairs after pre-screening             ...     86807
Total number of primitive shell pairs       ...    178014
Primitive shell pairs kept                  ...    101453
          la=0 lb=0:  19587 shell pairs
          la=1 lb=0:  22082 shell pairs
          la=1 lb=1:   5363 shell pairs
          la=2 lb=0:  14644 shell pairs
          la=2 lb=1:   7138 shell pairs
          la=2 lb=2:   2449 shell pairs
          la=3 lb=0:   8062 shell pairs
          la=3 lb=1:   3972 shell pairs
          la=3 lb=2:   2713 shell pairs
          la=3 lb=3:    797 shell pairs

Calculating one electron integrals          ... done (  0.3 sec)
Calculating RI/J V-Matrix + Cholesky decomp.... done (  0.4 sec)
Calculating RI/C V-Matrix + Cholesky decomp.... done (  0.6 sec)
Calculating Nuclear repulsion               ... done (  0.0 sec) ENN=   1646.533379853757 Eh

SHARK setup successfully completed in   5.4 seconds

Maximum memory used throughout the entire GTOINT-calculation: 136.6 MB


           ************************************************************
           *        Program running with 4 parallel MPI-processes     *
           *              working on a common directory               *
           ************************************************************
-------------------------------------------------------------------------------
                                 ORCA SCF
-------------------------------------------------------------------------------

------------
SCF SETTINGS
------------
Hamiltonian:
 Density Functional     Method          .... DFT(GTOs)
 Exchange Functional    Exchange        .... PBE
   PBE kappa parameter   XKappa         ....  0.804000
   PBE mue parameter    XMuePBE         ....  0.219520
 Correlation Functional Correlation     .... PBE
   PBE beta parameter  CBetaPBE         ....  0.066725
 LDA part of GGA corr.  LDAOpt          .... PW91-LDA
 Gradients option       PostSCFGGA      .... off
 Hybrid DFT is turned on
   Fraction HF Exchange ScalHFX         ....  0.250000
   Scaling of DF-GGA-X  ScalDFX         ....  0.750000
   Scaling of DF-GGA-C  ScalDFC         ....  1.000000
   Scaling of DF-LDA-C  ScalLDAC        ....  1.000000
   Perturbative correction              ....  0.000000
   Density functional embedding theory  .... OFF
   NL short-range parameter             ....  6.900000
 RI-approximation to the Coulomb term is turned on
   Number of AuxJ basis functions       .... 2158
   RIJ-COSX (HFX calculated with COS-X)).... on


General Settings:
 Integral files         IntName         .... optpbed3-b2plyp-test-625
 Hartree-Fock type      HFTyp           .... RHF
 Total Charge           Charge          ....    0
 Multiplicity           Mult            ....    1
 Number of Electrons    NEL             ....  152
 Basis Dimension        Dim             .... 1208
 Nuclear Repulsion      ENuc            ....   1646.5333798538 Eh

Convergence Acceleration:
 DIIS                   CNVDIIS         .... on
   Start iteration      DIISMaxIt       ....    12
   Startup error        DIISStart       ....  0.200000
   # of expansion vecs  DIISMaxEq       ....     5
   Bias factor          DIISBfac        ....   1.050
   Max. coefficient     DIISMaxC        ....  10.000
 Trust-Rad. Augm. Hess. CNVTRAH         .... auto
   Auto Start mean grad. ratio tolernc. ....  1.125000
   Auto Start start iteration           ....    20
   Auto Start num. interpolation iter.  ....    10
   Max. Number of Micro iterations      ....    16
   Max. Number of Macro iterations      .... Maxiter - #DIIS iter
   Number of Davidson start vectors     ....     2
   Converg. threshold I  (grad. norm)   ....   1.000e-05
   Converg. threshold II (energy diff.) ....   1.000e-08
   Grad. Scal. Fac. for Micro threshold ....   0.100
   Minimum threshold for Micro iter.    ....   0.010
   NR start threshold (gradient norm)   ....   0.001
   Initial trust radius                 ....   0.400
   Minimum AH scaling param. (alpha)    ....   1.000
   Maximum AH scaling param. (alpha)    .... 1000.000
   Orbital update algorithm             .... Taylor
   White noise on init. David. guess    .... on
   Maximum white noise                  ....   0.010
   Quad. conv. algorithm                .... NR
 SOSCF                  CNVSOSCF        .... on
   Start iteration      SOSCFMaxIt      ....   150
   Startup grad/error   SOSCFStart      ....  0.003300
 Level Shifting         CNVShift        .... on
   Level shift para.    LevelShift      ....    0.2500
   Turn off err/grad.   ShiftErr        ....    0.0010
 Zerner damping         CNVZerner       .... off
 Static damping         CNVDamp         .... on
   Fraction old density DampFac         ....    0.7000
   Max. Damping (<1)    DampMax         ....    0.9800
   Min. Damping (>=0)   DampMin         ....    0.0000
   Turn off err/grad.   DampErr         ....    0.1000
 Fernandez-Rico         CNVRico         .... off

SCF Procedure:
 Maximum # iterations   MaxIter         ....   125
 SCF integral mode      SCFMode         .... Direct
   Integral package                     .... SHARK and LIBINT hybrid scheme
 Reset frequency        DirectResetFreq ....    20
 Integral Threshold     Thresh          ....  2.500e-11 Eh
 Primitive CutOff       TCut            ....  2.500e-12 Eh

Convergence Tolerance:
 Convergence Check Mode ConvCheckMode   .... Total+1el-Energy
 Convergence forced     ConvForced      .... 0
 Energy Change          TolE            ....  1.000e-08 Eh
 1-El. energy change                    ....  1.000e-05 Eh
 Orbital Gradient       TolG            ....  1.000e-05
 Orbital Rotation angle TolX            ....  1.000e-05
 DIIS Error             TolErr          ....  5.000e-07


Diagonalization of the overlap matrix:
Smallest eigenvalue                        ... 5.171e-08
Time for diagonalization                   ...    0.351 sec
Threshold for overlap eigenvalues          ... 1.000e-08
Number of eigenvalues below threshold      ... 0
Time for construction of square roots      ...    0.248 sec
Total time needed                          ...    0.608 sec

Time for model grid setup =    0.872 sec

------------------------------
INITIAL GUESS: MODEL POTENTIAL
------------------------------
Loading Hartree-Fock densities                     ... done
Calculating cut-offs                               ... done
Initializing the effective Hamiltonian             ... done
Setting up the integral package (SHARK)            ... done
Starting the Coulomb interaction                   ... done (   3.5 sec)
Reading the grid                                   ... done
Mapping shells                                     ... done
Starting the XC term evaluation                    ... done (   2.9 sec)
  promolecular density results
     # of electrons  =    151.985853607
     EX              =   -125.656361435
     EC              =     -5.118360148
     EX+EC           =   -130.774721583
Transforming the Hamiltonian                       ... done (   0.2 sec)
Diagonalizing the Hamiltonian                      ... done (   0.3 sec)
Back transforming the eigenvectors                 ... done (   0.1 sec)
Now organizing SCF variables                       ... done
                      ------------------
                      INITIAL GUESS DONE (   7.9 sec)
                      ------------------
-------------------
DFT GRID GENERATION
-------------------

General Integration Accuracy     IntAcc      ... 4.388
Radial Grid Type                 RadialGrid  ... OptM3 with GC (2021)
Angular Grid (max. ang.)         AngularGrid ... 4 (Lebedev-302)
Angular grid pruning method      GridPruning ... 4 (adaptive)
Weight generation scheme         WeightScheme... Becke
Basis function cutoff            BFCut       ... 1.0000e-11
Integration weight cutoff        WCut        ... 1.0000e-14
Angular grids for H and He will be reduced by one unit
Partially contracted basis set               ... off
Rotationally invariant grid construction     ... off

Total number of grid points                  ...   181782
Total number of batches                      ...     2858
Average number of points per batch           ...       63
Average number of grid points per atom       ...     5050
Time for grid setup =    2.892 sec

--------------------
COSX GRID GENERATION
--------------------

GRIDX 1
-------
General Integration Accuracy     IntAcc      ... 3.816
Radial Grid Type                 RadialGrid  ... OptM3 with GC (2021)
Angular Grid (max. ang.)         AngularGrid ... 1 (Lebedev-50)
Angular grid pruning method      GridPruning ... 4 (adaptive)
Weight generation scheme         WeightScheme... Becke
Basis function cutoff            BFCut       ... 1.0000e-11
Integration weight cutoff        WCut        ... 1.0000e-14
Angular grids for H and He will be reduced by one unit
Partially contracted basis set               ... on
Rotationally invariant grid construction     ... off

Total number of grid points                  ...    23126
Total number of batches                      ...      384
Average number of points per batch           ...       60
Average number of grid points per atom       ...      642
UseSFitting                                  ... on

GRIDX 2
-------
General Integration Accuracy     IntAcc      ... 4.020
Radial Grid Type                 RadialGrid  ... OptM3 with GC (2021)
Angular Grid (max. ang.)         AngularGrid ... 2 (Lebedev-110)
Angular grid pruning method      GridPruning ... 4 (adaptive)
Weight generation scheme         WeightScheme... Becke
Basis function cutoff            BFCut       ... 1.0000e-11
Integration weight cutoff        WCut        ... 1.0000e-14
Angular grids for H and He will be reduced by one unit
Partially contracted basis set               ... on
Rotationally invariant grid construction     ... off

Total number of grid points                  ...    55106
Total number of batches                      ...      882
Average number of points per batch           ...       62
Average number of grid points per atom       ...     1531
UseSFitting                                  ... on

GRIDX 3
-------
General Integration Accuracy     IntAcc      ... 4.338
Radial Grid Type                 RadialGrid  ... OptM3 with GC (2021)
Angular Grid (max. ang.)         AngularGrid ... 3 (Lebedev-194)
Angular grid pruning method      GridPruning ... 4 (adaptive)
Weight generation scheme         WeightScheme... Becke
Basis function cutoff            BFCut       ... 1.0000e-11
Integration weight cutoff        WCut        ... 1.0000e-14
Angular grids for H and He will be reduced by one unit
Partially contracted basis set               ... on
Rotationally invariant grid construction     ... off

Total number of grid points                  ...   118851
Total number of batches                      ...     1876
Average number of points per batch           ...       63
Average number of grid points per atom       ...     3301
UseSFitting                                  ... on

Time for X-Grid setup             =    7.645 sec


--------------------
CPCM SOLVATION MODEL
--------------------
CPCM parameters:
  Epsilon                                         ...       2.3741
  Refrac                                          ...       1.4961
  Rsolv                                           ...       1.3000
  Surface type                                    ... GAUSSIAN VDW
  Epsilon function type                           ...         CPCM
Solvent:                                     ... TOLUENE
SMD-CDS solvent descriptors:
  Soln                                       ...    1.4961
  Soln25                                     ...    1.4936
  Sola                                       ...    0.0000
  Solb                                       ...    0.1400
  Solg                                       ...   40.2000
  Solc                                       ...    0.8570
  Solh                                       ...    0.0000
Radii:
 Radius for C  used is    3.4960 Bohr (=   1.8500 Ang.)
 Radius for O  used is    4.3350 Bohr (=   2.2940 Ang.)
 Radius for N  used is    3.5716 Bohr (=   1.8900 Ang.)
 Radius for H  used is    2.2677 Bohr (=   1.2000 Ang.)
Calculating surface                               ...        done! (  0.0s)
GEPOL surface points                              ...         1901
GEPOL Volume                                      ...    2136.0495
GEPOL Surface-area                                ...    1120.8452
Calculating surface distance matrix               ...        done! (  0.1s)
Performing Cholesky decomposition & store         ...        done! (  0.2s)
Overall time for CPCM initialization              ...                 0.3s
 re-compute Schwartz prescreening matrix in partically contracted basis (1) ...done (   0.278 sec)
--------------
SCF ITERATIONS
--------------
ITER       Energy         Delta-E        Max-DP      RMS-DP      [F,P]     Damp
               ***  Starting incremental Fock matrix formation  ***
  0   -953.0726966389   0.000000000000 1.03505651  0.00373463  0.2876397 0.7000
  1   -953.2979167696  -0.225220130621 0.80788633  0.00267310  0.1155909 0.7000
                               ***Turning on DIIS***
  2   -953.3910972320  -0.093180462405 1.76180918  0.00595767  0.0441491 0.0000
  3   -953.5433865520  -0.152289320056 0.17235379  0.00127659  0.0541195 0.0000
  4   -953.5701208885  -0.026734336519 0.19418694  0.00109485  0.0191713 0.0000
  5   -953.5724192547  -0.002298366123 0.12932460  0.00066476  0.0060248 0.0000
                      *** Initiating the SOSCF procedure ***
                           *** Shutting down DIIS ***
                      *** Re-Reading the Fockian *** 
                      *** Removing any level shift *** 
ITER      Energy       Delta-E        Grad      Rot      Max-DP    RMS-DP
  6   -953.57252905  -0.0001097926  0.000243  0.000243  0.277466  0.001223
               *** Restarting incremental Fock matrix formation ***
  7   -953.57251730   0.0000117424  0.000116  0.000456  1.026117  0.004677
  8   -953.57251925  -0.0000019405  0.000141  0.000376  0.373540  0.001758
  9   -953.57252102  -0.0000017780  0.000064  0.000142  0.249214  0.001488
 10   -953.57252137  -0.0000003437  0.000044  0.000077  0.603374  0.002520
 11   -953.57252141  -0.0000000426  0.000029  0.000056  0.464730  0.002112
 12   -953.57252142  -0.0000000093  0.000007  0.000020  0.213159  0.001289
 13   -953.57252142   0.0000000018  0.000009  0.000012  0.645960  0.002698
 14   -953.57252146  -0.0000000455  0.000007  0.000020  1.616532  0.006941
 15   -953.57252144   0.0000000228  0.000014  0.000014  0.997845  0.004157
 16   -953.57252146  -0.0000000189  0.000005  0.000013  0.570580  0.002550
 17   -953.57252147  -0.0000000089  0.000008  0.000012  0.616281  0.002877
 18   -953.57252145   0.0000000153  0.000004  0.000008  0.091713  0.000743
 19   -953.57252145   0.0000000071  0.000004  0.000005  0.106667  0.000587
                  ***Gradient check signals convergence***
              ***Rediagonalizing the Fockian in SOSCF/NRSCF***

               *****************************************************
               *                     SUCCESS                       *
               *           SCF CONVERGED AFTER  20 CYCLES          *
               *****************************************************

Old exchange energy                            =    -32.022711028 Eh
New exchange energy                            =    -32.022704063 Eh
Exchange energy change after final integration =      0.000006965 Eh
Total energy after final integration           =   -953.572514486 Eh
Final COS-X integration done in                =   191.141 sec

SMD CDS free energy correction energy :                -6.49799     Kcal/mol
Total Energy after SMD CDS correction =              -953.582869692 Eh

----------------
TOTAL SCF ENERGY
----------------

Total Energy       :         -953.58286969 Eh          -25948.30907 eV

Components:
Nuclear Repulsion  :         1646.53337985 Eh           44804.45108 eV
Electronic Energy  :        -2600.11624955 Eh          -70752.76015 eV
One Electron Energy:        -4564.41016344 Eh         -124203.91495 eV
Two Electron Energy:         1964.29391390 Eh           53451.15480 eV
Max COSX asymmetry :            0.00011324 Eh               0.00308 eV
CPCM Dielectric    :           -0.01144486 Eh              -0.31143 eV
SMD CDS (Gcds)     :           -0.01035521 Eh              -0.28178 eV

Virial components:
Potential Energy   :        -1901.91134402 Eh          -51753.63878 eV
Kinetic Energy     :          948.32847433 Eh           25805.32970 eV
Virial Ratio       :            2.00554069


DFT components:
N(Alpha)           :       76.000017003422 electrons
N(Beta)            :       76.000017003422 electrons
N(Total)           :      152.000034006843 electrons
E(X)               :      -95.855824806108 Eh       
E(C)               :       -5.119277030774 Eh       
E(XC)              :     -100.975101836882 Eh       
DFET-embed. en.    :        0.000000000000 Eh       
CPCM Solvation Model Properties:
Surface-charge          :           -0.05221462
Charge-correction       :            0.00017025 Eh               0.00463 eV
Free-energy (cav+disp)  :           -0.01035521 Eh              -0.28178 eV

---------------
SCF CONVERGENCE
---------------

  Last Energy change         ...   -5.0999e-09  Tolerance :   1.0000e-08
  Last MAX-Density change    ...    7.1054e-15  Tolerance :   1.0000e-07
  Last RMS-Density change    ...    4.4819e-17  Tolerance :   5.0000e-09
  Last Orbital Gradient      ...    2.1365e-06  Tolerance :   1.0000e-05
  Last Orbital Rotation      ...    3.6886e-06  Tolerance :   1.0000e-05

             **** THE GBW FILE WAS UPDATED (optpbed3-b2plyp-test-625.gbw) ****
             **** DENSITY optpbed3-b2plyp-test-625.scfp WAS UPDATED ****
             **** ENERGY FILE WAS UPDATED (optpbed3-b2plyp-test-625.en.tmp) ****
             **** THE GBW FILE WAS UPDATED (optpbed3-b2plyp-test-625.gbw) ****
             **** DENSITY optpbed3-b2plyp-test-625.scfp WAS UPDATED ****
----------------
ORBITAL ENERGIES
----------------

  NO   OCC          E(Eh)            E(eV) 
   0   2.0000     -19.270957      -524.3894 
   1   2.0000     -19.201131      -522.4893 
   2   2.0000     -14.408399      -392.0725 
   3   2.0000     -14.388583      -391.5333 
   4   2.0000     -10.365174      -282.0507 
   5   2.0000     -10.312079      -280.6059 
   6   2.0000     -10.285907      -279.8938 
   7   2.0000     -10.273947      -279.5683 
   8   2.0000     -10.272793      -279.5369 
   9   2.0000     -10.269434      -279.4455 
  10   2.0000     -10.257996      -279.1343 
  11   2.0000     -10.253780      -279.0196 
  12   2.0000     -10.251536      -278.9585 
  13   2.0000     -10.247632      -278.8522 
  14   2.0000     -10.247394      -278.8458 
  15   2.0000     -10.235542      -278.5232 
  16   2.0000     -10.233657      -278.4720 
  17   2.0000     -10.232156      -278.4311 
  18   2.0000     -10.231671      -278.4179 
  19   2.0000     -10.230553      -278.3875 
  20   2.0000     -10.230444      -278.3845 
  21   2.0000     -10.222086      -278.1571 
  22   2.0000      -1.153477       -31.3877 
  23   2.0000      -1.058789       -28.8111 
  24   2.0000      -0.987521       -26.8718 
  25   2.0000      -0.945243       -25.7214 
  26   2.0000      -0.924129       -25.1468 
  27   2.0000      -0.887934       -24.1619 
  28   2.0000      -0.845281       -23.0013 
  29   2.0000      -0.835479       -22.7345 
  30   2.0000      -0.806548       -21.9473 
  31   2.0000      -0.792413       -21.5627 
  32   2.0000      -0.775321       -21.0976 
  33   2.0000      -0.750992       -20.4355 
  34   2.0000      -0.703562       -19.1449 
  35   2.0000      -0.682647       -18.5758 
  36   2.0000      -0.660770       -17.9805 
  37   2.0000      -0.650102       -17.6902 
  38   2.0000      -0.632399       -17.2085 
  39   2.0000      -0.609303       -16.5800 
  40   2.0000      -0.586771       -15.9668 
  41   2.0000      -0.573130       -15.5957 
  42   2.0000      -0.570568       -15.5259 
  43   2.0000      -0.540429       -14.7058 
  44   2.0000      -0.524732       -14.2787 
  45   2.0000      -0.522607       -14.2209 
  46   2.0000      -0.506750       -13.7894 
  47   2.0000      -0.501957       -13.6589 
  48   2.0000      -0.496414       -13.5081 
  49   2.0000      -0.479636       -13.0515 
  50   2.0000      -0.464612       -12.6427 
  51   2.0000      -0.462365       -12.5816 
  52   2.0000      -0.453461       -12.3393 
  53   2.0000      -0.442610       -12.0440 
  54   2.0000      -0.441899       -12.0247 
  55   2.0000      -0.433164       -11.7870 
  56   2.0000      -0.421715       -11.4754 
  57   2.0000      -0.414246       -11.2722 
  58   2.0000      -0.413107       -11.2412 
  59   2.0000      -0.403609       -10.9827 
  60   2.0000      -0.393479       -10.7071 
  61   2.0000      -0.388143       -10.5619 
  62   2.0000      -0.385883       -10.5004 
  63   2.0000      -0.379940       -10.3387 
  64   2.0000      -0.375384       -10.2147 
  65   2.0000      -0.370623       -10.0852 
  66   2.0000      -0.367118        -9.9898 
  67   2.0000      -0.355430        -9.6718 
[...]
   Time for densities:            0.288
   Time for XC-Integration:      26.664
   Time for LR-CPCM terms:       14.494
   Time for Sigma-Completion:     0.219
   Time for building 10 sigma-vectors
   Data Preparation Phase         ...     0.01 sec
   Transformed RI Coulomb         ...     1.02 sec
   Transformed RI-exchange        ...   606.71 sec
   (ab|v) reading and digestion   ...   570.29 sec
   Final sigma-completion         ...     0.01 sec
   Done building sigma-vectors             Size of expansion space: 30
   Lowest Energy          :     0.131717733614
   Maximum Energy change  :     0.000216214767 (vector 9)
   Maximum residual norm  :     0.000038224407

                       ****Iteration   13****
              <<< Entering MO-section for Build Sigma(Double) >>>
   Forming the XC and CPCM contribution:
   Time for densities:            0.271
   Time for XC-Integration:      23.196
   Time for LR-CPCM terms:       13.404
   Time for Sigma-Completion:     0.189
   Time for building 9 sigma-vectors
   Data Preparation Phase         ...     0.01 sec
   Transformed RI Coulomb         ...     0.94 sec
   Transformed RI-exchange        ...   545.61 sec
   (ab|v) reading and digestion   ...   509.43 sec
   Final sigma-completion         ...     0.01 sec
   Done building sigma-vectors             Size of expansion space: 39
   Lowest Energy          :     0.131717733614
   Maximum Energy change  :     0.000074438723 (vector 8)
   Maximum residual norm  :     0.000014483170

                       ****Iteration   14****
              <<< Entering MO-section for Build Sigma(Double) >>>
   Forming the XC and CPCM contribution:
   Time for densities:            0.250
   Time for XC-Integration:      23.443
   Time for LR-CPCM terms:       13.362
   Time for Sigma-Completion:     0.215
   Time for building 9 sigma-vectors
   Data Preparation Phase         ...     0.01 sec
   Transformed RI Coulomb         ...     0.93 sec
   Transformed RI-exchange        ...   528.25 sec
   (ab|v) reading and digestion   ...   468.18 sec
   Final sigma-completion         ...     0.01 sec
   Done building sigma-vectors             Size of expansion space: 48
   Lowest Energy          :     0.131717733614
   Maximum Energy change  :     0.000024820455 (vector 8)
   Maximum residual norm  :     0.000005015196

                       ****Iteration   15****
              <<< Entering MO-section for Build Sigma(Double) >>>
   Forming the XC and CPCM contribution:
   Time for densities:            0.222
   Time for XC-Integration:      20.777
   Time for LR-CPCM terms:       12.577
   Time for Sigma-Completion:     0.194
   Time for building 8 sigma-vectors
   Data Preparation Phase         ...     0.01 sec
   Transformed RI Coulomb         ...     0.86 sec
   Transformed RI-exchange        ...   463.28 sec
   (ab|v) reading and digestion   ...   406.09 sec
   Final sigma-completion         ...     0.01 sec
   Done building sigma-vectors             Size of expansion space: 56
   Lowest Energy          :     0.131717733614
   Maximum Energy change  :     0.000010785960 (vector 8)
   Maximum residual norm  :     0.000001771765

                       ****Iteration   16****
              <<< Entering MO-section for Build Sigma(Double) >>>
   Forming the XC and CPCM contribution:
   Time for densities:            0.214
   Time for XC-Integration:      18.706
   Time for LR-CPCM terms:       11.844
   Time for Sigma-Completion:     0.154
   Time for building 7 sigma-vectors
   Data Preparation Phase         ...     0.01 sec
   Transformed RI Coulomb         ...     0.80 sec
   Transformed RI-exchange        ...   342.79 sec
   (ab|v) reading and digestion   ...   327.31 sec
   Final sigma-completion         ...     0.01 sec
   Done building sigma-vectors             Size of expansion space: 63
   Lowest Energy          :     0.131717733614
   Maximum Energy change  :     0.000004352176 (vector 8)
   Maximum residual norm  :     0.000000744815

      *** CONVERGENCE OF RESIDUAL NORM REACHED ***

Storing the converged CI vectors               ... optpbed3-b2plyp-test-625_job2.cis1

                 *** DAVIDSON DONE ***

Total time for solving the CIS problem: 11396.738sec

------------------
DOUBLES CORRECTION (Double precision version)
------------------

The (D) correction will be scaled by  0.2700
Doing v(i,a)*T(i,a) terms (RI)                    ... ok
Doing u(i,j,a,b) terms for state   0              ... ok
Doing u(i,j,a,b) terms for state   1              ... ok
Doing u(i,j,a,b) terms for state   2              ... ok
Doing u(i,j,a,b) terms for state   3              ... ok
Doing u(i,j,a,b) terms for state   4              ... ok
Doing u(i,j,a,b) terms for state   5              ... ok
Doing u(i,j,a,b) terms for state   6              ... ok
Doing u(i,j,a,b) terms for state   7              ... ok
Doing u(i,j,a,b) terms for state   8              ... ok
Doing u(i,j,a,b) terms for state   9              ... ok

Contributions to the (D) correction(s) (in eV)

STATE  Final   Init.   Total   v(ext)   v(int)  v(3)    u
       omega   omega     (D)                             
-----------------------------------------------------------------------------
   0   3.114   3.584  -0.470   0.652   1.018  -0.061  -2.078
   1   4.078   4.343  -0.265   0.621   1.006  -0.044  -1.848
   2   4.345   4.823  -0.478   0.585   1.002  -0.083  -1.982
   3   4.353   4.872  -0.518   0.614   0.935  -0.041  -2.027
   4   4.652   5.177  -0.525   0.528   0.989  -0.046  -1.996
   5   5.105   5.290  -0.186   0.043   1.017  -0.001  -1.245
   6   5.239   5.552  -0.313   0.185   1.000  -0.017  -1.481
   7   5.026   5.554  -0.529   0.428   0.986  -0.045  -1.897
   8   4.981   5.770  -0.789   0.679   0.807  -0.027  -2.248
   9   5.570   5.775  -0.204   0.083   1.017  -0.003  -1.302

(D)-timings
 V(i,a)*T(i,a) terms           ...   813.932 sec
 U(i,j,a,b) 3-internal         ...    20.063 sec
 U(i,j,a,b) 3-external         ...   440.957 sec
 U(i,j,a,b) pair terms         ...   463.329 sec
 Total measured time           ...  3824.026 sec

 Time for (ab|v) I/O           ...    96.807 sec


------------------------------------
TD-DFT/TDA EXCITED STATES (SINGLETS)
------------------------------------

the weight of the individual excitations are printed if larger than 1.0e-02

STATE  1:  E=   0.114449 au      3.114 eV    25118.5 cm**-1 <S**2> =   0.000000
    74a ->  77a  :     0.043642 (c=  0.20890765)
    75a ->  76a  :     0.921984 (c=  0.96020020)

STATE  2:  E=   0.149846 au      4.078 eV    32887.4 cm**-1 <S**2> =   0.000000
    74a ->  76a  :     0.510445 (c=  0.71445436)
    75a ->  77a  :     0.433332 (c= -0.65827968)

STATE  3:  E=   0.159685 au      4.345 eV    35046.8 cm**-1 <S**2> =   0.000000
    73a ->  76a  :     0.051651 (c=  0.22726914)
    74a ->  76a  :     0.354541 (c= -0.59543336)
    74a ->  77a  :     0.013209 (c=  0.11493254)
    74a ->  80a  :     0.021069 (c= -0.14515045)
    75a ->  77a  :     0.490652 (c= -0.70046528)
    75a ->  80a  :     0.012031 (c=  0.10968424)

STATE  4:  E=   0.159988 au      4.353 eV    35113.3 cm**-1 <S**2> =   0.000000
    72a ->  77a  :     0.011845 (c= -0.10883440)
    73a ->  76a  :     0.627897 (c=  0.79239972)
    74a ->  76a  :     0.050633 (c=  0.22501752)
    74a ->  77a  :     0.053749 (c=  0.23183766)
    74a ->  80a  :     0.014591 (c= -0.12079310)
    75a ->  77a  :     0.012995 (c=  0.11399699)
    75a ->  80a  :     0.094550 (c= -0.30749018)
    75a ->  84a  :     0.018904 (c= -0.13749204)
    75a ->  86a  :     0.056209 (c=  0.23708346)

STATE  5:  E=   0.170959 au      4.652 eV    37521.2 cm**-1 <S**2> =   0.000000
    72a ->  76a  :     0.018233 (c=  0.13503035)
    73a ->  76a  :     0.109717 (c= -0.33123609)
    73a ->  77a  :     0.015466 (c=  0.12436094)
    74a ->  76a  :     0.028870 (c= -0.16991156)
    74a ->  77a  :     0.033362 (c=  0.18265380)
    75a ->  80a  :     0.704507 (c= -0.83934905)
    75a ->  84a  :     0.011645 (c= -0.10791413)

STATE  6:  E=   0.187588 au      5.105 eV    41170.8 cm**-1 <S**2> =   0.000000
    73a ->  82a  :     0.010235 (c= -0.10117042)
    75a ->  78a  :     0.199979 (c= -0.44719006)
    75a ->  79a  :     0.453399 (c= -0.67334933)
    75a ->  82a  :     0.203388 (c=  0.45098579)
    75a ->  87a  :     0.058854 (c=  0.24259894)

STATE  7:  E=   0.192529 au      5.239 eV    42255.2 cm**-1 <S**2> =   0.000000
    73a ->  76a  :     0.024320 (c=  0.15594794)
    73a ->  78a  :     0.010922 (c=  0.10451072)
    73a ->  79a  :     0.018606 (c=  0.13640540)
    74a ->  77a  :     0.149316 (c= -0.38641459)
    75a ->  78a  :     0.193425 (c= -0.43980144)
    75a ->  79a  :     0.252605 (c=  0.50259814)
    75a ->  80a  :     0.012645 (c= -0.11245010)
    75a ->  81a  :     0.081679 (c= -0.28579506)
    75a ->  82a  :     0.081421 (c=  0.28534351)
    75a ->  85a  :     0.026127 (c= -0.16163997)
    75a ->  86a  :     0.033137 (c= -0.18203669)

STATE  8:  E=   0.184692 au      5.026 eV    40535.2 cm**-1 <S**2> =   0.000000
    73a ->  76a  :     0.067320 (c=  0.25946168)
    73a ->  80a  :     0.020586 (c=  0.14347933)
    74a ->  77a  :     0.416340 (c= -0.64524406)
    75a ->  76a  :     0.026350 (c=  0.16232579)
    75a ->  78a  :     0.067179 (c=  0.25918937)
    75a ->  79a  :     0.087971 (c= -0.29659870)
    75a ->  80a  :     0.042769 (c= -0.20680763)
    75a ->  81a  :     0.030197 (c=  0.17377244)
    75a ->  82a  :     0.031123 (c= -0.17641571)
    75a ->  85a  :     0.015142 (c=  0.12305307)
    75a ->  86a  :     0.084450 (c= -0.29060287)

STATE  9:  E=   0.183046 au      4.981 eV    40174.0 cm**-1 <S**2> =   0.000000
    70a ->  76a  :     0.593571 (c= -0.77043534)
    70a ->  80a  :     0.074956 (c=  0.27378149)
    70a ->  86a  :     0.103135 (c=  0.32114680)
    70a ->  89a  :     0.042730 (c=  0.20671230)
    70a ->  94a  :     0.012529 (c=  0.11193336)
    70a ->  95a  :     0.045338 (c=  0.21292647)
    70a -> 109a  :     0.010929 (c=  0.10454144)

STATE 10:  E=   0.204698 au      5.570 eV    44926.1 cm**-1 <S**2> =   0.000000
    75a ->  78a  :     0.046996 (c= -0.21678485)
    75a ->  79a  :     0.024604 (c=  0.15685660)
    75a ->  81a  :     0.654442 (c=  0.80897607)
    75a ->  83a  :     0.069586 (c= -0.26379129)
    75a ->  87a  :     0.056814 (c= -0.23835765)
    75a ->  92a  :     0.011564 (c=  0.10753511)
    75a ->  96a  :     0.023841 (c= -0.15440662)


-----------------------------
TD-DFT/TDA-EXCITATION SPECTRA
-----------------------------

Center of mass = ( -0.2554,  0.1408, -0.3244)
Calculating the Dipole integrals                  ... done
Transforming integrals                            ... done
Calculating the Linear Momentum integrals         ... done
Transforming integrals                            ... done
Calculating angular momentum integrals            ... done
Transforming integrals                            ... done

-----------------------------------------------------------------------------
         ABSORPTION SPECTRUM VIA TRANSITION ELECTRIC DIPOLE MOMENTS
-----------------------------------------------------------------------------
State   Energy    Wavelength  fosc         T2        TX        TY        TZ  
        (cm-1)      (nm)                 (au**2)    (au)      (au)      (au) 
-----------------------------------------------------------------------------
   1   25118.5    398.1   0.195836247   2.56669  -0.82785   1.36801  -0.09955
   2   32887.4    304.1   0.003473651   0.03477  -0.11048   0.10091  -0.11128
   3   35046.8    285.3   1.734513015  16.29315   2.15196  -0.91303   3.29068
   4   35113.3    284.8   0.047617198   0.44645  -0.29983  -0.00102  -0.59712
   5   37521.2    266.5   0.169967238   1.49130   0.59225  -0.12699   1.06038
   6   41170.8    242.9   0.000152395   0.00122   0.01060   0.02103  -0.02577
   7   42255.2    236.7   0.080829289   0.62974  -0.35603   0.53943   0.46044
   8   40535.2    246.7   0.202572200   1.64522  -0.20516   1.13126   0.56866
   9   40174.0    248.9   0.000285220   0.00234   0.02024   0.03829  -0.02149
  10   44926.1    222.6   0.000114164   0.00084   0.01431  -0.02450  -0.00563

-----------------------------------------------------------------------------
         ABSORPTION SPECTRUM VIA TRANSITION VELOCITY DIPOLE MOMENTS
-----------------------------------------------------------------------------
State   Energy    Wavelength   fosc        P2         PX        PY        PZ  
        (cm-1)      (nm)                 (au**2)     (au)      (au)      (au) 
-----------------------------------------------------------------------------
   1   25118.5    398.1   0.028843449   0.00495   0.03913  -0.02094   0.05461
   2   32887.4    304.1   0.009503272   0.00214   0.02658  -0.01652   0.03401
   3   35046.8    285.3   0.834215811   0.19982  -0.24617   0.12358  -0.35206
   4   35113.3    284.8   0.037183321   0.00892   0.04500  -0.00609   0.08284
   5   37521.2    266.5   0.088249270   0.02263  -0.07362   0.01520  -0.13031
   6   41170.8    242.9   0.000036866   0.00001   0.00299   0.00015   0.00119
   7   42255.2    236.7   0.014794588   0.00427   0.05384  -0.01671  -0.03309
   8   40535.2    246.7   0.022564725   0.00625   0.00345  -0.07825  -0.01081
   9   40174.0    248.9   0.000767139   0.00021   0.01358   0.00310  -0.00408
  10   44926.1    222.6   0.000100950   0.00003  -0.00546  -0.00030   0.00105

-------------------------------------------------------------------
                             CD SPECTRUM
-------------------------------------------------------------------
State  Energy     Wavelength     R         MX        MY        MZ   
       (cm-1)       (nm)     (1e40*cgs)   (au)      (au)      (au)  
-------------------------------------------------------------------
   1   25118.5    398.1      0.67792   0.35104   0.20077  -0.17462
   2   32887.4    304.1     -0.19794  -0.04461  -0.02715   0.02344
   3   35046.8    285.3      0.41327  -0.66981  -0.38262   0.33213
   4   35113.3    284.8     -0.04994   0.21056   0.12061  -0.10576
   5   37521.2    266.5      0.99761  -0.00765  -0.00914   0.00517
   6   41170.8    242.9     -1.32546   0.10132  -0.13319   0.04211
   7   42255.2    236.7    -30.01698   0.14524   0.01408  -0.04247
   8   40535.2    246.7     28.97177   0.16674   0.13674  -0.10380
   9   40174.0    248.9     -3.42679   0.10972  -0.30082  -0.09437
  10   44926.1    222.6      0.09771   0.04643  -0.00843   0.11781

-------------------------------------------------------------------
         CD SPECTRUM VIA TRANSITION VELOCITY DIPOLE MOMENTS        
-------------------------------------------------------------------
State  Energy     Wavelength     R         MX        MY        MZ   
       (cm-1)       (nm)     (1e40*cgs)   (au)      (au)      (au)  
-------------------------------------------------------------------
   1   25118.5    398.1     -0.02183   0.35104   0.20077  -0.17462
   2   32887.4    304.1      0.18769  -0.04461  -0.02715   0.02344
   3   35046.8    285.3      1.98996  -0.66981  -0.38262   0.33213
   4   35113.3    284.8     -0.05992   0.21056   0.12061  -0.10576
   5   37521.2    266.5     -0.68933  -0.00765  -0.00914   0.00517
   6   41170.8    242.9      0.83657   0.10132  -0.13319   0.04211
   7   42255.2    236.7     22.01346   0.14524   0.01408  -0.04247
   8   40535.2    246.7    -22.97613   0.16674   0.13674  -0.10380
   9   40174.0    248.9      2.43096   0.10972  -0.30082  -0.09437
  10   44926.1    222.6     -0.29370   0.04643  -0.00843   0.11781

Total run time:    15230.536 sec

           *** ORCA-CIS/TD-DFT FINISHED WITHOUT ERROR ***

Maximum memory used throughout the entire CIS-calculation: 1741.1 MB

-----------------------
CIS/TD-DFT TOTAL ENERGY
-----------------------

    E(SCF)  =   -952.705477834 Eh
    DE(CIS) =      0.114448532 Eh (Root  1)
    ----------------------------- ---------
    E(tot)  =   -952.591029301 Eh



-------------------------------------------------------------------------------
                          DFT DISPERSION CORRECTION                            
                                                                               
                              DFTD3 V3.1  Rev 1                                
                          USING Becke-Johnson damping                          
-------------------------------------------------------------------------------
The B2PLYP functional is recognized
Active option DFTDOPT                   ...         4   

molecular C6(AA) [au] = 16558.274755 


            DFT-D V3
 parameters
 s6 scaling factor         :     0.6400 
 a1 scaling factor         :     0.3065 
 s8 scaling factor         :     0.9147 
 a2 scaling factor         :     5.0570 
 ad hoc parameters k1-k3   :    16.0000     1.3333    -4.0000 

 Edisp/kcal,au: -24.784218409386  -0.039496161875 
 E6   /kcal   : -13.836607867 
 E8   /kcal   : -10.947610542 
 % E8         :  44.171699754 

-------------------------   ----------------
Dispersion correction           -0.039496162
-------------------------   ----------------


-------------------------   --------------------
FINAL SINGLE POINT ENERGY      -952.630525463294
-------------------------   --------------------


                            ***************************************
                            *     ORCA property calculations      *
                            ***************************************


  WARNING: The energy has been calculated at the MP2 level but the densities
           used in the property calculations are still SCF densities
           MP2 response densities have not been calculated 
           use %mp2 Density relaxed end
           or  %mp2 Density unrelaxed end

                                    ---------------------
                                    Active property flags
                                    ---------------------
   (+) Dipole Moment


------------------------------------------------------------------------------
                       ORCA ELECTRIC PROPERTIES CALCULATION
------------------------------------------------------------------------------

Dipole Moment Calculation                       ... on
Quadrupole Moment Calculation                   ... off
Polarizability Calculation                      ... off
GBWName                                         ... optpbed3-b2plyp-test-625_job2.gbw
Electron density                                ... optpbed3-b2plyp-test-625_job2.scfp
The origin for moment calculation is the CENTER OF MASS  = (-0.255414,  0.140801 -0.324401)

-------------
DIPOLE MOMENT
-------------
                                X             Y             Z
Electronic contribution:     -5.88701       2.73481      -8.27262
Nuclear contribution   :      6.56303      -3.56773       8.60551
                        -----------------------------------------
Total Dipole Moment    :      0.67601      -0.83292       0.33290
                        -----------------------------------------
Magnitude (a.u.)       :      1.12319
Magnitude (Debye)      :      2.85493



--------------------
Rotational spectrum 
--------------------
 
Rotational constants in cm-1:     0.022719     0.005293     0.004300 
Rotational constants in MHz :   681.111695   158.674606   128.910475 

 Dipole components along the rotational axes: 
x,y,z [a.u.] :     0.917479    -0.647273    -0.028933 
x,y,z [Debye]:     2.332046    -1.645237    -0.073543 

 

Timings for individual modules:

Sum of individual times         ...    18613.491 sec (= 310.225 min)
GTO integral calculation        ...        7.319 sec (=   0.122 min)   0.0 %
SCF iterations                  ...     1905.588 sec (=  31.760 min)  10.2 %
MP2 module                      ...     1462.579 sec (=  24.376 min)   7.9 %
CIS module                      ...    15238.006 sec (= 253.967 min)  81.9 %



                             ****ORCA TERMINATED NORMALLY****
TOTAL RUN TIME: 0 days 11 hours 59 minutes 22 seconds 834 msec
