
                                 *****************
                                 * O   R   C   A *
                                 *****************

                                            #,                                       
                                            ###                                      
                                            ####                                     
                                            #####                                    
                                            ######                                   
                                           ########,                                 
                                     ,,################,,,,,                         
                               ,,#################################,,                 
                          ,,##########################################,,             
                       ,#########################################, ''#####,          
                    ,#############################################,,   '####,        
                  ,##################################################,,,,####,       
                ,###########''''           ''''###############################       
              ,#####''   ,,,,##########,,,,          '''####'''          '####       
            ,##' ,,,,###########################,,,                        '##       
           ' ,,###''''                  '''############,,,                           
         ,,##''                                '''############,,,,        ,,,,,,###''
      ,#''                                            '''#######################'''  
     '                                                          ''''####''''         
             ,#######,   #######,   ,#######,      ##                                
            ,#'     '#,  ##    ##  ,#'     '#,    #''#        ######   ,####,        
            ##       ##  ##   ,#'  ##            #'  '#       #        #'  '#        
            ##       ##  #######   ##           ,######,      #####,   #    #        
            '#,     ,#'  ##    ##  '#,     ,#' ,#      #,         ##   #,  ,#        
             '#######'   ##     ##  '#######'  #'      '#     #####' # '####'        



                  #######################################################
                  #                        -***-                        #
                  #          Department of theory and spectroscopy      #
                  #    Directorship and core code : Frank Neese         #
                  #        Max Planck Institute fuer Kohlenforschung    #
                  #                Kaiser Wilhelm Platz 1               #
                  #                 D-45470 Muelheim/Ruhr               #
                  #                      Germany                        #
                  #                                                     #
                  #                  All rights reserved                #
                  #                        -***-                        #
                  #######################################################


                         Program Version 5.0.2 -  RELEASE  -


 With contributions from (in alphabetic order):
   Daniel Aravena         : Magnetic Suceptibility
   Michael Atanasov       : Ab Initio Ligand Field Theory (pilot matlab implementation)
   Alexander A. Auer      : GIAO ZORA, VPT2 properties, NMR spectrum
   Ute Becker             : Parallelization
   Giovanni Bistoni       : ED, misc. LED, open-shell LED, HFLD
   Martin Brehm           : Molecular dynamics
   Dmytro Bykov           : SCF Hessian
   Vijay G. Chilkuri      : MRCI spin determinant printing, contributions to CSF-ICE
   Dipayan Datta          : RHF DLPNO-CCSD density
   Achintya Kumar Dutta   : EOM-CC, STEOM-CC
   Dmitry Ganyushin       : Spin-Orbit,Spin-Spin,Magnetic field MRCI
   Miquel Garcia          : C-PCM and meta-GGA Hessian, CC/C-PCM, Gaussian charge scheme
   Yang Guo               : DLPNO-NEVPT2, F12-NEVPT2, CIM, IAO-localization
   Andreas Hansen         : Spin unrestricted coupled pair/coupled cluster methods
   Benjamin Helmich-Paris : MC-RPA, TRAH-SCF, COSX integrals
   Lee Huntington         : MR-EOM, pCC
   Robert Izsak           : Overlap fitted RIJCOSX, COSX-SCS-MP3, EOM
   Marcus Kettner         : VPT2
   Christian Kollmar      : KDIIS, OOCD, Brueckner-CCSD(T), CCSD density, CASPT2, CASPT2-K
   Simone Kossmann        : Meta GGA functionals, TD-DFT gradient, OOMP2, MP2 Hessian
   Martin Krupicka        : Initial AUTO-CI
   Lucas Lang             : DCDCAS
   Marvin Lechner         : AUTO-CI (C++ implementation), FIC-MRCC
   Dagmar Lenk            : GEPOL surface, SMD
   Dimitrios Liakos       : Extrapolation schemes; Compound Job, initial MDCI parallelization
   Dimitrios Manganas     : Further ROCIS development; embedding schemes
   Dimitrios Pantazis     : SARC Basis sets
   Anastasios Papadopoulos: AUTO-CI, single reference methods and gradients
   Taras Petrenko         : DFT Hessian,TD-DFT gradient, ASA, ECA, R-Raman, ABS, FL, XAS/XES, NRVS
   Peter Pinski           : DLPNO-MP2, DLPNO-MP2 Gradient
   Christoph Reimann      : Effective Core Potentials
   Marius Retegan         : Local ZFS, SOC
   Christoph Riplinger    : Optimizer, TS searches, QM/MM, DLPNO-CCSD(T), (RO)-DLPNO pert. Triples
   Tobias Risthaus        : Range-separated hybrids, TD-DFT gradient, RPA, STAB
   Michael Roemelt        : Original ROCIS implementation
   Masaaki Saitow         : Open-shell DLPNO-CCSD energy and density
   Barbara Sandhoefer     : DKH picture change effects
   Avijit Sen             : IP-ROCIS
   Kantharuban Sivalingam : CASSCF convergence, NEVPT2, FIC-MRCI
   Bernardo de Souza      : ESD, SOC TD-DFT
   Georgi Stoychev        : AutoAux, RI-MP2 NMR, DLPNO-MP2 response
   Willem Van den Heuvel  : Paramagnetic NMR
   Boris Wezisla          : Elementary symmetry handling
   Frank Wennmohs         : Technical directorship


 We gratefully acknowledge several colleagues who have allowed us to
 interface, adapt or use parts of their codes:
   Stefan Grimme, W. Hujo, H. Kruse, P. Pracht,  : VdW corrections, initial TS optimization,
                  C. Bannwarth, S. Ehlert          DFT functionals, gCP, sTDA/sTD-DF
   Ed Valeev, F. Pavosevic, A. Kumar             : LibInt (2-el integral package), F12 methods
   Garnet Chan, S. Sharma, J. Yang, R. Olivares  : DMRG
   Ulf Ekstrom                                   : XCFun DFT Library
   Mihaly Kallay                                 : mrcc  (arbitrary order and MRCC methods)
   Jiri Pittner, Ondrej Demel                    : Mk-CCSD
   Frank Weinhold                                : gennbo (NPA and NBO analysis)
   Christopher J. Cramer and Donald G. Truhlar   : smd solvation model
   Lars Goerigk                                  : TD-DFT with DH, B97 family of functionals
   V. Asgeirsson, H. Jonsson                     : NEB implementation
   FAccTs GmbH                                   : IRC, NEB, NEB-TS, DLPNO-Multilevel, CI-OPT
                                                   MM, QMMM, 2- and 3-layer-ONIOM, Crystal-QMMM,
                                                   LR-CPCM, SF, NACMEs, symmetry and pop. for TD-DFT,
                                                   nearIR, NL-DFT gradient (VV10), updates on ESD,
                                                   ML-optimized integration grids
   S Lehtola, MJT Oliveira, MAL Marques          : LibXC Library
   Liviu Ungur et al                             : ANISO software


 Your calculation uses the libint2 library for the computation of 2-el integrals
 For citations please refer to: http://libint.valeyev.net

 Your ORCA version has been built with support for libXC version: 5.1.0
 For citations please refer to: https://tddft.org/programs/libxc/

 This ORCA versions uses:
   CBLAS   interface :  Fast vector & matrix operations
   LAPACKE interface :  Fast linear algebra routines
   SCALAPACK package :  Parallel linear algebra routines
   Shared memory     :  Shared parallel matrices
   BLAS/LAPACK       :  OpenBLAS 0.3.15  USE64BITINT DYNAMIC_ARCH NO_AFFINITY Haswell SINGLE_THREADED
        Core in use  :  Haswell
   Copyright (c) 2011-2014, The OpenBLAS Project


Your calculation utilizes the atom-pairwise dispersion correction
with the Becke-Johnson damping scheme (D3BJ)
Cite in your paper:
S.Grimme, S.Ehrlich, L.Goerigk, J Comput Chem, (2011), 32, 1456–1465 
S.Grimme, J.Antony, S.Ehrlich and H.Krieg, J.Chem.Phys., 132, (2010), 154104 
   

Your calculation utilizes the SMD solvation module
Please cite in your paper:
A.V. Marenich, C.J. Cramer, D.G. Truhlar J. Phys. Chem. B, 113, (2009), 6378 

================================================================================

----- Orbital basis set information -----
Your calculation utilizes the basis: aug-cc-pVTZ 
    H, B-Ne : Obtained from the ccRepo (grant-hill.group.shef.ac.uk/ccrepo) Feb. 2017
              R. A. Kendall, T. H. Dunning, Jr., R. J. Harrison, J. Chem. Phys. 96, 6796 (1992)
         He : Obtained from the ccRepo (grant-hill.group.shef.ac.uk/ccrepo) Feb. 2017
              D. E. Woon, T. H. Dunning, Jr., J. Chem. Phys. 100, 2975 (1994)
  Li-Be, Na : Obtained from the ccRepo (grant-hill.group.shef.ac.uk/ccrepo) Feb. 2017
              B. P. Prascher, D. E. Woon, K. A. Peterson, T. H. Dunning, Jr., A. K. Wilson, Theor. Chem. Acc. 128, 69 (2011)
         Mg : Obtained from the Peterson Research Group Website (tyr0.chem.wsu.edu/~kipeters) Feb. 2017
              B. P. Prascher, D. E. Woon, K. A. Peterson, T. H. Dunning, Jr., A. K. Wilson, Theor. Chem. Acc. 128, 69 (2011)
      Al-Ar : Obtained from the ccRepo (grant-hill.group.shef.ac.uk/ccrepo) Feb. 2017
              D. E. Woon, T. H. Dunning, Jr., J. Chem. Phys. 98, 1358 (1993)
      Sc-Zn : Obtained from the ccRepo (grant-hill.group.shef.ac.uk/ccrepo) Feb. 2017
              N. B. Balabanov, K. A. Peterson, J. Chem. Phys. 123, 064107 (2005)
              N. B. Balabanov, K. A. Peterson, J. Chem. Phys. 125, 074110 (2006)
      Ga-Kr : Obtained from the ccRepo (grant-hill.group.shef.ac.uk/ccrepo) Feb. 2017
              A. K. Wilson, D. E. Woon, K. A. Peterson, T. H. Dunning, Jr., J. Chem. Phys. 110, 7667 (1999)
     Ag, Au : Obtained from the Peterson Research Group Website (tyr0.chem.wsu.edu/~kipeters) Feb. 2017
              K. A. Peterson, C. Puzzarini, Theor. Chem. Acc. 114, 283 (2005)

The basis set includes element-specific modifications.

Your calculation utilizes the basis: cc-pVTZ 
       H, B-Ne : Obtained from the ccRepo (grant-hill.group.shef.ac.uk/ccrepo) Feb. 2017
                 T. H. Dunning, Jr., J. Chem. Phys. 90, 1007 (1989)
            He : Obtained from the ccRepo (grant-hill.group.shef.ac.uk/ccrepo) Feb. 2017
                 D. E. Woon, T. H. Dunning, Jr., J. Chem. Phys. 100, 2975 (1994)
  Li-Be, Na-Mg : Obtained from the ccRepo (grant-hill.group.shef.ac.uk/ccrepo) Feb. 2017
                 B. P. Prascher, D. E. Woon, K. A. Peterson, T. H. Dunning, Jr., A. K. Wilson, Theor. Chem. Acc. 128, 69 (2011)
         Al-Ar : Obtained from the ccRepo (grant-hill.group.shef.ac.uk/ccrepo) Feb. 2017
                 D. E. Woon, T. H. Dunning, Jr., J. Chem. Phys. 98, 1358 (1993)
            Ca : Obtained from the Peterson Research Group Website (tyr0.chem.wsu.edu/~kipeters) Feb. 2017
                 J. Koput, K. A. Peterson, J. Phys. Chem. 106, 9595 (2002)
         Sc-Zn : Obtained from the ccRepo (grant-hill.group.shef.ac.uk/ccrepo) Feb. 2017
                 N. B. Balabanov, K. A. Peterson, J. Chem. Phys. 123, 064107 (2005)
                 N. B. Balabanov, K. A. Peterson, J. Chem. Phys. 125, 074110 (2006)
         Ga-Kr : Obtained from the ccRepo (grant-hill.group.shef.ac.uk/ccrepo) Feb. 2017
                 A. K. Wilson, D. E. Woon, K. A. Peterson, T. H. Dunning, Jr., J. Chem. Phys. 110, 7667 (1999)
             Y : Obtained from the ccRepo (grant-hill.group.shef.ac.uk/ccrepo) Feb. 2017
                 K. A. Peterson, D. Figgen, M. Dolg, H. Stoll, J. Chem. Phys. 126, 124101 (2007)
        Ag, Au : Obtained from the Peterson Research Group Website (tyr0.chem.wsu.edu/~kipeters) Feb. 2017
                 K. A. Peterson, C. Puzzarini, Theor. Chem. Acc. 114, 283 (2005)

----- AuxJ basis set information -----
Your calculation utilizes the auxiliary basis: aug-cc-pVTZ/JK 
  H, B-F, Al-Cl, Ga-Br : Obtained from the TURBOMOLE 7.0 basis set library

The basis set includes element-specific modifications.

Your calculation utilizes the auxiliary basis: cc-pVTZ/JK 
  H, B-F, Al-Cl, Ga-Br : Obtained from the TURBOMOLE 7.0 basis set library

----- AuxC basis set information -----
Your calculation utilizes the auxiliary basis: aug-cc-pVTZ/C 
  H-He, B-F, Al-Ar, Ga-Kr : Obtained from the EMSL Basis Set Exchange (bse.pnl.gov) Feb. 2017
                            F. Weigend, A. Kohn, C. Hattig, J. Chem. Phys. 116, 3175 (2002)
                   Be, Mg : Obtained from the TURBOMOLE 7.0 basis set library
                            C. Haettig, Phys. Chem. Chem. Phys. 7, 59 (2005)
                       Ne : Obtained from the EMSL Basis Set Exchange (bse.pnl.gov) Feb. 2017
                            C. Haettig, Phys. Chem. Chem. Phys. 7, 59 (2005)
                            F. Weigend, A. Kohn, C. Hattig, J. Chem. Phys. 116, 3175 (2002)
                    Sc-Zn : Obtained from the EMSL Basis Set Exchange (bse.pnl.gov) Feb. 2017
                            J. G. Hill, J. A. Platts, J. Chem. Phys. 128, 044104 (2008)

The basis set includes element-specific modifications.

Your calculation utilizes the auxiliary basis: cc-pVTZ/C 
  Obtained from the EMSL Basis Set Exchange (bse.pnl.gov) Feb. 2017
  H-He, B-F, Al-Ar, Ga-Kr : F. Weigend, A. Kohn, C. Hattig, J. Chem. Phys. 116, 3175 (2002)
             Li-Be, Na-Mg : C. Haettig, Phys. Chem. Chem. Phys. 7, 59 (2005)
                       Ne : C. Haettig, Phys. Chem. Chem. Phys. 7, 59 (2005)
                            F. Weigend, A. Kohn, C. Hattig, J. Chem. Phys. 116, 3175 (2002)
                    Sc-Zn : J. G. Hill, J. A. Platts, J. Chem. Phys. 128, 044104 (2008)

================================================================================
                                        WARNINGS
                       Please study these warnings very carefully!
================================================================================


WARNING: Geometry Optimization
  ===> : Switching off AutoStart
         For restart on a previous wavefunction, please use MOREAD

INFO   : the flag for use of the SHARK integral package has been found!



***************************************
The coordinates will be read from file: 
***************************************


Your calculation utilizes the atom-pairwise dispersion correction
with the Becke-Johnson damping scheme (D3BJ)
Cite in your paper:
S.Grimme, S.Ehrlich, L.Goerigk, J Comput Chem, (2011), 32, 1456–1465 
S.Grimme, J.Antony, S.Ehrlich and H.Krieg, J.Chem.Phys., 132, (2010), 154104 
   

Your calculation utilizes the SMD solvation module
Please cite in your paper:
A.V. Marenich, C.J. Cramer, D.G. Truhlar J. Phys. Chem. B, 113, (2009), 6378 

================================================================================

----- Orbital basis set information -----
Your calculation utilizes the basis: aug-cc-pVTZ 
    H, B-Ne : Obtained from the ccRepo (grant-hill.group.shef.ac.uk/ccrepo) Feb. 2017
              R. A. Kendall, T. H. Dunning, Jr., R. J. Harrison, J. Chem. Phys. 96, 6796 (1992)
         He : Obtained from the ccRepo (grant-hill.group.shef.ac.uk/ccrepo) Feb. 2017
              D. E. Woon, T. H. Dunning, Jr., J. Chem. Phys. 100, 2975 (1994)
  Li-Be, Na : Obtained from the ccRepo (grant-hill.group.shef.ac.uk/ccrepo) Feb. 2017
              B. P. Prascher, D. E. Woon, K. A. Peterson, T. H. Dunning, Jr., A. K. Wilson, Theor. Chem. Acc. 128, 69 (2011)
         Mg : Obtained from the Peterson Research Group Website (tyr0.chem.wsu.edu/~kipeters) Feb. 2017
              B. P. Prascher, D. E. Woon, K. A. Peterson, T. H. Dunning, Jr., A. K. Wilson, Theor. Chem. Acc. 128, 69 (2011)
      Al-Ar : Obtained from the ccRepo (grant-hill.group.shef.ac.uk/ccrepo) Feb. 2017
              D. E. Woon, T. H. Dunning, Jr., J. Chem. Phys. 98, 1358 (1993)
      Sc-Zn : Obtained from the ccRepo (grant-hill.group.shef.ac.uk/ccrepo) Feb. 2017
              N. B. Balabanov, K. A. Peterson, J. Chem. Phys. 123, 064107 (2005)
              N. B. Balabanov, K. A. Peterson, J. Chem. Phys. 125, 074110 (2006)
      Ga-Kr : Obtained from the ccRepo (grant-hill.group.shef.ac.uk/ccrepo) Feb. 2017
              A. K. Wilson, D. E. Woon, K. A. Peterson, T. H. Dunning, Jr., J. Chem. Phys. 110, 7667 (1999)
     Ag, Au : Obtained from the Peterson Research Group Website (tyr0.chem.wsu.edu/~kipeters) Feb. 2017
              K. A. Peterson, C. Puzzarini, Theor. Chem. Acc. 114, 283 (2005)

The basis set includes element-specific modifications.

Your calculation utilizes the basis: cc-pVTZ 
       H, B-Ne : Obtained from the ccRepo (grant-hill.group.shef.ac.uk/ccrepo) Feb. 2017
                 T. H. Dunning, Jr., J. Chem. Phys. 90, 1007 (1989)
            He : Obtained from the ccRepo (grant-hill.group.shef.ac.uk/ccrepo) Feb. 2017
                 D. E. Woon, T. H. Dunning, Jr., J. Chem. Phys. 100, 2975 (1994)
  Li-Be, Na-Mg : Obtained from the ccRepo (grant-hill.group.shef.ac.uk/ccrepo) Feb. 2017
                 B. P. Prascher, D. E. Woon, K. A. Peterson, T. H. Dunning, Jr., A. K. Wilson, Theor. Chem. Acc. 128, 69 (2011)
         Al-Ar : Obtained from the ccRepo (grant-hill.group.shef.ac.uk/ccrepo) Feb. 2017
                 D. E. Woon, T. H. Dunning, Jr., J. Chem. Phys. 98, 1358 (1993)
            Ca : Obtained from the Peterson Research Group Website (tyr0.chem.wsu.edu/~kipeters) Feb. 2017
                 J. Koput, K. A. Peterson, J. Phys. Chem. 106, 9595 (2002)
         Sc-Zn : Obtained from the ccRepo (grant-hill.group.shef.ac.uk/ccrepo) Feb. 2017
                 N. B. Balabanov, K. A. Peterson, J. Chem. Phys. 123, 064107 (2005)
                 N. B. Balabanov, K. A. Peterson, J. Chem. Phys. 125, 074110 (2006)
         Ga-Kr : Obtained from the ccRepo (grant-hill.group.shef.ac.uk/ccrepo) Feb. 2017
                 A. K. Wilson, D. E. Woon, K. A. Peterson, T. H. Dunning, Jr., J. Chem. Phys. 110, 7667 (1999)
             Y : Obtained from the ccRepo (grant-hill.group.shef.ac.uk/ccrepo) Feb. 2017
                 K. A. Peterson, D. Figgen, M. Dolg, H. Stoll, J. Chem. Phys. 126, 124101 (2007)
        Ag, Au : Obtained from the Peterson Research Group Website (tyr0.chem.wsu.edu/~kipeters) Feb. 2017
                 K. A. Peterson, C. Puzzarini, Theor. Chem. Acc. 114, 283 (2005)

----- AuxJ basis set information -----
Your calculation utilizes the auxiliary basis: aug-cc-pVTZ/JK 
  H, B-F, Al-Cl, Ga-Br : Obtained from the TURBOMOLE 7.0 basis set library

The basis set includes element-specific modifications.

Your calculation utilizes the auxiliary basis: cc-pVTZ/JK 
  H, B-F, Al-Cl, Ga-Br : Obtained from the TURBOMOLE 7.0 basis set library

----- AuxC basis set information -----
Your calculation utilizes the auxiliary basis: aug-cc-pVTZ/C 
  H-He, B-F, Al-Ar, Ga-Kr : Obtained from the EMSL Basis Set Exchange (bse.pnl.gov) Feb. 2017
                            F. Weigend, A. Kohn, C. Hattig, J. Chem. Phys. 116, 3175 (2002)
                   Be, Mg : Obtained from the TURBOMOLE 7.0 basis set library
                            C. Haettig, Phys. Chem. Chem. Phys. 7, 59 (2005)
                       Ne : Obtained from the EMSL Basis Set Exchange (bse.pnl.gov) Feb. 2017
                            C. Haettig, Phys. Chem. Chem. Phys. 7, 59 (2005)
                            F. Weigend, A. Kohn, C. Hattig, J. Chem. Phys. 116, 3175 (2002)
                    Sc-Zn : Obtained from the EMSL Basis Set Exchange (bse.pnl.gov) Feb. 2017
                            J. G. Hill, J. A. Platts, J. Chem. Phys. 128, 044104 (2008)

The basis set includes element-specific modifications.

Your calculation utilizes the auxiliary basis: cc-pVTZ/C 
  Obtained from the EMSL Basis Set Exchange (bse.pnl.gov) Feb. 2017
  H-He, B-F, Al-Ar, Ga-Kr : F. Weigend, A. Kohn, C. Hattig, J. Chem. Phys. 116, 3175 (2002)
             Li-Be, Na-Mg : C. Haettig, Phys. Chem. Chem. Phys. 7, 59 (2005)
                       Ne : C. Haettig, Phys. Chem. Chem. Phys. 7, 59 (2005)
                            F. Weigend, A. Kohn, C. Hattig, J. Chem. Phys. 116, 3175 (2002)
                    Sc-Zn : J. G. Hill, J. A. Platts, J. Chem. Phys. 128, 044104 (2008)

================================================================================
                                        WARNINGS
                       Please study these warnings very carefully!
================================================================================

INFO   : Checking CIS options ...
  ===> : (D) CORRECTION FOUND - SETTING MODE=3
  ===> : JK MODE FOUND - ACTIVATING RI-MP2 CODE
  ===> : MP2 AND CIS FOUND - CHECKING
WARNING: CIS(D) and MP2 runs must have the same orbital window
  ===> : adjusting orbital windows

WARNING: No MP2 level density has been requested!
         To caclulate MP2 level properties use
         %mp2 Density relaxed end
         or
         %mp2 Density unrelaxed end
         Otherwise for double-hybrid DFT only the energy is correct!

WARNING: The frozen-core approximation is turned on by default for 
         the MP2 part of double-hybrid DFT.

INFO   : the flag for use of the SHARK integral package has been found!

================================================================================
                                       INPUT FILE
================================================================================
NAME = optpbed3-b2plyp-test-236.inp
|  1> ! pbe0 d3bj aug-cc-PVTZ RIJCOSX Opt
|  2> %maxcore 4000
|  3> %basis
|  4>  AuxJ "aug-cc-PVTZ/JK"
|  5>  AuxC "aug-cc-PVTZ/C"
|  6>  newGTO H "cc-PVTZ" end
|  7>  newAuxJGTO H "cc-PVTZ/JK" end
|  8>  newAuxCGTO H "cc-PVTZ/C" end
|  9> end
| 10> %cpcm
| 11>  SMD true
| 12>  SMDsolvent "methanol"
| 13> end
| 14> %pal nprocs 4 end
| 15> * xyz 0 1
| 16> C         -6.33430       -2.31960       -0.32920
| 17> C         -6.03200       -1.01010       -1.06020
| 18> N         -5.29980       -0.07310       -0.23670
| 19> C         -6.10600        0.85020        0.53120
| 20> C         -6.37690        2.15530       -0.21980
| 21> C         -3.93740       -0.05980       -0.18970
| 22> C         -3.22940        0.96270        0.47230
| 23> C         -1.85850        0.97590        0.51940
| 24> C         -1.09010       -0.02370       -0.09490
| 25> C          0.34030       -0.05120       -0.08380
| 26> C          1.16960        0.83160        0.52220
| 27> C          2.57900        0.70140        0.45190
| 28> N          3.22840       -0.21540       -0.17700
| 29> C          4.56480       -0.07550       -0.07000
| 30> N          5.44640       -0.86850       -0.61850
| 31> C          6.74440       -0.57410       -0.40870
| 32> C          7.73780       -1.39420       -0.98130
| 33> C          9.05970       -1.11040       -0.78000
| 34> C          9.44860       -0.00540       -0.00360
| 35> C          8.51250        0.81180        0.56730
| 36> C          7.14360        0.54830        0.37790
| 37> N          6.22550        1.36580        0.94360
| 38> C          4.98400        1.06260        0.72410
| 39> S          3.59770        1.91730        1.30540
| 40> C         -1.79430       -1.04120       -0.75590
| 41> C         -3.16520       -1.06620       -0.80130
| 42> H         -5.41380       -2.80940       -0.02320
| 43> H         -6.88960       -2.99010       -0.97970
| 44> H         -6.92940       -2.12890        0.56090
| 45> H         -5.47110       -1.20990       -1.97600
| 46> H         -6.97240       -0.53570       -1.35420
| 47> H         -7.05700        0.35930        0.75560
| 48> H         -5.61710        1.05830        1.48560
| 49> H         -6.90510        1.95590       -1.14930
| 50> H         -6.98690        2.81650        0.38990
| 51> H         -5.44510        2.65970       -0.46080
| 52> H         -3.75910        1.77100        0.94910
| 53> H         -1.36720        1.78600        1.03580
| 54> H          0.80840       -0.86720       -0.61920
| 55> H          0.80140        1.67480        1.08650
| 56> H          7.41660       -2.23690       -1.57320
| 57> H          9.82080       -1.73820       -1.21970
| 58> H         10.50040        0.19460        0.13910
| 59> H          8.78720        1.66580        1.16670
| 60> H         -1.23770       -1.83310       -1.23640
| 61> H         -3.64160       -1.88730       -1.31090
| 62> *
| 63> 
| 64> 
| 65> $new_job
| 66> ! b2plyp aug-cc-PVTZ RIJCOSX SP
| 67> %maxcore 4000
| 68> %basis
| 69>  AuxJ "aug-cc-PVTZ/JK"
| 70>  AuxC "aug-cc-PVTZ/C"
| 71>  newGTO H "cc-PVTZ" end
| 72>  newAuxJGTO H "cc-PVTZ/JK" end
| 73>  newAuxCGTO H "cc-PVTZ/C" end
| 74> end
| 75> %cpcm
| 76>  SMD true
| 77>  SMDsolvent "methanol"
| 78> end
| 79> %pal nprocs 4 end
| 80> %tddft
| 81>  nroots 10
| 82>  maxdim 7
| 83> end
| 84> * xyzfile 0 1
| 85> 
| 86>                          ****END OF INPUT****
================================================================================


                 $$$$$$$$$$$$$$$$$$$$$$$$$$$$$$$$$$$$$$$$$$$$$$ 
                 $ THERE ARE  2 JOBS TO BE PROCESSED THIS RUN $
                 $$$$$$$$$$$$$$$$$$$$$$$$$$$$$$$$$$$$$$$$$$$$$$ 




                 $$$$$$$$$$$$$$$$  JOB NUMBER  1 $$$$$$$$$$$$$$


                       *****************************
                       * Geometry Optimization Run *
                       *****************************

Geometry optimization settings:
Update method            Update   .... BFGS
Choice of coordinates    CoordSys .... Z-matrix Internals
Initial Hessian          InHess   .... Almoef's Model

Convergence Tolerances:
Energy Change            TolE     ....  5.0000e-06 Eh
Max. Gradient            TolMAXG  ....  3.0000e-04 Eh/bohr
RMS Gradient             TolRMSG  ....  1.0000e-04 Eh/bohr
Max. Displacement        TolMAXD  ....  4.0000e-03 bohr
RMS Displacement         TolRMSD  ....  2.0000e-03 bohr
Strict Convergence                ....  False
------------------------------------------------------------------------------
                        ORCA OPTIMIZATION COORDINATE SETUP
------------------------------------------------------------------------------

The optimization will be done in new redundant internal coordinates
Making redundant internal coordinates   ...  (new redundants) done
Evaluating the initial hessian          ...  (Almloef) done
Evaluating the coordinates              ...  done
Calculating the B-matrix                .... done
Calculating the G-matrix                .... done
Diagonalizing the G-matrix              .... done
Small eigenvalue found = 9.755e-04
Small eigenvalue found = 3.742e-03
Small eigenvalue found = 6.968e-03
Small eigenvalue found = 1.083e-02
Small eigenvalue found = 1.199e-02
Small eigenvalue found = 2.471e-02
The first mode is                       ....  113
The number of degrees of freedom        ....  132

    -----------------------------------------------------------------
                    Redundant Internal Coordinates


    -----------------------------------------------------------------
         Definition                    Initial Value    Approx d2E/dq
    -----------------------------------------------------------------
      1. B(C   1,C   0)                  1.5299         0.373738   
      2. B(N   2,C   1)                  1.4465         0.454780   
      3. B(C   3,N   2)                  1.4464         0.454853   
      4. B(C   4,C   3)                  1.5299         0.373676   
      5. B(C   5,N   2)                  1.3633         0.617324   
      6. B(C   6,C   5)                  1.4089         0.582876   
      7. B(C   7,C   6)                  1.3718         0.668066   
      8. B(C   8,C   7)                  1.4025         0.596757   
      9. B(C   9,C   8)                  1.4307         0.538013   
     10. B(C  10,C   9)                  1.3544         0.712178   
     11. B(C  11,C  10)                  1.4171         0.565495   
     12. B(N  12,C  11)                  1.2875         0.815351   
     13. B(C  13,N  12)                  1.3480         0.653061   
     14. B(N  14,C  13)                  1.3065         0.760516   
     15. B(C  15,N  14)                  1.3474         0.654392   
     16. B(C  16,C  15)                  1.4097         0.581159   
     17. B(C  17,C  16)                  1.3669         0.680070   
     18. B(C  18,C  17)                  1.4054         0.590495   
     19. B(C  19,C  18)                  1.3675         0.678662   
     20. B(C  20,C  19)                  1.4068         0.587321   
     21. B(C  20,C  15)                  1.4275         0.544301   
     22. B(N  21,C  20)                  1.3532         0.640531   
     23. B(C  22,N  21)                  1.2967         0.788367   
     24. B(C  22,C  13)                  1.4497         0.501776   
     25. B(S  23,C  22)                  1.7292         0.484485   
     26. B(S  23,C  11)                  1.8013         0.371816   
     27. B(C  24,C   8)                  1.4029         0.595881   
     28. B(C  25,C  24)                  1.3719         0.667804   
     29. B(C  25,C   5)                  1.4083         0.584266   
     30. B(H  26,C   0)                  1.0867         0.364527   
     31. B(H  27,C   0)                  1.0868         0.364392   
     32. B(H  28,C   0)                  1.0876         0.363341   
     33. B(H  29,C   1)                  1.0923         0.357011   
     34. B(H  30,C   1)                  1.0935         0.355439   
     35. B(H  31,C   3)                  1.0935         0.355501   
     36. B(H  32,C   3)                  1.0923         0.357017   
     37. B(H  33,C   4)                  1.0875         0.363380   
     38. B(H  34,C   4)                  1.0867         0.364429   
     39. B(H  35,C   4)                  1.0866         0.364594   
     40. B(H  36,C   6)                  1.0776         0.376852   
     41. B(H  37,C   7)                  1.0790         0.374908   
     42. B(H  38,C   9)                  1.0824         0.370272   
     43. B(H  39,C  10)                  1.0793         0.374471   
     44. B(H  40,C  16)                  1.0787         0.375322   
     45. B(H  41,C  17)                  1.0802         0.373357   
     46. B(H  42,C  18)                  1.0801         0.373418   
     47. B(H  43,C  19)                  1.0789         0.375067   
     48. B(H  44,C  24)                  1.0806         0.372693   
     49. B(H  45,C  25)                  1.0774         0.377119   
     50. A(H  26,C   0,H  28)          108.1846         0.291809   
     51. A(H  26,C   0,H  27)          108.8620         0.291942   
     52. A(C   1,C   0,H  27)          110.0630         0.324974   
     53. A(H  27,C   0,H  28)          108.5707         0.291792   
     54. A(C   1,C   0,H  26)          110.6693         0.324994   
     55. A(C   1,C   0,H  28)          110.4321         0.324820   
     56. A(C   0,C   1,H  30)          109.2604         0.323649   
     57. A(C   0,C   1,N   2)          112.4867         0.373509   
     58. A(C   0,C   1,H  29)          110.2118         0.323884   
     59. A(H  29,C   1,H  30)          107.1889         0.289853   
     60. A(N   2,C   1,H  29)          109.6254         0.332532   
     61. A(N   2,C   1,H  30)          107.8996         0.332289   
     62. A(C   1,N   2,C   3)          115.6972         0.383996   
     63. A(C   1,N   2,C   5)          122.1288         0.405109   
     64. A(C   3,N   2,C   5)          122.1739         0.405121   
     65. A(N   2,C   3,H  31)          107.8861         0.332307   
     66. A(C   4,C   3,H  31)          109.2503         0.323650   
     67. A(N   2,C   3,H  32)          109.6333         0.332542   
     68. A(H  31,C   3,H  32)          107.1858         0.289862   
     69. A(N   2,C   3,C   4)          112.4962         0.373509   
     70. A(C   4,C   3,H  32)          110.2199         0.323876   
     71. A(C   3,C   4,H  34)          110.0601         0.324971   
     72. A(H  33,C   4,H  35)          108.1820         0.291823   
     73. A(C   3,C   4,H  33)          110.4345         0.324817   
     74. A(C   3,C   4,H  35)          110.6714         0.324995   
     75. A(H  33,C   4,H  34)          108.5687         0.291802   
     76. A(H  34,C   4,H  35)          108.8650         0.291955   
     77. A(C   6,C   5,C  25)          116.5615         0.424736   
     78. A(N   2,C   5,C   6)          121.7002         0.426147   
     79. A(N   2,C   5,C  25)          121.7383         0.426329   
     80. A(C   5,C   6,C   7)          121.6894         0.435077   
     81. A(C   7,C   6,H  36)          117.9579         0.360184   
     82. A(C   5,C   6,H  36)          120.3478         0.351939   
     83. A(C   6,C   7,C   8)          121.7109         0.436925   
     84. A(C   8,C   7,H  37)          119.6864         0.353034   
     85. A(C   6,C   7,H  37)          118.5994         0.359866   
     86. A(C   7,C   8,C  24)          116.6340         0.428036   
     87. A(C   9,C   8,C  24)          119.4437         0.420177   
     88. A(C   7,C   8,C   9)          123.9219         0.420287   
     89. A(C  10,C   9,H  38)          116.6092         0.363042   
     90. A(C   8,C   9,C  10)          127.0942         0.433814   
     91. A(C   8,C   9,H  38)          116.2966         0.346188   
     92. A(C   9,C  10,C  11)          121.7954         0.437724   
     93. A(C  11,C  10,H  39)          115.9111         0.349769   
     94. A(C   9,C  10,H  39)          122.2935         0.363742   
     95. A(N  12,C  11,S  23)          115.2678         0.436090   
     96. A(C  10,C  11,S  23)          118.4849         0.411153   
     97. A(C  10,C  11,N  12)          126.2469         0.445609   
     98. A(C  11,N  12,C  13)          112.7912         0.454389   
     99. A(N  12,C  13,N  14)          124.9372         0.448676   
    100. A(N  14,C  13,C  22)          120.7542         0.430663   
    101. A(N  12,C  13,C  22)          114.3084         0.419084   
    102. A(C  13,N  14,C  15)          116.8756         0.448842   
    103. A(C  16,C  15,C  20)          118.9571         0.419174   
    104. A(N  14,C  15,C  20)          121.8013         0.425373   
    105. A(N  14,C  15,C  16)          119.2416         0.430398   
    106. A(C  17,C  16,H  40)          122.0694         0.361028   
    107. A(C  15,C  16,H  40)          117.8728         0.351521   
    108. A(C  15,C  16,C  17)          120.0578         0.436243   
    109. A(C  18,C  17,H  41)          119.1364         0.352157   
    110. A(C  16,C  17,C  18)          120.8112         0.437497   
    111. A(C  16,C  17,H  41)          120.0524         0.360705   
    112. A(C  17,C  18,C  19)          120.7356         0.437334   
    113. A(C  19,C  18,H  42)          120.0520         0.360588   
    114. A(C  17,C  18,H  42)          119.2124         0.352167   
    115. A(C  18,C  19,C  20)          119.8642         0.436909   
    116. A(C  20,C  19,H  43)          118.0856         0.352108   
    117. A(C  18,C  19,H  43)          122.0501         0.360859   
    118. A(C  19,C  20,N  21)          119.3883         0.429560   
    119. A(C  15,C  20,N  21)          121.0377         0.423747   
    120. A(C  15,C  20,C  19)          119.5739         0.419963   
    121. A(C  20,N  21,C  22)          115.9477         0.450030   
    122. A(C  13,C  22,N  21)          123.5832         0.433455   
    123. A(N  21,C  22,S  23)          126.5185         0.454723   
    124. A(C  13,C  22,S  23)          109.8982         0.421912   
    125. A(C  11,S  23,C  22)           87.7342         0.421913   
    126. A(C  25,C  24,H  44)          119.1191         0.359479   
    127. A(C   8,C  24,H  44)          118.8456         0.352592   
    128. A(C   8,C  24,C  25)          122.0333         0.436779   
    129. A(C  24,C  25,H  45)          118.1244         0.360203   
    130. A(C   5,C  25,H  45)          120.5028         0.352123   
    131. A(C   5,C  25,C  24)          121.3692         0.435233   
    132. D(H  30,C   1,C   0,H  27)     59.8158         0.011153   
    133. D(H  30,C   1,C   0,H  26)   -179.8108         0.011153   
    134. D(H  29,C   1,C   0,H  28)   -177.5741         0.011153   
    135. D(N   2,C   1,C   0,H  26)    -60.0089         0.011153   
    136. D(H  29,C   1,C   0,H  26)     62.6582         0.011153   
    137. D(H  30,C   1,C   0,H  28)    -60.0431         0.011153   
    138. D(N   2,C   1,C   0,H  27)    179.6177         0.011153   
    139. D(H  29,C   1,C   0,H  27)    -57.7151         0.011153   
    140. D(N   2,C   1,C   0,H  28)     59.7588         0.011153   
    141. D(C   3,N   2,C   1,H  29)    145.8520         0.017649   
    142. D(C   5,N   2,C   1,C   0)     88.9705         0.017649   
    143. D(C   5,N   2,C   1,H  30)   -150.4415         0.017649   
    144. D(C   3,N   2,C   1,C   0)    -91.1515         0.017649   
    145. D(C   5,N   2,C   1,H  29)    -34.0259         0.017649   
    146. D(C   3,N   2,C   1,H  30)     29.4365         0.017649   
    147. D(H  32,C   3,N   2,C   1)    145.7703         0.017655   
    148. D(H  32,C   3,N   2,C   5)    -34.3518         0.017655   
    149. D(H  31,C   3,N   2,C   5)   -150.7604         0.017655   
    150. D(C   4,C   3,N   2,C   1)    -91.2105         0.017655   
    151. D(H  31,C   3,N   2,C   1)     29.3617         0.017655   
    152. D(C   4,C   3,N   2,C   5)     88.6674         0.017655   
    153. D(H  34,C   4,C   3,H  32)    -57.5139         0.011149   
    154. D(H  35,C   4,C   3,H  31)   -179.6113         0.011149   
    155. D(H  35,C   4,C   3,H  32)     62.8627         0.011149   
    156. D(H  34,C   4,C   3,H  31)     60.0121         0.011149   
    157. D(H  35,C   4,C   3,N   2)    -59.8272         0.011149   
    158. D(H  34,C   4,C   3,N   2)    179.7962         0.011149   
    159. D(H  33,C   4,C   3,H  32)   -177.3701         0.011149   
    160. D(H  33,C   4,C   3,H  31)    -59.8441         0.011149   
    161. D(H  33,C   4,C   3,N   2)     59.9400         0.011149   
    162. D(C   6,C   5,N   2,C   1)    171.4740         0.030838   
    163. D(C  25,C   5,N   2,C   3)    171.6728         0.030838   
    164. D(C  25,C   5,N   2,C   1)     -8.4571         0.030838   
    165. D(C   6,C   5,N   2,C   3)     -8.3960         0.030838   
    166. D(H  36,C   6,C   5,C  25)    179.1200         0.023353   
    167. D(H  36,C   6,C   5,N   2)     -0.8146         0.023353   
    168. D(C   7,C   6,C   5,C  25)     -0.0622         0.023353   
    169. D(C   7,C   6,C   5,N   2)   -179.9967         0.023353   
    170. D(H  37,C   7,C   6,H  36)      0.4860         0.031200   
    171. D(H  37,C   7,C   6,C   5)    179.6869         0.031200   
    172. D(C   8,C   7,C   6,H  36)   -178.8563         0.031200   
    173. D(C   8,C   7,C   6,C   5)      0.3447         0.031200   
    174. D(C  24,C   8,C   7,H  37)   -179.5766         0.024536   
    175. D(C   9,C   8,C   7,H  37)      0.1850         0.024536   
    176. D(C   9,C   8,C   7,C   6)    179.5203         0.024536   
    177. D(C  24,C   8,C   7,C   6)     -0.2413         0.024536   
    178. D(H  38,C   9,C   8,C  24)      1.2924         0.019774   
    179. D(H  38,C   9,C   8,C   7)   -178.4628         0.019774   
    180. D(C  10,C   9,C   8,C  24)   -178.7405         0.019774   
    181. D(C  10,C   9,C   8,C   7)      1.5042         0.019774   
    182. D(H  39,C  10,C   9,H  38)   -179.5437         0.035828   
    183. D(H  39,C  10,C   9,C   8)      0.4894         0.035828   
    184. D(C  11,C  10,C   9,H  38)      0.4598         0.035828   
    185. D(C  11,C  10,C   9,C   8)   -179.5072         0.035828   
    186. D(S  23,C  11,C  10,H  39)      0.6146         0.021922   
    187. D(S  23,C  11,C  10,C   9)   -179.3886         0.021922   
    188. D(N  12,C  11,C  10,H  39)   -179.1563         0.021922   
    189. D(N  12,C  11,C  10,C   9)      0.8404         0.021922   
    190. D(C  13,N  12,C  11,S  23)     -0.1440         0.051473   
    191. D(C  13,N  12,C  11,C  10)    179.6334         0.051473   
    192. D(C  22,C  13,N  12,C  11)      0.1419         0.031544   
    193. D(N  14,C  13,N  12,C  11)   -179.6928         0.031544   
    194. D(C  15,N  14,C  13,N  12)    179.8055         0.044062   
    195. D(C  15,N  14,C  13,C  22)     -0.0192         0.044062   
    196. D(C  20,C  15,N  14,C  13)      0.1554         0.031683   
    197. D(C  16,C  15,N  14,C  13)   -179.7834         0.031683   
    198. D(H  40,C  16,C  15,C  20)   -179.9368         0.023209   
    199. D(H  40,C  16,C  15,N  14)      0.0037         0.023209   
    200. D(C  17,C  16,C  15,C  20)      0.0148         0.023209   
    201. D(C  17,C  16,C  15,N  14)    179.9553         0.023209   
    202. D(H  41,C  17,C  16,H  40)      0.0181         0.032420   
    203. D(H  41,C  17,C  16,C  15)   -179.9314         0.032420   
    204. D(C  18,C  17,C  16,H  40)   -179.9877         0.032420   
    205. D(C  18,C  17,C  16,C  15)      0.0628         0.032420   
    206. D(H  42,C  18,C  17,H  41)     -0.0382         0.023998   
    207. D(H  42,C  18,C  17,C  16)    179.9675         0.023998   
    208. D(C  19,C  18,C  17,H  41)    179.9389         0.023998   
    209. D(C  19,C  18,C  17,C  16)     -0.0553         0.023998   
    210. D(H  43,C  19,C  18,H  42)      0.0063         0.032276   
    211. D(H  43,C  19,C  18,C  17)   -179.9707         0.032276   
    212. D(C  20,C  19,C  18,H  42)    179.9449         0.032276   
    213. D(C  20,C  19,C  18,C  17)     -0.0320         0.032276   
    214. D(N  21,C  20,C  19,H  43)      0.1585         0.023727   
    215. D(N  21,C  20,C  19,C  18)   -179.7826         0.023727   
    216. D(C  15,C  20,C  19,H  43)   -179.9503         0.023727   
    217. D(C  15,C  20,C  19,C  18)      0.1086         0.023727   
    218. D(N  21,C  20,C  15,C  16)    179.7893         0.020253   
    219. D(N  21,C  20,C  15,N  14)     -0.1496         0.020253   
    220. D(C  19,C  20,C  15,C  16)     -0.1001         0.020253   
    221. D(C  19,C  20,C  15,N  14)    179.9610         0.020253   
    222. D(C  22,N  21,C  20,C  19)    179.8799         0.030250   
    223. D(C  22,N  21,C  20,C  15)     -0.0097         0.030250   
    224. D(S  23,C  22,N  21,C  20)   -179.7455         0.047737   
    225. D(C  13,C  22,N  21,C  20)      0.1496         0.047737   
    226. D(S  23,C  22,C  13,N  14)    179.7661         0.017151   
    227. D(S  23,C  22,C  13,N  12)     -0.0762         0.017151   
    228. D(N  21,C  22,C  13,N  14)     -0.1443         0.017151   
    229. D(N  21,C  22,C  13,N  12)   -179.9866         0.017151   
    230. D(C  11,S  23,C  22,N  21)    179.9055         0.004968   
    231. D(C  11,S  23,C  22,C  13)     -0.0016         0.004968   
    232. D(C  22,S  23,C  11,N  12)      0.0836         0.003498   
    233. D(C  22,S  23,C  11,C  10)   -179.7121         0.003498   
    234. D(H  44,C  24,C   8,C   9)      0.6061         0.024460   
    235. D(H  44,C  24,C   8,C   7)   -179.6210         0.024460   
    236. D(C  25,C  24,C   8,C   9)   -179.9123         0.024460   
    237. D(C  25,C  24,C   8,C   7)     -0.1395         0.024460   
    238. D(H  45,C  25,C  24,H  44)      0.5916         0.031174   
    239. D(H  45,C  25,C  24,C   8)   -178.8886         0.031174   
    240. D(C   5,C  25,C  24,H  44)    179.9045         0.031174   
    241. D(C   5,C  25,C  24,C   8)      0.4244         0.031174   
    242. D(H  45,C  25,C   5,C   6)    178.9813         0.023469   
    243. D(H  45,C  25,C   5,N   2)     -1.0842         0.023469   
    244. D(C  24,C  25,C   5,C   6)     -0.3155         0.023469   
    245. D(C  24,C  25,C   5,N   2)    179.6190         0.023469   
    -----------------------------------------------------------------

Number of atoms                         .... 46
Number of degrees of freedom            .... 245

         *************************************************************
         *                GEOMETRY OPTIMIZATION CYCLE   1            *
         *************************************************************
---------------------------------
CARTESIAN COORDINATES (ANGSTROEM)
---------------------------------
  C     -6.334300   -2.319600   -0.329200
  C     -6.032000   -1.010100   -1.060200
  N     -5.299800   -0.073100   -0.236700
  C     -6.106000    0.850200    0.531200
  C     -6.376900    2.155300   -0.219800
  C     -3.937400   -0.059800   -0.189700
  C     -3.229400    0.962700    0.472300
  C     -1.858500    0.975900    0.519400
  C     -1.090100   -0.023700   -0.094900
  C      0.340300   -0.051200   -0.083800
  C      1.169600    0.831600    0.522200
  C      2.579000    0.701400    0.451900
  N      3.228400   -0.215400   -0.177000
  C      4.564800   -0.075500   -0.070000
  N      5.446400   -0.868500   -0.618500
  C      6.744400   -0.574100   -0.408700
  C      7.737800   -1.394200   -0.981300
  C      9.059700   -1.110400   -0.780000
  C      9.448600   -0.005400   -0.003600
  C      8.512500    0.811800    0.567300
  C      7.143600    0.548300    0.377900
  N      6.225500    1.365800    0.943600
  C      4.984000    1.062600    0.724100
  S      3.597700    1.917300    1.305400
  C     -1.794300   -1.041200   -0.755900
  C     -3.165200   -1.066200   -0.801300
  H     -5.413800   -2.809400   -0.023200
  H     -6.889600   -2.990100   -0.979700
  H     -6.929400   -2.128900    0.560900
  H     -5.471100   -1.209900   -1.976000
  H     -6.972400   -0.535700   -1.354200
  H     -7.057000    0.359300    0.755600
  H     -5.617100    1.058300    1.485600
  H     -6.905100    1.955900   -1.149300
  H     -6.986900    2.816500    0.389900
  H     -5.445100    2.659700   -0.460800
  H     -3.759100    1.771000    0.949100
  H     -1.367200    1.786000    1.035800
  H      0.808400   -0.867200   -0.619200
  H      0.801400    1.674800    1.086500
  H      7.416600   -2.236900   -1.573200
  H      9.820800   -1.738200   -1.219700
  H     10.500400    0.194600    0.139100
  H      8.787200    1.665800    1.166700
  H     -1.237700   -1.833100   -1.236400
  H     -3.641600   -1.887300   -1.310900

----------------------------
CARTESIAN COORDINATES (A.U.)
----------------------------
  NO LB      ZA    FRAG     MASS         X           Y           Z
   0 C     6.0000    0    12.011  -11.970092   -4.383409   -0.622098
   1 C     6.0000    0    12.011  -11.398828   -1.908812   -2.003488
   2 N     7.0000    0    14.007  -10.015171   -0.138139   -0.447298
   3 C     6.0000    0    12.011  -11.538668    1.606645    1.003823
   4 C     6.0000    0    12.011  -12.050595    4.072927   -0.415362
   5 C     6.0000    0    12.011   -7.440608   -0.113006   -0.358481
   6 C     6.0000    0    12.011   -6.102682    1.819239    0.892518
   7 C     6.0000    0    12.011   -3.512056    1.844184    0.981524
   8 C     6.0000    0    12.011   -2.059990   -0.044787   -0.179335
   9 C     6.0000    0    12.011    0.643074   -0.096754   -0.158359
  10 C     6.0000    0    12.011    2.210224    1.571496    0.986815
  11 C     6.0000    0    12.011    4.873604    1.325454    0.853967
  12 N     7.0000    0    14.007    6.100792   -0.407047   -0.334482
  13 C     6.0000    0    12.011    8.626222   -0.142674   -0.132281
  14 N     7.0000    0    14.007   10.292204   -1.641227   -1.168796
  15 C     6.0000    0    12.011   12.745069   -1.084892   -0.772331
  16 C     6.0000    0    12.011   14.622323   -2.634656   -1.854388
  17 C     6.0000    0    12.011   17.120352   -2.098352   -1.473986
  18 C     6.0000    0    12.011   17.855266   -0.010205   -0.006803
  19 C     6.0000    0    12.011   16.086294    1.534080    1.072042
  20 C     6.0000    0    12.011   13.499448    1.036137    0.714128
  21 N     7.0000    0    14.007   11.764490    2.580988    1.783146
  22 C     6.0000    0    12.011    9.418395    2.008023    1.368351
  23 S    16.0000    0    32.060    6.798668    3.623172    2.466848
  24 C     6.0000    0    12.011   -3.390736   -1.967583   -1.428444
  25 C     6.0000    0    12.011   -5.981361   -2.014826   -1.514238
  26 H     1.0000    0     1.008  -10.230599   -5.308997   -0.043842
  27 H     1.0000    0     1.008  -13.019457   -5.650470   -1.851365
  28 H     1.0000    0     1.008  -13.094668   -4.023038    1.059947
  29 H     1.0000    0     1.008  -10.338881   -2.286380   -3.734099
  30 H     1.0000    0     1.008  -13.175926   -1.012326   -2.559067
  31 H     1.0000    0     1.008  -13.335797    0.678979    1.427877
  32 H     1.0000    0     1.008  -10.614781    1.999897    2.807377
  33 H     1.0000    0     1.008  -13.048748    3.696115   -2.171862
  34 H     1.0000    0     1.008  -13.203328    5.322414    0.736804
  35 H     1.0000    0     1.008  -10.289748    5.026105   -0.870786
  36 H     1.0000    0     1.008   -7.103670    3.346705    1.793539
  37 H     1.0000    0     1.008   -2.583634    3.375051    1.957378
  38 H     1.0000    0     1.008    1.527655   -1.638771   -1.170118
  39 H     1.0000    0     1.008    1.514427    3.164913    2.053187
  40 H     1.0000    0     1.008   14.015343   -4.227128   -2.972917
  41 H     1.0000    0     1.008   18.558622   -3.284722   -2.304899
  42 H     1.0000    0     1.008   19.842880    0.367741    0.262861
  43 H     1.0000    0     1.008   16.605401    3.147906    2.204743
  44 H     1.0000    0     1.008   -2.338914   -3.464057   -2.336457
  45 H     1.0000    0     1.008   -6.881627   -3.566480   -2.477242

--------------------------------
INTERNAL COORDINATES (ANGSTROEM)
--------------------------------
 C      0   0   0     0.000000000000     0.00000000     0.00000000
 C      1   0   0     1.529881217611     0.00000000     0.00000000
 N      2   1   0     1.446457081977   112.48666119     0.00000000
 C      3   2   1     1.446413405635   115.69718729   268.84846140
 C      4   3   2     1.529926083182   112.49616627   268.78947125
 C      3   2   1     1.363275339027   122.12884293    88.97051553
 C      6   3   2     1.408905337487   121.70019070   171.47404637
 C      7   6   3     1.371772379078   121.68943220   180.00325672
 C      8   7   6     1.402498916221   121.71090500     0.34466082
 C      9   8   7     1.430707384478   123.92193433   179.52028595
 C     10   9   8     1.354367132649   127.09415593     1.50420266
 C     11  10   9     1.417145895806   121.79536105   180.49279950
 N     12  11  10     1.287539440173   126.24693709     0.84042433
 C     13  12  11     1.347956219615   112.79119448   179.63339521
 N     14  13  12     1.306491412142   124.93721031   180.30721565
 C     15  14  13     1.347401721834   116.87556317   179.80548772
 C     16  15  14     1.409708597548   119.24155412   180.21661196
 C     17  16  15     1.366924921128   120.05782736   179.95529941
 C     18  17  16     1.405370118510   120.81120710     0.06280024
 C     19  18  17     1.367488888437   120.73564236   359.94467060
 C     20  19  18     1.406837524379   119.86423027   359.96797762
 N     21  20  19     1.353229599883   119.38833728   180.21744492
 C     22  21  20     1.296700713349   115.94767408   179.87987981
 S     23  22  21     1.729233781187   126.51846133   180.25447027
 C      9   8   7     1.402898745455   116.63398481   359.75870091
 C     25   9   8     1.371879356941   122.03328192   359.86050793
 H      1   2   3     1.086673957542   110.66928972   299.99113555
 H      1   2   3     1.086774397012   110.06296181   179.61774188
 H      1   2   3     1.087560807495   110.43205784    59.75877351
 H      2   1   3     1.092345407827   110.21182488   122.66710885
 H      2   1   3     1.093546304461   109.26040291   240.19810049
 H      4   3   2     1.093498591677   107.88607075    29.36169402
 H      4   3   2     1.092340688613   109.63333201   145.77031180
 H      5   4   3     1.087531999529   110.43445058    59.93997617
 H      5   4   3     1.086747224519   110.06011913   179.79619810
 H      5   4   3     1.086623945991   110.67137715   300.17278321
 H      7   6   3     1.077622020933   120.34778042   359.18541962
 H      8   7   6     1.079030425892   118.59941965   179.68693051
 H     10   9   8     1.082417096133   116.29659312   181.53715428
 H     11  10   9     1.079347937414   122.29352721     0.48936440
 H     17  16  15     1.078729966210   117.87278855     0.00000000
 H     18  17  16     1.080158386534   120.05240080   180.06858866
 H     19  18  17     1.080114128229   119.21235847   179.96751549
 H     20  19  18     1.078914477612   122.05014797   180.02932900
 H     25   9   8     1.080643058554   118.84558158   180.37896562
 H     26  25   9     1.077429501174   118.12443001   181.11138892

---------------------------
INTERNAL COORDINATES (A.U.)
---------------------------
 C      0   0   0     0.000000000000     0.00000000     0.00000000
 C      1   0   0     2.891056518715     0.00000000     0.00000000
 N      2   1   0     2.733407749406   112.48666119     0.00000000
 C      3   2   1     2.733325213082   115.69718729   268.84846140
 C      4   3   2     2.891141302356   112.49616627   268.78947125
 C      3   2   1     2.576217035890   122.12884293    88.97051553
 C      6   3   2     2.662445236471   121.70019070   171.47404637
 C      7   6   3     2.592274114534   121.68943220   180.00325672
 C      8   7   6     2.650338854778   121.71090500     0.34466082
 C      9   8   7     2.703645134442   123.92193433   179.52028595
 C     10   9   8     2.559382965491   127.09415593     1.50420266
 C     11  10   9     2.678017634884   121.79536105   180.49279950
 N     12  11  10     2.433096928549   126.24693709     0.84042433
 C     13  12  11     2.547268095589   112.79119448   179.63339521
 N     14  13  12     2.468910965268   124.93721031   180.30721565
 C     15  14  13     2.546220246639   116.87556317   179.80548772
 C     16  15  14     2.663963177999   119.24155412   180.21661196
 C     17  16  15     2.583113746563   120.05782736   179.95529941
 C     18  17  16     2.655764640780   120.81120710     0.06280024
 C     19  18  17     2.584179490327   120.73564236   359.94467060
 C     20  19  18     2.658537636000   119.86423027   359.96797762
 N     21  20  19     2.557233340095   119.38833728   180.21744492
 C     22  21  20     2.450409225890   115.94767408   179.87987981
 S     23  22  21     3.267778267969   126.51846133   180.25447027
 C      9   8   7     2.651094422532   116.63398481   359.75870091
 C     25   9   8     2.592476273398   122.03328192   359.86050793
 H      1   2   3     2.053516176619   110.66928972   299.99113555
 H      1   2   3     2.053705979709   110.06296181   179.61774188
 H      1   2   3     2.055192080153   110.43205784    59.75877351
 H      2   1   3     2.064233664439   110.21182488   122.66710885
 H      2   1   3     2.066503030193   109.26040291   240.19810049
 H      4   3   2     2.066412866098   107.88607075    29.36169402
 H      4   3   2     2.064224746418   109.63333201   145.77031180
 H      5   4   3     2.055137640986   110.43445058    59.93997617
 H      5   4   3     2.053654631140   110.06011913   179.79619810
 H      5   4   3     2.053421668483   110.67137715   300.17278321
 H      7   6   3     2.036410495446   120.34778042   359.18541962
 H      8   7   6     2.039071995104   118.59941965   179.68693051
 H     10   9   8     2.045471874365   116.29659312   181.53715428
 H     11  10   9     2.039672004925   122.29352721     0.48936440
 H     17  16  15     2.038504208592   117.87278855     0.00000000
 H     18  17  16     2.041203531808   120.05240080   180.06858866
 H     19  18  17     2.041119895732   119.21235847   179.96751549
 H     20  19  18     2.038852884609   122.05014797   180.02932900
 H     25   9   8     2.042119429189   118.84558158   180.37896562
 H     26  25   9     2.036046685826   118.12443001   181.11138892

---------------------
BASIS SET INFORMATION
---------------------
There are 4 groups of distinct atoms

 Group   1 Type C   : 19s6p3d2f contracted to 5s4p3d2f pattern {88111/3111/111/11}
 Group   2 Type N   : 19s6p3d2f contracted to 5s4p3d2f pattern {88111/3111/111/11}
 Group   3 Type S   : 42s17p3d2f contracted to 6s5p3d2f pattern {131313111/77111/111/11}
 Group   4 Type H   : 5s2p1d contracted to 3s2p1d pattern {311/11/1}

Atom   0C    basis set group =>   1
Atom   1C    basis set group =>   1
Atom   2N    basis set group =>   2
Atom   3C    basis set group =>   1
Atom   4C    basis set group =>   1
Atom   5C    basis set group =>   1
Atom   6C    basis set group =>   1
Atom   7C    basis set group =>   1
Atom   8C    basis set group =>   1
Atom   9C    basis set group =>   1
Atom  10C    basis set group =>   1
Atom  11C    basis set group =>   1
Atom  12N    basis set group =>   2
Atom  13C    basis set group =>   1
Atom  14N    basis set group =>   2
Atom  15C    basis set group =>   1
Atom  16C    basis set group =>   1
Atom  17C    basis set group =>   1
Atom  18C    basis set group =>   1
Atom  19C    basis set group =>   1
Atom  20C    basis set group =>   1
Atom  21N    basis set group =>   2
Atom  22C    basis set group =>   1
Atom  23S    basis set group =>   3
Atom  24C    basis set group =>   1
Atom  25C    basis set group =>   1
Atom  26H    basis set group =>   4
Atom  27H    basis set group =>   4
Atom  28H    basis set group =>   4
Atom  29H    basis set group =>   4
Atom  30H    basis set group =>   4
Atom  31H    basis set group =>   4
Atom  32H    basis set group =>   4
Atom  33H    basis set group =>   4
Atom  34H    basis set group =>   4
Atom  35H    basis set group =>   4
Atom  36H    basis set group =>   4
Atom  37H    basis set group =>   4
Atom  38H    basis set group =>   4
Atom  39H    basis set group =>   4
Atom  40H    basis set group =>   4
Atom  41H    basis set group =>   4
Atom  42H    basis set group =>   4
Atom  43H    basis set group =>   4
Atom  44H    basis set group =>   4
Atom  45H    basis set group =>   4
---------------------------------
AUXILIARY/J BASIS SET INFORMATION
---------------------------------
There are 4 groups of distinct atoms

 Group   1 Type C   : 10s7p5d2f1g contracted to 10s7p5d2f1g pattern {1111111111/1111111/11111/11/1}
 Group   2 Type N   : 10s7p5d2f1g contracted to 10s7p5d2f1g pattern {1111111111/1111111/11111/11/1}
 Group   3 Type S   : 13s11p9d3f1g contracted to 13s11p9d3f1g pattern {1111111111111/11111111111/111111111/111/1}
 Group   4 Type H   : 4s3p2d1f contracted to 4s3p2d1f pattern {1111/111/11/1}

Atom   0C    basis set group =>   1
Atom   1C    basis set group =>   1
Atom   2N    basis set group =>   2
Atom   3C    basis set group =>   1
Atom   4C    basis set group =>   1
Atom   5C    basis set group =>   1
Atom   6C    basis set group =>   1
Atom   7C    basis set group =>   1
Atom   8C    basis set group =>   1
Atom   9C    basis set group =>   1
Atom  10C    basis set group =>   1
Atom  11C    basis set group =>   1
Atom  12N    basis set group =>   2
Atom  13C    basis set group =>   1
Atom  14N    basis set group =>   2
Atom  15C    basis set group =>   1
Atom  16C    basis set group =>   1
Atom  17C    basis set group =>   1
Atom  18C    basis set group =>   1
Atom  19C    basis set group =>   1
Atom  20C    basis set group =>   1
Atom  21N    basis set group =>   2
Atom  22C    basis set group =>   1
Atom  23S    basis set group =>   3
Atom  24C    basis set group =>   1
Atom  25C    basis set group =>   1
Atom  26H    basis set group =>   4
Atom  27H    basis set group =>   4
Atom  28H    basis set group =>   4
Atom  29H    basis set group =>   4
Atom  30H    basis set group =>   4
Atom  31H    basis set group =>   4
Atom  32H    basis set group =>   4
Atom  33H    basis set group =>   4
Atom  34H    basis set group =>   4
Atom  35H    basis set group =>   4
Atom  36H    basis set group =>   4
Atom  37H    basis set group =>   4
Atom  38H    basis set group =>   4
Atom  39H    basis set group =>   4
Atom  40H    basis set group =>   4
Atom  41H    basis set group =>   4
Atom  42H    basis set group =>   4
Atom  43H    basis set group =>   4
Atom  44H    basis set group =>   4
Atom  45H    basis set group =>   4
---------------------------------
AUXILIARY/C BASIS SET INFORMATION
---------------------------------
There are 4 groups of distinct atoms

 Group   1 Type C   : 9s7p6d4f2g contracted to 9s7p6d4f2g pattern {111111111/1111111/111111/1111/11}
 Group   2 Type N   : 9s7p6d4f2g contracted to 9s7p6d4f2g pattern {111111111/1111111/111111/1111/11}
 Group   3 Type S   : 11s9p8d6f3g contracted to 11s9p8d6f3g pattern {11111111111/111111111/11111111/111111/111}
 Group   4 Type H   : 4s3p2d1f contracted to 4s3p2d1f pattern {1111/111/11/1}

Atom   0C    basis set group =>   1
Atom   1C    basis set group =>   1
Atom   2N    basis set group =>   2
Atom   3C    basis set group =>   1
Atom   4C    basis set group =>   1
Atom   5C    basis set group =>   1
Atom   6C    basis set group =>   1
Atom   7C    basis set group =>   1
Atom   8C    basis set group =>   1
Atom   9C    basis set group =>   1
Atom  10C    basis set group =>   1
Atom  11C    basis set group =>   1
Atom  12N    basis set group =>   2
Atom  13C    basis set group =>   1
Atom  14N    basis set group =>   2
Atom  15C    basis set group =>   1
Atom  16C    basis set group =>   1
Atom  17C    basis set group =>   1
Atom  18C    basis set group =>   1
Atom  19C    basis set group =>   1
Atom  20C    basis set group =>   1
Atom  21N    basis set group =>   2
Atom  22C    basis set group =>   1
Atom  23S    basis set group =>   3
Atom  24C    basis set group =>   1
Atom  25C    basis set group =>   1
Atom  26H    basis set group =>   4
Atom  27H    basis set group =>   4
Atom  28H    basis set group =>   4
Atom  29H    basis set group =>   4
Atom  30H    basis set group =>   4
Atom  31H    basis set group =>   4
Atom  32H    basis set group =>   4
Atom  33H    basis set group =>   4
Atom  34H    basis set group =>   4
Atom  35H    basis set group =>   4
Atom  36H    basis set group =>   4
Atom  37H    basis set group =>   4
Atom  38H    basis set group =>   4
Atom  39H    basis set group =>   4
Atom  40H    basis set group =>   4
Atom  41H    basis set group =>   4
Atom  42H    basis set group =>   4
Atom  43H    basis set group =>   4
Atom  44H    basis set group =>   4
Atom  45H    basis set group =>   4


           ************************************************************
           *        Program running with 4 parallel MPI-processes     *
           *              working on a common directory               *
           ************************************************************
------------------------------------------------------------------------------
                           ORCA GTO INTEGRAL CALCULATION
                           -- RI-GTO INTEGRALS CHOSEN --
------------------------------------------------------------------------------
------------------------------------------------------------------------------
                   ___                                                        
                  /   \      - P O W E R E D   B Y -                         
                 /     \                                                     
                 |  |  |   _    _      __       _____    __    __             
                 |  |  |  | |  | |    /  \     |  _  \  |  |  /  |          
                  \  \/   | |  | |   /    \    | | | |  |  | /  /          
                 / \  \   | |__| |  /  /\  \   | |_| |  |  |/  /          
                |  |  |   |  __  | /  /__\  \  |    /   |      \           
                |  |  |   | |  | | |   __   |  |    \   |  |\   \          
                \     /   | |  | | |  |  |  |  | |\  \  |  | \   \       
                 \___/    |_|  |_| |__|  |__|  |_| \__\ |__|  \__/        
                                                                              
                      - O R C A' S   B I G   F R I E N D -                    
                                      &                                       
                       - I N T E G R A L  F E E D E R -                       
                                                                              
 v1 FN, 2020, v2 2021                                                         
------------------------------------------------------------------------------


Reading SHARK input file optpbed3-b2plyp-test-236.SHARKINP.tmp ... ok
----------------------
SHARK INTEGRAL PACKAGE
----------------------

Number of atoms                             ...     46
Number of basis functions                   ...   1655
Number of shells                            ...    651
Maximum angular momentum                    ...      3
Integral batch strategy                     ... SHARK/LIBINT Hybrid
RI-J (if used) integral strategy            ... SPLIT-RIJ (Revised 2003 algorithm where possible)
Printlevel                                  ...      1
Contraction scheme used                     ... PARTIAL GENERAL contraction
Coulomb Range Separation                    ... NOT USED
Exchange Range Separation                   ... NOT USED
Finite Nucleus Model                        ... NOT USED
Auxiliary Coulomb fitting basis             ... AVAILABLE
   # of basis functions in Aux-J            ...   2696
   # of shells in Aux-J                     ...    862
   Maximum angular momentum in Aux-J        ...      4
Auxiliary J/K fitting basis                 ... NOT available
Auxiliary Correlation fitting basis         ... AVAILABLE
   # of basis functions in Aux-C            ...   3397
   # of shells in Aux-C                     ...    937
   Maximum angular momentum in Aux-C        ...      4
Auxiliary 'external' fitting basis          ... NOT available
Integral threshold                          ...     2.500000e-11
Primitive cut-off                           ...     2.500000e-12
Primitive pair pre-selection threshold      ...     2.500000e-12

Calculating pre-screening integrals         ... done (  0.3 sec) Dimension = 651
Calculating pre-screening integrals (ORCA)  ... done (  0.9 sec) Dimension = 486
Organizing shell pair data                  ... done (  2.2 sec)
Shell pair information
Total number of shell pairs                 ...    212226
Shell pairs after pre-screening             ...    106677
Total number of primitive shell pairs       ...    275046
Primitive shell pairs kept                  ...    123746
          la=0 lb=0:  23977 shell pairs
          la=1 lb=0:  28377 shell pairs
          la=1 lb=1:   7390 shell pairs
          la=2 lb=0:  17286 shell pairs
          la=2 lb=1:   9078 shell pairs
          la=2 lb=2:   2873 shell pairs
          la=3 lb=0:   9096 shell pairs
          la=3 lb=1:   4808 shell pairs
          la=3 lb=2:   2979 shell pairs
          la=3 lb=3:    813 shell pairs

Calculating one electron integrals          ... done (  0.4 sec)
Calculating RI/J V-Matrix + Cholesky decomp.... done (  0.7 sec)
Calculating RI/C V-Matrix + Cholesky decomp.... done (  0.9 sec)
Calculating Nuclear repulsion               ... done (  0.0 sec) ENN=   2134.521174130463 Eh

SHARK setup successfully completed in   7.8 seconds

Maximum memory used throughout the entire GTOINT-calculation: 185.8 MB


           ************************************************************
           *        Program running with 4 parallel MPI-processes     *
           *              working on a common directory               *
           ************************************************************
-------------------------------------------------------------------------------
                                 ORCA SCF
-------------------------------------------------------------------------------

------------
SCF SETTINGS
------------
Hamiltonian:
 Density Functional     Method          .... DFT(GTOs)
 Exchange Functional    Exchange        .... PBE
   PBE kappa parameter   XKappa         ....  0.804000
   PBE mue parameter    XMuePBE         ....  0.219520
 Correlation Functional Correlation     .... PBE
   PBE beta parameter  CBetaPBE         ....  0.066725
 LDA part of GGA corr.  LDAOpt          .... PW91-LDA
 Gradients option       PostSCFGGA      .... off
 Hybrid DFT is turned on
   Fraction HF Exchange ScalHFX         ....  0.250000
   Scaling of DF-GGA-X  ScalDFX         ....  0.750000
   Scaling of DF-GGA-C  ScalDFC         ....  1.000000
   Scaling of DF-LDA-C  ScalLDAC        ....  1.000000
   Perturbative correction              ....  0.000000
   Density functional embedding theory  .... OFF
   NL short-range parameter             ....  6.900000
 RI-approximation to the Coulomb term is turned on
   Number of AuxJ basis functions       .... 2696
   RIJ-COSX (HFX calculated with COS-X)).... on


General Settings:
 Integral files         IntName         .... optpbed3-b2plyp-test-236
 Hartree-Fock type      HFTyp           .... RHF
 Total Charge           Charge          ....    0
 Multiplicity           Mult            ....    1
 Number of Electrons    NEL             ....  190
 Basis Dimension        Dim             .... 1480
 Nuclear Repulsion      ENuc            ....   2134.5211741305 Eh

Convergence Acceleration:
 DIIS                   CNVDIIS         .... on
   Start iteration      DIISMaxIt       ....    12
   Startup error        DIISStart       ....  0.200000
   # of expansion vecs  DIISMaxEq       ....     5
   Bias factor          DIISBfac        ....   1.050
   Max. coefficient     DIISMaxC        ....  10.000
 Trust-Rad. Augm. Hess. CNVTRAH         .... auto
   Auto Start mean grad. ratio tolernc. ....  1.125000
   Auto Start start iteration           ....    20
   Auto Start num. interpolation iter.  ....    10
   Max. Number of Micro iterations      ....    16
   Max. Number of Macro iterations      .... Maxiter - #DIIS iter
   Number of Davidson start vectors     ....     2
   Converg. threshold I  (grad. norm)   ....   1.000e-05
   Converg. threshold II (energy diff.) ....   1.000e-08
   Grad. Scal. Fac. for Micro threshold ....   0.100
   Minimum threshold for Micro iter.    ....   0.010
   NR start threshold (gradient norm)   ....   0.001
   Initial trust radius                 ....   0.400
   Minimum AH scaling param. (alpha)    ....   1.000
   Maximum AH scaling param. (alpha)    .... 1000.000
   Orbital update algorithm             .... Taylor
   White noise on init. David. guess    .... on
   Maximum white noise                  ....   0.010
   Quad. conv. algorithm                .... NR
 SOSCF                  CNVSOSCF        .... on
   Start iteration      SOSCFMaxIt      ....   150
   Startup grad/error   SOSCFStart      ....  0.003300
 Level Shifting         CNVShift        .... on
   Level shift para.    LevelShift      ....    0.2500
   Turn off err/grad.   ShiftErr        ....    0.0010
 Zerner damping         CNVZerner       .... off
 Static damping         CNVDamp         .... on
   Fraction old density DampFac         ....    0.7000
   Max. Damping (<1)    DampMax         ....    0.9800
   Min. Damping (>=0)   DampMin         ....    0.0000
   Turn off err/grad.   DampErr         ....    0.1000
 Fernandez-Rico         CNVRico         .... off

SCF Procedure:
 Maximum # iterations   MaxIter         ....   125
 SCF integral mode      SCFMode         .... Direct
   Integral package                     .... SHARK and LIBINT hybrid scheme
 Reset frequency        DirectResetFreq ....    20
 Integral Threshold     Thresh          ....  2.500e-11 Eh
 Primitive CutOff       TCut            ....  2.500e-12 Eh

Convergence Tolerance:
 Convergence Check Mode ConvCheckMode   .... Total+1el-Energy
 Convergence forced     ConvForced      .... 0
 Energy Change          TolE            ....  1.000e-08 Eh
 1-El. energy change                    ....  1.000e-05 Eh
 Orbital Gradient       TolG            ....  1.000e-05
 Orbital Rotation angle TolX            ....  1.000e-05
 DIIS Error             TolErr          ....  5.000e-07


Diagonalization of the overlap matrix:
Smallest eigenvalue                        ... 2.010e-07
Time for diagonalization                   ...    0.515 sec
Threshold for overlap eigenvalues          ... 1.000e-08
Number of eigenvalues below threshold      ... 0
Time for construction of square roots      ...    0.360 sec
Total time needed                          ...    0.888 sec

Time for model grid setup =    1.059 sec

------------------------------
INITIAL GUESS: MODEL POTENTIAL
------------------------------
Loading Hartree-Fock densities                     ... done
Calculating cut-offs                               ... done
Initializing the effective Hamiltonian             ... done
Setting up the integral package (SHARK)            ... done
Starting the Coulomb interaction                   ... done (   5.0 sec)
Reading the grid                                   ... done
Mapping shells                                     ... done
Starting the XC term evaluation                    ... done (   2.8 sec)
  promolecular density results
     # of electrons  =    189.999274412
     EX              =   -164.522948798
     EC              =     -6.481025005
     EX+EC           =   -171.003973803
Transforming the Hamiltonian                       ... done (   0.3 sec)
Diagonalizing the Hamiltonian                      ... done (   0.5 sec)
Back transforming the eigenvectors                 ... done (   0.1 sec)
Now organizing SCF variables                       ... done
                      ------------------
                      INITIAL GUESS DONE (   9.8 sec)
                      ------------------
-------------------
DFT GRID GENERATION
-------------------

General Integration Accuracy     IntAcc      ... 4.388
Radial Grid Type                 RadialGrid  ... OptM3 with GC (2021)
Angular Grid (max. ang.)         AngularGrid ... 4 (Lebedev-302)
Angular grid pruning method      GridPruning ... 4 (adaptive)
Weight generation scheme         WeightScheme... Becke
Basis function cutoff            BFCut       ... 1.0000e-11
Integration weight cutoff        WCut        ... 1.0000e-14
Angular grids for H and He will be reduced by one unit
Partially contracted basis set               ... off
Rotationally invariant grid construction     ... off

Total number of grid points                  ...   226672
Total number of batches                      ...     3567
Average number of points per batch           ...       63
Average number of grid points per atom       ...     4928
Time for grid setup =    3.518 sec

--------------------
COSX GRID GENERATION
--------------------

GRIDX 1
-------
General Integration Accuracy     IntAcc      ... 3.816
Radial Grid Type                 RadialGrid  ... OptM3 with GC (2021)
Angular Grid (max. ang.)         AngularGrid ... 1 (Lebedev-50)
Angular grid pruning method      GridPruning ... 4 (adaptive)
Weight generation scheme         WeightScheme... Becke
Basis function cutoff            BFCut       ... 1.0000e-11
Integration weight cutoff        WCut        ... 1.0000e-14
Angular grids for H and He will be reduced by one unit
Partially contracted basis set               ... on
Rotationally invariant grid construction     ... off

Total number of grid points                  ...    28793
Total number of batches                      ...      476
Average number of points per batch           ...       60
Average number of grid points per atom       ...      626
UseSFitting                                  ... on

GRIDX 2
-------
General Integration Accuracy     IntAcc      ... 4.020
Radial Grid Type                 RadialGrid  ... OptM3 with GC (2021)
Angular Grid (max. ang.)         AngularGrid ... 2 (Lebedev-110)
Angular grid pruning method      GridPruning ... 4 (adaptive)
Weight generation scheme         WeightScheme... Becke
Basis function cutoff            BFCut       ... 1.0000e-11
Integration weight cutoff        WCut        ... 1.0000e-14
Angular grids for H and He will be reduced by one unit
Partially contracted basis set               ... on
Rotationally invariant grid construction     ... off

Total number of grid points                  ...    67549
Total number of batches                      ...     1081
Average number of points per batch           ...       62
Average number of grid points per atom       ...     1468
UseSFitting                                  ... on

GRIDX 3
-------
General Integration Accuracy     IntAcc      ... 4.338
Radial Grid Type                 RadialGrid  ... OptM3 with GC (2021)
Angular Grid (max. ang.)         AngularGrid ... 3 (Lebedev-194)
Angular grid pruning method      GridPruning ... 4 (adaptive)
Weight generation scheme         WeightScheme... Becke
Basis function cutoff            BFCut       ... 1.0000e-11
Integration weight cutoff        WCut        ... 1.0000e-14
Angular grids for H and He will be reduced by one unit
Partially contracted basis set               ... on
Rotationally invariant grid construction     ... off

Total number of grid points                  ...   146283
Total number of batches                      ...     2311
Average number of points per batch           ...       63
Average number of grid points per atom       ...     3180
UseSFitting                                  ... on

Time for X-Grid setup             =    9.195 sec


--------------------
CPCM SOLVATION MODEL
--------------------
CPCM parameters:
  Epsilon                                         ...      32.6130
  Refrac                                          ...       1.3288
  Rsolv                                           ...       1.3000
  Surface type                                    ... GAUSSIAN VDW
  Epsilon function type                           ...         CPCM
Solvent:                                     ... METHANOL
SMD-CDS solvent descriptors:
  Soln                                       ...    1.3288
  Soln25                                     ...    1.3265
  Sola                                       ...    0.4300
  Solb                                       ...    0.4700
  Solg                                       ...   31.7700
  Solc                                       ...    0.0000
  Solh                                       ...    0.0000
Radii:
 Radius for C  used is    3.4960 Bohr (=   1.8500 Ang.)
 Radius for N  used is    3.5716 Bohr (=   1.8900 Ang.)
 Radius for S  used is    4.7054 Bohr (=   2.4900 Ang.)
 Radius for H  used is    2.2677 Bohr (=   1.2000 Ang.)
Calculating surface                               ...        done! (  0.0s)
GEPOL surface points                              ...         2614
GEPOL Volume                                      ...    2610.7151
GEPOL Surface-area                                ...    1420.5898
Calculating surface distance matrix               ...        done! (  0.1s)
Performing Cholesky decomposition & store         ...        done! (  1.3s)
Overall time for CPCM initialization              ...                 1.4s
 re-compute Schwartz prescreening matrix in partically contracted basis (1) ...done (   0.349 sec)
--------------
SCF ITERATIONS
--------------
ITER       Energy         Delta-E        Max-DP      RMS-DP      [F,P]     Damp
               ***  Starting incremental Fock matrix formation  ***
  0  -1427.9313738881   0.000000000000 0.33205124  0.00191285  0.2201468 0.7000
  1  -1428.1974709237  -0.266097035589 0.32583475  0.00175717  0.1021331 0.7000
[...]
   Maximum residual norm  :     0.000016610494
   Rebuilding the expansion space

                       ****Iteration    5****
              <<< Entering MO-section for Build Sigma(Double) >>>
   Forming the XC and CPCM contribution:
   Time for densities:            0.856
   Time for XC-Integration:      44.763
   Time for LR-CPCM terms:       31.501
   Time for Sigma-Completion:     0.629
   Time for building 20 sigma-vectors
   Data Preparation Phase         ...     0.03 sec
   Transformed RI Coulomb         ...     3.18 sec
   Transformed RI-exchange        ...  2719.86 sec
   (ab|v) reading and digestion   ...  2610.93 sec
   Final sigma-completion         ...     0.02 sec
   Done building sigma-vectors             Size of expansion space: 20
   Lowest Energy          :     0.108477262440
   Maximum Energy change  :     0.000029103831 (vector 7)
   Maximum residual norm  :     0.000003697379

                       ****Iteration    6****
              <<< Entering MO-section for Build Sigma(Double) >>>
   Forming the XC and CPCM contribution:
   Time for densities:            0.433
   Time for XC-Integration:      23.121
   Time for LR-CPCM terms:       19.666
   Time for Sigma-Completion:     0.317
   Time for building 10 sigma-vectors
   Data Preparation Phase         ...     0.01 sec
   Transformed RI Coulomb         ...     1.77 sec
   Transformed RI-exchange        ...  1278.47 sec
   (ab|v) reading and digestion   ...  1226.80 sec
   Final sigma-completion         ...     0.01 sec
   Done building sigma-vectors             Size of expansion space: 30
   Lowest Energy          :     0.108477242688
   Maximum Energy change  :     0.000009084230 (vector 7)
   Maximum residual norm  :     0.000001156810

                       ****Iteration    7****
              <<< Entering MO-section for Build Sigma(Double) >>>
   Forming the XC and CPCM contribution:
   Time for densities:            0.449
   Time for XC-Integration:      23.155
   Time for LR-CPCM terms:       19.611
   Time for Sigma-Completion:     0.316
   Time for building 10 sigma-vectors
   Data Preparation Phase         ...     0.01 sec
   Transformed RI Coulomb         ...     1.79 sec
   Transformed RI-exchange        ...  1284.76 sec
   (ab|v) reading and digestion   ...  1233.15 sec
   Final sigma-completion         ...     0.01 sec
   Done building sigma-vectors             Size of expansion space: 40
   Lowest Energy          :     0.108477241078
   Maximum Energy change  :     0.000004350718 (vector 7)
   Maximum residual norm  :     0.000001105870

                       ****Iteration    8****
              <<< Entering MO-section for Build Sigma(Double) >>>
   Forming the XC and CPCM contribution:
   Time for densities:            0.439
   Time for XC-Integration:      23.297
   Time for LR-CPCM terms:       19.855
   Time for Sigma-Completion:     0.315
   Time for building 10 sigma-vectors
   Data Preparation Phase         ...     0.01 sec
   Transformed RI Coulomb         ...     1.78 sec
   Transformed RI-exchange        ...  1284.09 sec
   (ab|v) reading and digestion   ...  1232.43 sec
   Final sigma-completion         ...     0.01 sec
   Done building sigma-vectors             Size of expansion space: 50
   Lowest Energy          :     0.108477240980
   Maximum Energy change  :     0.000003243323 (vector 7)
   Maximum residual norm  :     0.000000556429

      *** CONVERGENCE OF RESIDUAL NORM REACHED ***

Storing the converged CI vectors               ... optpbed3-b2plyp-test-236_job2.cis1

                 *** DAVIDSON DONE ***

Total time for solving the CIS problem: 14158.339sec

------------------
DOUBLES CORRECTION (Double precision version)
------------------

The (D) correction will be scaled by  0.2700
Doing v(i,a)*T(i,a) terms (RI)                    ... ok
Doing u(i,j,a,b) terms for state   0              ... ok
Doing u(i,j,a,b) terms for state   1              ... ok
Doing u(i,j,a,b) terms for state   2              ... ok
Doing u(i,j,a,b) terms for state   3              ... ok
Doing u(i,j,a,b) terms for state   4              ... ok
Doing u(i,j,a,b) terms for state   5              ... ok
Doing u(i,j,a,b) terms for state   6              ... ok
Doing u(i,j,a,b) terms for state   7              ... ok
Doing u(i,j,a,b) terms for state   8              ... ok
Doing u(i,j,a,b) terms for state   9              ... ok

Contributions to the (D) correction(s) (in eV)

STATE  Final   Init.   Total   v(ext)   v(int)  v(3)    u
       omega   omega     (D)                             
-----------------------------------------------------------------------------
   0   2.439   2.952  -0.513   0.717   1.050  -0.052  -2.228
   1   3.637   4.201  -0.564   0.718   0.980  -0.041  -2.221
   2   3.685   4.273  -0.588   0.664   1.038  -0.071  -2.219
   3   3.620   4.285  -0.664   0.782   0.795  -0.027  -2.214
   4   3.702   4.518  -0.816   0.704   1.011  -0.033  -2.498
   5   4.076   4.640  -0.564   0.525   0.990  -0.034  -2.045
   6   4.588   4.856  -0.268   0.037   1.035  -0.001  -1.339
   7   4.546   5.091  -0.545   0.377   1.012  -0.033  -1.900
   8   4.632   5.122  -0.490   0.203   1.033  -0.009  -1.717
   9   4.897   5.235  -0.338   0.051   1.035  -0.002  -1.422

(D)-timings
 V(i,a)*T(i,a) terms           ...  2229.786 sec
 U(i,j,a,b) 3-internal         ...    43.767 sec
 U(i,j,a,b) 3-external         ...   939.678 sec
 U(i,j,a,b) pair terms         ...  1164.865 sec
 Total measured time           ...  9248.832 sec

 Time for (ab|v) I/O           ...   208.001 sec


------------------------------------
TD-DFT/TDA EXCITED STATES (SINGLETS)
------------------------------------

the weight of the individual excitations are printed if larger than 1.0e-02

STATE  1:  E=   0.089638 au      2.439 eV    19673.4 cm**-1 <S**2> =   0.000000
    93a ->  95a  :     0.015624 (c= -0.12499568)
    94a ->  95a  :     0.903059 (c=  0.95029426)
    94a ->  96a  :     0.027618 (c= -0.16618645)

STATE  2:  E=   0.133665 au      3.637 eV    29336.0 cm**-1 <S**2> =   0.000000
    92a ->  95a  :     0.384902 (c=  0.62040492)
    92a ->  96a  :     0.066223 (c=  0.25733765)
    93a ->  95a  :     0.278202 (c=  0.52744864)
    93a ->  99a  :     0.035266 (c=  0.18779233)
    94a ->  96a  :     0.165796 (c=  0.40718031)
    94a ->  99a  :     0.011463 (c= -0.10706475)

STATE  3:  E=   0.135416 au      3.685 eV    29720.3 cm**-1 <S**2> =   0.000000
    89a ->  95a  :     0.012617 (c=  0.11232571)
    92a ->  99a  :     0.013180 (c=  0.11480579)
    93a ->  95a  :     0.318794 (c= -0.56461845)
    93a ->  96a  :     0.070759 (c= -0.26600587)
    94a ->  96a  :     0.474681 (c=  0.68897089)
    94a ->  99a  :     0.018387 (c=  0.13559931)

STATE  4:  E=   0.133044 au      3.620 eV    29199.9 cm**-1 <S**2> =   0.000000
    89a ->  95a  :     0.744699 (c=  0.86295947)
    89a ->  96a  :     0.160478 (c=  0.40059749)
    89a -> 107a  :     0.012417 (c= -0.11143036)

STATE  5:  E=   0.136039 au      3.702 eV    29857.1 cm**-1 <S**2> =   0.000000
    90a ->  96a  :     0.021861 (c= -0.14785506)
    91a ->  95a  :     0.011118 (c= -0.10544297)
    92a ->  95a  :     0.391410 (c=  0.62562790)
    93a ->  95a  :     0.233531 (c= -0.48325012)
    94a ->  95a  :     0.045753 (c= -0.21389964)
    94a ->  96a  :     0.162106 (c= -0.40262388)
    94a ->  99a  :     0.029092 (c= -0.17056383)
    94a -> 105a  :     0.023238 (c=  0.15244046)

STATE  6:  E=   0.149795 au      4.076 eV    32876.2 cm**-1 <S**2> =   0.000000
    91a ->  95a  :     0.163424 (c=  0.40425742)
    91a ->  96a  :     0.039751 (c= -0.19937591)
    92a ->  95a  :     0.041338 (c=  0.20331838)
    94a ->  96a  :     0.049185 (c= -0.22177722)
    94a ->  99a  :     0.089478 (c=  0.29912919)
    94a -> 101a  :     0.024901 (c= -0.15779910)
    94a -> 103a  :     0.026998 (c=  0.16431062)
    94a -> 104a  :     0.055765 (c= -0.23614583)
    94a -> 105a  :     0.306885 (c= -0.55397168)
    94a -> 106a  :     0.034177 (c= -0.18487142)
    94a -> 107a  :     0.058903 (c=  0.24269968)

STATE  7:  E=   0.168612 au      4.588 eV    37006.1 cm**-1 <S**2> =   0.000000
    94a ->  97a  :     0.755830 (c= -0.86938489)
    94a ->  98a  :     0.024977 (c= -0.15803980)
    94a -> 100a  :     0.029483 (c= -0.17170676)
    94a -> 101a  :     0.027662 (c= -0.16631926)
    94a -> 102a  :     0.017640 (c=  0.13281412)
    94a -> 103a  :     0.012300 (c=  0.11090716)
    94a -> 104a  :     0.018127 (c= -0.13463725)
    94a -> 106a  :     0.023204 (c=  0.15232731)
    94a -> 111a  :     0.030574 (c= -0.17485303)

STATE  8:  E=   0.167075 au      4.546 eV    36668.7 cm**-1 <S**2> =   0.000000
    88a ->  95a  :     0.010351 (c=  0.10173889)
    90a ->  95a  :     0.015554 (c=  0.12471630)
    91a ->  95a  :     0.092758 (c= -0.30456186)
    91a ->  96a  :     0.013461 (c=  0.11602316)
    92a ->  95a  :     0.026769 (c=  0.16361114)
    93a ->  96a  :     0.033998 (c=  0.18438584)
    94a ->  98a  :     0.050255 (c=  0.22417591)
    94a ->  99a  :     0.515789 (c=  0.71818469)
    94a -> 101a  :     0.046845 (c=  0.21643654)
    94a -> 102a  :     0.014639 (c=  0.12099003)
    94a -> 105a  :     0.020992 (c=  0.14488645)
    94a -> 108a  :     0.023467 (c=  0.15318956)
    94a -> 109a  :     0.017710 (c= -0.13307705)

STATE  9:  E=   0.170226 au      4.632 eV    37360.4 cm**-1 <S**2> =   0.000000
    91a ->  95a  :     0.033963 (c= -0.18428979)
    92a ->  98a  :     0.011364 (c= -0.10660407)
    93a ->  98a  :     0.010195 (c=  0.10097142)
    94a ->  98a  :     0.325676 (c= -0.57068011)
    94a ->  99a  :     0.040106 (c=  0.20026510)
    94a -> 100a  :     0.076370 (c=  0.27635078)
    94a -> 101a  :     0.158825 (c= -0.39852817)
    94a -> 103a  :     0.175999 (c= -0.41952198)
    94a -> 106a  :     0.014300 (c=  0.11958053)
    94a -> 114a  :     0.011110 (c=  0.10540170)

STATE 10:  E=   0.179968 au      4.897 eV    39498.5 cm**-1 <S**2> =   0.000000
    94a ->  97a  :     0.040973 (c= -0.20241839)
    94a ->  98a  :     0.232171 (c=  0.48184175)
    94a -> 100a  :     0.502611 (c=  0.70895039)
    94a -> 103a  :     0.029906 (c= -0.17293396)
    94a -> 104a  :     0.017406 (c= -0.13193220)
    94a -> 105a  :     0.010541 (c= -0.10267096)
    94a -> 106a  :     0.021854 (c=  0.14783159)
    94a -> 108a  :     0.013173 (c= -0.11477563)
    94a -> 109a  :     0.015619 (c= -0.12497528)


-----------------------------
TD-DFT/TDA-EXCITATION SPECTRA
-----------------------------

Center of mass = (  2.5309,  0.3445,  0.0436)
Calculating the Dipole integrals                  ... done
Transforming integrals                            ... done
Calculating the Linear Momentum integrals         ... done
Transforming integrals                            ... done
Calculating angular momentum integrals            ... done
Transforming integrals                            ... done

-----------------------------------------------------------------------------
         ABSORPTION SPECTRUM VIA TRANSITION ELECTRIC DIPOLE MOMENTS
-----------------------------------------------------------------------------
State   Energy    Wavelength  fosc         T2        TX        TY        TZ  
        (cm-1)      (nm)                 (au**2)    (au)      (au)      (au) 
-----------------------------------------------------------------------------
   1   19673.4    508.3   1.965647855  32.89294   5.73413   0.03062   0.10820
   2   29336.0    340.9   0.016910182   0.18977   0.25571   0.27414   0.22187
   3   29720.3    336.5   0.078923451   0.87424  -0.37630  -0.72578  -0.45373
   4   29199.9    342.5   0.004082373   0.04603   0.05657   0.18969  -0.08273
   5   29857.1    334.9   0.054812575   0.60438   0.76673  -0.11984  -0.04632
   6   32876.2    304.2   0.087525976   0.87646   0.67534   0.49242   0.42178
   7   37006.1    270.2   0.006903835   0.06142  -0.01692  -0.02057   0.24639
   8   36668.7    272.7   0.047149055   0.42330   0.49243   0.30056   0.30080
   9   37360.4    267.7   0.009615530   0.08473   0.22422   0.17661   0.05711
  10   39498.5    253.2   0.010342929   0.08621   0.03536   0.18866   0.22218

-----------------------------------------------------------------------------
         ABSORPTION SPECTRUM VIA TRANSITION VELOCITY DIPOLE MOMENTS
-----------------------------------------------------------------------------
State   Energy    Wavelength   fosc        P2         PX        PY        PZ  
        (cm-1)      (nm)                 (au**2)     (au)      (au)      (au) 
-----------------------------------------------------------------------------
   1   19673.4    508.3   1.917615732   0.25784  -0.50681  -0.02155  -0.02283
   2   29336.0    340.9   0.021548061   0.00432   0.02154   0.05128   0.03502
   3   29720.3    336.5   0.027008708   0.00549   0.07359  -0.00152  -0.00828
   4   29199.9    342.5   0.003085228   0.00062  -0.00776   0.01476  -0.01838
   5   29857.1    334.9   0.039551902   0.00807  -0.08806   0.01555   0.00862
   6   32876.2    304.2   0.045821312   0.01030  -0.09884   0.02193   0.00676
   7   37006.1    270.2   0.005415857   0.00137   0.00267  -0.00170  -0.03687
   8   36668.7    272.7   0.018571434   0.00465  -0.06371   0.02336   0.00706
   9   37360.4    267.7   0.005032744   0.00129  -0.02958   0.01046   0.01734
  10   39498.5    253.2   0.003354675   0.00091  -0.00496  -0.01699  -0.02434

-------------------------------------------------------------------
                             CD SPECTRUM
-------------------------------------------------------------------
State  Energy     Wavelength     R         MX        MY        MZ   
       (cm-1)       (nm)     (1e40*cgs)   (au)      (au)      (au)  
-------------------------------------------------------------------
   1   19673.4    508.3     58.49849   0.02368   0.00736  -0.11005
   2   29336.0    340.9     -4.37386   0.01172   0.29850  -0.42415
   3   29720.3    336.5      6.36447  -0.02205  -0.04764   0.06474
   4   29199.9    342.5     -7.08336  -0.06316  -0.10191  -0.09523
   5   29857.1    334.9     -3.53739  -0.00420   0.10563  -0.18085
   6   32876.2    304.2     22.22773   0.00470  -0.22136   0.36269
   7   37006.1    270.2     -8.36249   0.02543   0.25267  -0.04915
   8   36668.7    272.7     -2.01316  -0.04333   0.03797   0.01880
   9   37360.4    267.7    -13.25231  -0.01371  -0.13072  -0.03411
  10   39498.5    253.2      2.43229  -0.04661   0.16836  -0.11232

-------------------------------------------------------------------
         CD SPECTRUM VIA TRANSITION VELOCITY DIPOLE MOMENTS        
-------------------------------------------------------------------
State  Energy     Wavelength     R         MX        MY        MZ   
       (cm-1)       (nm)     (1e40*cgs)   (au)      (au)      (au)  
-------------------------------------------------------------------
   1   19673.4    508.3    -50.73184   0.02368   0.00736  -0.11005
   2   29336.0    340.9      2.49313   0.01172   0.29850  -0.42415
   3   29720.3    336.5     -7.26132  -0.02205  -0.04764   0.06474
   4   29199.9    342.5      2.60982  -0.06316  -0.10191  -0.09523
   5   29857.1    334.9      1.57369  -0.00420   0.10563  -0.18085
   6   32876.2    304.2     -9.02597   0.00470  -0.22136   0.36269
   7   37006.1    270.2      4.05676   0.02543   0.25267  -0.04915
   8   36668.7    272.7     10.66587  -0.04333   0.03797   0.01880
   9   37360.4    267.7     -4.30061  -0.01371  -0.13072  -0.03411
  10   39498.5    253.2      0.27279  -0.04661   0.16836  -0.11232

Total run time:    23428.631 sec

           *** ORCA-CIS/TD-DFT FINISHED WITHOUT ERROR ***

Maximum memory used throughout the entire CIS-calculation: 2986.3 MB

-----------------------
CIS/TD-DFT TOTAL ENERGY
-----------------------

    E(SCF)  =  -1427.457179275 Eh
    DE(CIS) =      0.089638442 Eh (Root  1)
    ----------------------------- ---------
    E(tot)  =  -1427.367540833 Eh



-------------------------------------------------------------------------------
                          DFT DISPERSION CORRECTION                            
                                                                               
                              DFTD3 V3.1  Rev 1                                
                          USING Becke-Johnson damping                          
-------------------------------------------------------------------------------
The B2PLYP functional is recognized
Active option DFTDOPT                   ...         4   

molecular C6(AA) [au] = 27132.792177 


            DFT-D V3
 parameters
 s6 scaling factor         :     0.6400 
 a1 scaling factor         :     0.3065 
 s8 scaling factor         :     0.9147 
 a2 scaling factor         :     5.0570 
 ad hoc parameters k1-k3   :    16.0000     1.3333    -4.0000 

 Edisp/kcal,au: -30.684487896292  -0.048898838809 
 E6   /kcal   : -17.116233275 
 E8   /kcal   : -13.568254621 
 % E8         :  44.218611916 

-------------------------   ----------------
Dispersion correction           -0.048898839
-------------------------   ----------------


-------------------------   --------------------
FINAL SINGLE POINT ENERGY     -1427.416439671400
-------------------------   --------------------


                            ***************************************
                            *     ORCA property calculations      *
                            ***************************************


  WARNING: The energy has been calculated at the MP2 level but the densities
           used in the property calculations are still SCF densities
           MP2 response densities have not been calculated 
           use %mp2 Density relaxed end
           or  %mp2 Density unrelaxed end

                                    ---------------------
                                    Active property flags
                                    ---------------------
   (+) Dipole Moment


------------------------------------------------------------------------------
                       ORCA ELECTRIC PROPERTIES CALCULATION
------------------------------------------------------------------------------

Dipole Moment Calculation                       ... on
Quadrupole Moment Calculation                   ... off
Polarizability Calculation                      ... off
GBWName                                         ... optpbed3-b2plyp-test-236_job2.gbw
Electron density                                ... optpbed3-b2plyp-test-236_job2.scfp
The origin for moment calculation is the CENTER OF MASS  = ( 2.530912,  0.344477  0.043629)

-------------
DIPOLE MOMENT
-------------
                                X             Y             Z
Electronic contribution:     53.96659       6.02956       4.23267
Nuclear contribution   :    -58.58895      -5.75703      -4.02187
                        -----------------------------------------
Total Dipole Moment    :     -4.62237       0.27253       0.21079
                        -----------------------------------------
Magnitude (a.u.)       :      4.63519
Magnitude (Debye)      :     11.78171



--------------------
Rotational spectrum 
--------------------
 
Rotational constants in cm-1:     0.025985     0.001689     0.001599 
Rotational constants in MHz :   779.019548    50.627955    47.949274 

 Dipole components along the rotational axes: 
x,y,z [a.u.] :     4.612372     0.438463     0.136899 
x,y,z [Debye]:    11.723718     1.114483     0.347970 

 

Timings for individual modules:

Sum of individual times         ...    29861.760 sec (= 497.696 min)
GTO integral calculation        ...        8.856 sec (=   0.148 min)   0.0 %
SCF iterations                  ...     2117.453 sec (=  35.291 min)   7.1 %
MP2 module                      ...     4305.715 sec (=  71.762 min)  14.4 %
CIS module                      ...    23429.736 sec (= 390.496 min)  78.5 %



                             ****ORCA TERMINATED NORMALLY****
TOTAL RUN TIME: 0 days 12 hours 31 minutes 0 seconds 573 msec
