
                                 *****************
                                 * O   R   C   A *
                                 *****************

                                            #,                                       
                                            ###                                      
                                            ####                                     
                                            #####                                    
                                            ######                                   
                                           ########,                                 
                                     ,,################,,,,,                         
                               ,,#################################,,                 
                          ,,##########################################,,             
                       ,#########################################, ''#####,          
                    ,#############################################,,   '####,        
                  ,##################################################,,,,####,       
                ,###########''''           ''''###############################       
              ,#####''   ,,,,##########,,,,          '''####'''          '####       
            ,##' ,,,,###########################,,,                        '##       
           ' ,,###''''                  '''############,,,                           
         ,,##''                                '''############,,,,        ,,,,,,###''
      ,#''                                            '''#######################'''  
     '                                                          ''''####''''         
             ,#######,   #######,   ,#######,      ##                                
            ,#'     '#,  ##    ##  ,#'     '#,    #''#        ######   ,####,        
            ##       ##  ##   ,#'  ##            #'  '#       #        #'  '#        
            ##       ##  #######   ##           ,######,      #####,   #    #        
            '#,     ,#'  ##    ##  '#,     ,#' ,#      #,         ##   #,  ,#        
             '#######'   ##     ##  '#######'  #'      '#     #####' # '####'        



                  #######################################################
                  #                        -***-                        #
                  #          Department of theory and spectroscopy      #
                  #    Directorship and core code : Frank Neese         #
                  #        Max Planck Institute fuer Kohlenforschung    #
                  #                Kaiser Wilhelm Platz 1               #
                  #                 D-45470 Muelheim/Ruhr               #
                  #                      Germany                        #
                  #                                                     #
                  #                  All rights reserved                #
                  #                        -***-                        #
                  #######################################################


                         Program Version 5.0.2 -  RELEASE  -


 With contributions from (in alphabetic order):
   Daniel Aravena         : Magnetic Suceptibility
   Michael Atanasov       : Ab Initio Ligand Field Theory (pilot matlab implementation)
   Alexander A. Auer      : GIAO ZORA, VPT2 properties, NMR spectrum
   Ute Becker             : Parallelization
   Giovanni Bistoni       : ED, misc. LED, open-shell LED, HFLD
   Martin Brehm           : Molecular dynamics
   Dmytro Bykov           : SCF Hessian
   Vijay G. Chilkuri      : MRCI spin determinant printing, contributions to CSF-ICE
   Dipayan Datta          : RHF DLPNO-CCSD density
   Achintya Kumar Dutta   : EOM-CC, STEOM-CC
   Dmitry Ganyushin       : Spin-Orbit,Spin-Spin,Magnetic field MRCI
   Miquel Garcia          : C-PCM and meta-GGA Hessian, CC/C-PCM, Gaussian charge scheme
   Yang Guo               : DLPNO-NEVPT2, F12-NEVPT2, CIM, IAO-localization
   Andreas Hansen         : Spin unrestricted coupled pair/coupled cluster methods
   Benjamin Helmich-Paris : MC-RPA, TRAH-SCF, COSX integrals
   Lee Huntington         : MR-EOM, pCC
   Robert Izsak           : Overlap fitted RIJCOSX, COSX-SCS-MP3, EOM
   Marcus Kettner         : VPT2
   Christian Kollmar      : KDIIS, OOCD, Brueckner-CCSD(T), CCSD density, CASPT2, CASPT2-K
   Simone Kossmann        : Meta GGA functionals, TD-DFT gradient, OOMP2, MP2 Hessian
   Martin Krupicka        : Initial AUTO-CI
   Lucas Lang             : DCDCAS
   Marvin Lechner         : AUTO-CI (C++ implementation), FIC-MRCC
   Dagmar Lenk            : GEPOL surface, SMD
   Dimitrios Liakos       : Extrapolation schemes; Compound Job, initial MDCI parallelization
   Dimitrios Manganas     : Further ROCIS development; embedding schemes
   Dimitrios Pantazis     : SARC Basis sets
   Anastasios Papadopoulos: AUTO-CI, single reference methods and gradients
   Taras Petrenko         : DFT Hessian,TD-DFT gradient, ASA, ECA, R-Raman, ABS, FL, XAS/XES, NRVS
   Peter Pinski           : DLPNO-MP2, DLPNO-MP2 Gradient
   Christoph Reimann      : Effective Core Potentials
   Marius Retegan         : Local ZFS, SOC
   Christoph Riplinger    : Optimizer, TS searches, QM/MM, DLPNO-CCSD(T), (RO)-DLPNO pert. Triples
   Tobias Risthaus        : Range-separated hybrids, TD-DFT gradient, RPA, STAB
   Michael Roemelt        : Original ROCIS implementation
   Masaaki Saitow         : Open-shell DLPNO-CCSD energy and density
   Barbara Sandhoefer     : DKH picture change effects
   Avijit Sen             : IP-ROCIS
   Kantharuban Sivalingam : CASSCF convergence, NEVPT2, FIC-MRCI
   Bernardo de Souza      : ESD, SOC TD-DFT
   Georgi Stoychev        : AutoAux, RI-MP2 NMR, DLPNO-MP2 response
   Willem Van den Heuvel  : Paramagnetic NMR
   Boris Wezisla          : Elementary symmetry handling
   Frank Wennmohs         : Technical directorship


 We gratefully acknowledge several colleagues who have allowed us to
 interface, adapt or use parts of their codes:
   Stefan Grimme, W. Hujo, H. Kruse, P. Pracht,  : VdW corrections, initial TS optimization,
                  C. Bannwarth, S. Ehlert          DFT functionals, gCP, sTDA/sTD-DF
   Ed Valeev, F. Pavosevic, A. Kumar             : LibInt (2-el integral package), F12 methods
   Garnet Chan, S. Sharma, J. Yang, R. Olivares  : DMRG
   Ulf Ekstrom                                   : XCFun DFT Library
   Mihaly Kallay                                 : mrcc  (arbitrary order and MRCC methods)
   Jiri Pittner, Ondrej Demel                    : Mk-CCSD
   Frank Weinhold                                : gennbo (NPA and NBO analysis)
   Christopher J. Cramer and Donald G. Truhlar   : smd solvation model
   Lars Goerigk                                  : TD-DFT with DH, B97 family of functionals
   V. Asgeirsson, H. Jonsson                     : NEB implementation
   FAccTs GmbH                                   : IRC, NEB, NEB-TS, DLPNO-Multilevel, CI-OPT
                                                   MM, QMMM, 2- and 3-layer-ONIOM, Crystal-QMMM,
                                                   LR-CPCM, SF, NACMEs, symmetry and pop. for TD-DFT,
                                                   nearIR, NL-DFT gradient (VV10), updates on ESD,
                                                   ML-optimized integration grids
   S Lehtola, MJT Oliveira, MAL Marques          : LibXC Library
   Liviu Ungur et al                             : ANISO software


 Your calculation uses the libint2 library for the computation of 2-el integrals
 For citations please refer to: http://libint.valeyev.net

 Your ORCA version has been built with support for libXC version: 5.1.0
 For citations please refer to: https://tddft.org/programs/libxc/

 This ORCA versions uses:
   CBLAS   interface :  Fast vector & matrix operations
   LAPACKE interface :  Fast linear algebra routines
   SCALAPACK package :  Parallel linear algebra routines
   Shared memory     :  Shared parallel matrices
   BLAS/LAPACK       :  OpenBLAS 0.3.15  USE64BITINT DYNAMIC_ARCH NO_AFFINITY Sandybridge SINGLE_THREADED
        Core in use  :  Sandybridge
   Copyright (c) 2011-2014, The OpenBLAS Project


Your calculation utilizes the atom-pairwise dispersion correction
with the Becke-Johnson damping scheme (D3BJ)
Cite in your paper:
S.Grimme, S.Ehrlich, L.Goerigk, J Comput Chem, (2011), 32, 1456–1465 
S.Grimme, J.Antony, S.Ehrlich and H.Krieg, J.Chem.Phys., 132, (2010), 154104 
   

Your calculation utilizes the SMD solvation module
Please cite in your paper:
A.V. Marenich, C.J. Cramer, D.G. Truhlar J. Phys. Chem. B, 113, (2009), 6378 

================================================================================

----- Orbital basis set information -----
Your calculation utilizes the basis: aug-cc-pVTZ 
    H, B-Ne : Obtained from the ccRepo (grant-hill.group.shef.ac.uk/ccrepo) Feb. 2017
              R. A. Kendall, T. H. Dunning, Jr., R. J. Harrison, J. Chem. Phys. 96, 6796 (1992)
         He : Obtained from the ccRepo (grant-hill.group.shef.ac.uk/ccrepo) Feb. 2017
              D. E. Woon, T. H. Dunning, Jr., J. Chem. Phys. 100, 2975 (1994)
  Li-Be, Na : Obtained from the ccRepo (grant-hill.group.shef.ac.uk/ccrepo) Feb. 2017
              B. P. Prascher, D. E. Woon, K. A. Peterson, T. H. Dunning, Jr., A. K. Wilson, Theor. Chem. Acc. 128, 69 (2011)
         Mg : Obtained from the Peterson Research Group Website (tyr0.chem.wsu.edu/~kipeters) Feb. 2017
              B. P. Prascher, D. E. Woon, K. A. Peterson, T. H. Dunning, Jr., A. K. Wilson, Theor. Chem. Acc. 128, 69 (2011)
      Al-Ar : Obtained from the ccRepo (grant-hill.group.shef.ac.uk/ccrepo) Feb. 2017
              D. E. Woon, T. H. Dunning, Jr., J. Chem. Phys. 98, 1358 (1993)
      Sc-Zn : Obtained from the ccRepo (grant-hill.group.shef.ac.uk/ccrepo) Feb. 2017
              N. B. Balabanov, K. A. Peterson, J. Chem. Phys. 123, 064107 (2005)
              N. B. Balabanov, K. A. Peterson, J. Chem. Phys. 125, 074110 (2006)
      Ga-Kr : Obtained from the ccRepo (grant-hill.group.shef.ac.uk/ccrepo) Feb. 2017
              A. K. Wilson, D. E. Woon, K. A. Peterson, T. H. Dunning, Jr., J. Chem. Phys. 110, 7667 (1999)
     Ag, Au : Obtained from the Peterson Research Group Website (tyr0.chem.wsu.edu/~kipeters) Feb. 2017
              K. A. Peterson, C. Puzzarini, Theor. Chem. Acc. 114, 283 (2005)

The basis set includes element-specific modifications.

Your calculation utilizes the basis: cc-pVTZ 
       H, B-Ne : Obtained from the ccRepo (grant-hill.group.shef.ac.uk/ccrepo) Feb. 2017
                 T. H. Dunning, Jr., J. Chem. Phys. 90, 1007 (1989)
            He : Obtained from the ccRepo (grant-hill.group.shef.ac.uk/ccrepo) Feb. 2017
                 D. E. Woon, T. H. Dunning, Jr., J. Chem. Phys. 100, 2975 (1994)
  Li-Be, Na-Mg : Obtained from the ccRepo (grant-hill.group.shef.ac.uk/ccrepo) Feb. 2017
                 B. P. Prascher, D. E. Woon, K. A. Peterson, T. H. Dunning, Jr., A. K. Wilson, Theor. Chem. Acc. 128, 69 (2011)
         Al-Ar : Obtained from the ccRepo (grant-hill.group.shef.ac.uk/ccrepo) Feb. 2017
                 D. E. Woon, T. H. Dunning, Jr., J. Chem. Phys. 98, 1358 (1993)
            Ca : Obtained from the Peterson Research Group Website (tyr0.chem.wsu.edu/~kipeters) Feb. 2017
                 J. Koput, K. A. Peterson, J. Phys. Chem. 106, 9595 (2002)
         Sc-Zn : Obtained from the ccRepo (grant-hill.group.shef.ac.uk/ccrepo) Feb. 2017
                 N. B. Balabanov, K. A. Peterson, J. Chem. Phys. 123, 064107 (2005)
                 N. B. Balabanov, K. A. Peterson, J. Chem. Phys. 125, 074110 (2006)
         Ga-Kr : Obtained from the ccRepo (grant-hill.group.shef.ac.uk/ccrepo) Feb. 2017
                 A. K. Wilson, D. E. Woon, K. A. Peterson, T. H. Dunning, Jr., J. Chem. Phys. 110, 7667 (1999)
             Y : Obtained from the ccRepo (grant-hill.group.shef.ac.uk/ccrepo) Feb. 2017
                 K. A. Peterson, D. Figgen, M. Dolg, H. Stoll, J. Chem. Phys. 126, 124101 (2007)
        Ag, Au : Obtained from the Peterson Research Group Website (tyr0.chem.wsu.edu/~kipeters) Feb. 2017
                 K. A. Peterson, C. Puzzarini, Theor. Chem. Acc. 114, 283 (2005)

----- AuxJ basis set information -----
Your calculation utilizes the auxiliary basis: aug-cc-pVTZ/JK 
  H, B-F, Al-Cl, Ga-Br : Obtained from the TURBOMOLE 7.0 basis set library

The basis set includes element-specific modifications.

Your calculation utilizes the auxiliary basis: cc-pVTZ/JK 
  H, B-F, Al-Cl, Ga-Br : Obtained from the TURBOMOLE 7.0 basis set library

----- AuxC basis set information -----
Your calculation utilizes the auxiliary basis: aug-cc-pVTZ/C 
  H-He, B-F, Al-Ar, Ga-Kr : Obtained from the EMSL Basis Set Exchange (bse.pnl.gov) Feb. 2017
                            F. Weigend, A. Kohn, C. Hattig, J. Chem. Phys. 116, 3175 (2002)
                   Be, Mg : Obtained from the TURBOMOLE 7.0 basis set library
                            C. Haettig, Phys. Chem. Chem. Phys. 7, 59 (2005)
                       Ne : Obtained from the EMSL Basis Set Exchange (bse.pnl.gov) Feb. 2017
                            C. Haettig, Phys. Chem. Chem. Phys. 7, 59 (2005)
                            F. Weigend, A. Kohn, C. Hattig, J. Chem. Phys. 116, 3175 (2002)
                    Sc-Zn : Obtained from the EMSL Basis Set Exchange (bse.pnl.gov) Feb. 2017
                            J. G. Hill, J. A. Platts, J. Chem. Phys. 128, 044104 (2008)

The basis set includes element-specific modifications.

Your calculation utilizes the auxiliary basis: cc-pVTZ/C 
  Obtained from the EMSL Basis Set Exchange (bse.pnl.gov) Feb. 2017
  H-He, B-F, Al-Ar, Ga-Kr : F. Weigend, A. Kohn, C. Hattig, J. Chem. Phys. 116, 3175 (2002)
             Li-Be, Na-Mg : C. Haettig, Phys. Chem. Chem. Phys. 7, 59 (2005)
                       Ne : C. Haettig, Phys. Chem. Chem. Phys. 7, 59 (2005)
                            F. Weigend, A. Kohn, C. Hattig, J. Chem. Phys. 116, 3175 (2002)
                    Sc-Zn : J. G. Hill, J. A. Platts, J. Chem. Phys. 128, 044104 (2008)

================================================================================
                                        WARNINGS
                       Please study these warnings very carefully!
================================================================================


WARNING: Geometry Optimization
  ===> : Switching off AutoStart
         For restart on a previous wavefunction, please use MOREAD

INFO   : the flag for use of the SHARK integral package has been found!



***************************************
The coordinates will be read from file: 
***************************************


Your calculation utilizes the atom-pairwise dispersion correction
with the Becke-Johnson damping scheme (D3BJ)
Cite in your paper:
S.Grimme, S.Ehrlich, L.Goerigk, J Comput Chem, (2011), 32, 1456–1465 
S.Grimme, J.Antony, S.Ehrlich and H.Krieg, J.Chem.Phys., 132, (2010), 154104 
   

Your calculation utilizes the SMD solvation module
Please cite in your paper:
A.V. Marenich, C.J. Cramer, D.G. Truhlar J. Phys. Chem. B, 113, (2009), 6378 

================================================================================

----- Orbital basis set information -----
Your calculation utilizes the basis: aug-cc-pVTZ 
    H, B-Ne : Obtained from the ccRepo (grant-hill.group.shef.ac.uk/ccrepo) Feb. 2017
              R. A. Kendall, T. H. Dunning, Jr., R. J. Harrison, J. Chem. Phys. 96, 6796 (1992)
         He : Obtained from the ccRepo (grant-hill.group.shef.ac.uk/ccrepo) Feb. 2017
              D. E. Woon, T. H. Dunning, Jr., J. Chem. Phys. 100, 2975 (1994)
  Li-Be, Na : Obtained from the ccRepo (grant-hill.group.shef.ac.uk/ccrepo) Feb. 2017
              B. P. Prascher, D. E. Woon, K. A. Peterson, T. H. Dunning, Jr., A. K. Wilson, Theor. Chem. Acc. 128, 69 (2011)
         Mg : Obtained from the Peterson Research Group Website (tyr0.chem.wsu.edu/~kipeters) Feb. 2017
              B. P. Prascher, D. E. Woon, K. A. Peterson, T. H. Dunning, Jr., A. K. Wilson, Theor. Chem. Acc. 128, 69 (2011)
      Al-Ar : Obtained from the ccRepo (grant-hill.group.shef.ac.uk/ccrepo) Feb. 2017
              D. E. Woon, T. H. Dunning, Jr., J. Chem. Phys. 98, 1358 (1993)
      Sc-Zn : Obtained from the ccRepo (grant-hill.group.shef.ac.uk/ccrepo) Feb. 2017
              N. B. Balabanov, K. A. Peterson, J. Chem. Phys. 123, 064107 (2005)
              N. B. Balabanov, K. A. Peterson, J. Chem. Phys. 125, 074110 (2006)
      Ga-Kr : Obtained from the ccRepo (grant-hill.group.shef.ac.uk/ccrepo) Feb. 2017
              A. K. Wilson, D. E. Woon, K. A. Peterson, T. H. Dunning, Jr., J. Chem. Phys. 110, 7667 (1999)
     Ag, Au : Obtained from the Peterson Research Group Website (tyr0.chem.wsu.edu/~kipeters) Feb. 2017
              K. A. Peterson, C. Puzzarini, Theor. Chem. Acc. 114, 283 (2005)

The basis set includes element-specific modifications.

Your calculation utilizes the basis: cc-pVTZ 
       H, B-Ne : Obtained from the ccRepo (grant-hill.group.shef.ac.uk/ccrepo) Feb. 2017
                 T. H. Dunning, Jr., J. Chem. Phys. 90, 1007 (1989)
            He : Obtained from the ccRepo (grant-hill.group.shef.ac.uk/ccrepo) Feb. 2017
                 D. E. Woon, T. H. Dunning, Jr., J. Chem. Phys. 100, 2975 (1994)
  Li-Be, Na-Mg : Obtained from the ccRepo (grant-hill.group.shef.ac.uk/ccrepo) Feb. 2017
                 B. P. Prascher, D. E. Woon, K. A. Peterson, T. H. Dunning, Jr., A. K. Wilson, Theor. Chem. Acc. 128, 69 (2011)
         Al-Ar : Obtained from the ccRepo (grant-hill.group.shef.ac.uk/ccrepo) Feb. 2017
                 D. E. Woon, T. H. Dunning, Jr., J. Chem. Phys. 98, 1358 (1993)
            Ca : Obtained from the Peterson Research Group Website (tyr0.chem.wsu.edu/~kipeters) Feb. 2017
                 J. Koput, K. A. Peterson, J. Phys. Chem. 106, 9595 (2002)
         Sc-Zn : Obtained from the ccRepo (grant-hill.group.shef.ac.uk/ccrepo) Feb. 2017
                 N. B. Balabanov, K. A. Peterson, J. Chem. Phys. 123, 064107 (2005)
                 N. B. Balabanov, K. A. Peterson, J. Chem. Phys. 125, 074110 (2006)
         Ga-Kr : Obtained from the ccRepo (grant-hill.group.shef.ac.uk/ccrepo) Feb. 2017
                 A. K. Wilson, D. E. Woon, K. A. Peterson, T. H. Dunning, Jr., J. Chem. Phys. 110, 7667 (1999)
             Y : Obtained from the ccRepo (grant-hill.group.shef.ac.uk/ccrepo) Feb. 2017
                 K. A. Peterson, D. Figgen, M. Dolg, H. Stoll, J. Chem. Phys. 126, 124101 (2007)
        Ag, Au : Obtained from the Peterson Research Group Website (tyr0.chem.wsu.edu/~kipeters) Feb. 2017
                 K. A. Peterson, C. Puzzarini, Theor. Chem. Acc. 114, 283 (2005)

----- AuxJ basis set information -----
Your calculation utilizes the auxiliary basis: aug-cc-pVTZ/JK 
  H, B-F, Al-Cl, Ga-Br : Obtained from the TURBOMOLE 7.0 basis set library

The basis set includes element-specific modifications.

Your calculation utilizes the auxiliary basis: cc-pVTZ/JK 
  H, B-F, Al-Cl, Ga-Br : Obtained from the TURBOMOLE 7.0 basis set library

----- AuxC basis set information -----
Your calculation utilizes the auxiliary basis: aug-cc-pVTZ/C 
  H-He, B-F, Al-Ar, Ga-Kr : Obtained from the EMSL Basis Set Exchange (bse.pnl.gov) Feb. 2017
                            F. Weigend, A. Kohn, C. Hattig, J. Chem. Phys. 116, 3175 (2002)
                   Be, Mg : Obtained from the TURBOMOLE 7.0 basis set library
                            C. Haettig, Phys. Chem. Chem. Phys. 7, 59 (2005)
                       Ne : Obtained from the EMSL Basis Set Exchange (bse.pnl.gov) Feb. 2017
                            C. Haettig, Phys. Chem. Chem. Phys. 7, 59 (2005)
                            F. Weigend, A. Kohn, C. Hattig, J. Chem. Phys. 116, 3175 (2002)
                    Sc-Zn : Obtained from the EMSL Basis Set Exchange (bse.pnl.gov) Feb. 2017
                            J. G. Hill, J. A. Platts, J. Chem. Phys. 128, 044104 (2008)

The basis set includes element-specific modifications.

Your calculation utilizes the auxiliary basis: cc-pVTZ/C 
  Obtained from the EMSL Basis Set Exchange (bse.pnl.gov) Feb. 2017
  H-He, B-F, Al-Ar, Ga-Kr : F. Weigend, A. Kohn, C. Hattig, J. Chem. Phys. 116, 3175 (2002)
             Li-Be, Na-Mg : C. Haettig, Phys. Chem. Chem. Phys. 7, 59 (2005)
                       Ne : C. Haettig, Phys. Chem. Chem. Phys. 7, 59 (2005)
                            F. Weigend, A. Kohn, C. Hattig, J. Chem. Phys. 116, 3175 (2002)
                    Sc-Zn : J. G. Hill, J. A. Platts, J. Chem. Phys. 128, 044104 (2008)

================================================================================
                                        WARNINGS
                       Please study these warnings very carefully!
================================================================================

INFO   : Checking CIS options ...
  ===> : (D) CORRECTION FOUND - SETTING MODE=3
  ===> : JK MODE FOUND - ACTIVATING RI-MP2 CODE
  ===> : MP2 AND CIS FOUND - CHECKING
WARNING: CIS(D) and MP2 runs must have the same orbital window
  ===> : adjusting orbital windows

WARNING: No MP2 level density has been requested!
         To caclulate MP2 level properties use
         %mp2 Density relaxed end
         or
         %mp2 Density unrelaxed end
         Otherwise for double-hybrid DFT only the energy is correct!

WARNING: The frozen-core approximation is turned on by default for 
         the MP2 part of double-hybrid DFT.

INFO   : the flag for use of the SHARK integral package has been found!

================================================================================
                                       INPUT FILE
================================================================================
NAME = optpbed3-b2plyp-test-30.inp
|  1> ! pbe0 d3bj aug-cc-PVTZ RIJCOSX Opt
|  2> %maxcore 4000
|  3> %basis
|  4>  AuxJ "aug-cc-PVTZ/JK"
|  5>  AuxC "aug-cc-PVTZ/C"
|  6>  newGTO H "cc-PVTZ" end
|  7>  newAuxJGTO H "cc-PVTZ/JK" end
|  8>  newAuxCGTO H "cc-PVTZ/C" end
|  9> end
| 10> %cpcm
| 11>  SMD true
| 12>  SMDsolvent "tetrahydrofuran"
| 13> end
| 14> %pal nprocs 4 end
| 15> * xyz 0 1
| 16> O         -0.50410       -1.13190        2.62280
| 17> C         -1.06580       -0.69750        1.65870
| 18> O         -2.43760       -0.65950        1.68720
| 19> C         -3.19360       -0.19530        0.67020
| 20> C         -4.57860       -0.21000        0.82280
| 21> C         -5.37930        0.25740       -0.19770
| 22> C         -4.81710        0.74290       -1.37710
| 23> C         -3.45130        0.76070       -1.53540
| 24> C         -2.61480        0.29180       -0.51410
| 25> C         -1.19280        0.27700       -0.60130
| 26> C         -0.43580       -0.19200        0.42680
| 27> C          1.00420       -0.20750        0.33990
| 28> N          1.84030       -0.62160        1.23330
| 29> C          3.08120       -0.43450        0.69130
| 30> C          4.35330       -0.69410        1.18760
| 31> C          5.42170       -0.38360        0.37270
| 32> C          5.24390        0.16820       -0.89780
| 33> C          3.98730        0.43420       -1.41020
| 34> C          2.91480        0.12410       -0.59600
| 35> O          1.58510        0.26500       -0.81060
| 36> H         -4.99500       -0.58920        1.74200
| 37> H         -6.45210        0.24670       -0.08120
| 38> H         -5.45810        1.10500       -2.16610
| 39> H         -3.00400        1.13440       -2.44420
| 40> H         -0.71880        0.64540       -1.50010
| 41> H          4.48040       -1.11990        2.16880
| 42> H          6.42630       -0.57020        0.72150
| 43> H          6.11280        0.39370       -1.49740
| 44> H          3.84710        0.86020       -2.39070
| 45> *
| 46> 
| 47> 
| 48> $new_job
| 49> ! b2plyp aug-cc-PVTZ RIJCOSX SP
| 50> %maxcore 4000
| 51> %basis
| 52>  AuxJ "aug-cc-PVTZ/JK"
| 53>  AuxC "aug-cc-PVTZ/C"
| 54>  newGTO H "cc-PVTZ" end
| 55>  newAuxJGTO H "cc-PVTZ/JK" end
| 56>  newAuxCGTO H "cc-PVTZ/C" end
| 57> end
| 58> %cpcm
| 59>  SMD true
| 60>  SMDsolvent "tetrahydrofuran"
| 61> end
| 62> %pal nprocs 4 end
| 63> %tddft
| 64>  nroots 10
| 65>  maxdim 7
| 66> end
| 67> * xyzfile 0 1
| 68> 
| 69>                          ****END OF INPUT****
================================================================================


                 $$$$$$$$$$$$$$$$$$$$$$$$$$$$$$$$$$$$$$$$$$$$$$ 
                 $ THERE ARE  2 JOBS TO BE PROCESSED THIS RUN $
                 $$$$$$$$$$$$$$$$$$$$$$$$$$$$$$$$$$$$$$$$$$$$$$ 




                 $$$$$$$$$$$$$$$$  JOB NUMBER  1 $$$$$$$$$$$$$$


                       *****************************
                       * Geometry Optimization Run *
                       *****************************

Geometry optimization settings:
Update method            Update   .... BFGS
Choice of coordinates    CoordSys .... Z-matrix Internals
Initial Hessian          InHess   .... Almoef's Model

Convergence Tolerances:
Energy Change            TolE     ....  5.0000e-06 Eh
Max. Gradient            TolMAXG  ....  3.0000e-04 Eh/bohr
RMS Gradient             TolRMSG  ....  1.0000e-04 Eh/bohr
Max. Displacement        TolMAXD  ....  4.0000e-03 bohr
RMS Displacement         TolRMSD  ....  2.0000e-03 bohr
Strict Convergence                ....  False
------------------------------------------------------------------------------
                        ORCA OPTIMIZATION COORDINATE SETUP
------------------------------------------------------------------------------

The optimization will be done in new redundant internal coordinates
Making redundant internal coordinates   ...  (new redundants) done
Evaluating the initial hessian          ...  (Almloef) done
Evaluating the coordinates              ...  done
Calculating the B-matrix                .... done
Calculating the G-matrix                .... done
Diagonalizing the G-matrix              .... done
Small eigenvalue found = 5.166e-03
Small eigenvalue found = 2.216e-02
The first mode is                       ....   78
The number of degrees of freedom        ....   81

    -----------------------------------------------------------------
                    Redundant Internal Coordinates


    -----------------------------------------------------------------
         Definition                    Initial Value    Approx d2E/dq
    -----------------------------------------------------------------
      1. B(C   1,O   0)                  1.1974         1.135538   
      2. B(O   2,C   1)                  1.3726         0.596487   
      3. B(C   3,O   2)                  1.3496         0.649229   
      4. B(C   4,C   3)                  1.3935         0.616907   
      5. B(C   5,C   4)                  1.3788         0.651114   
      6. B(C   6,C   5)                  1.3938         0.616066   
      7. B(C   7,C   6)                  1.3751         0.660050   
      8. B(C   8,C   3)                  1.4053         0.590667   
      9. B(C   8,C   7)                  1.4009         0.600168   
     10. B(C   9,C   8)                  1.4247         0.549921   
     11. B(C  10,C   9)                  1.3601         0.697216   
     12. B(C  10,C   1)                  1.4731         0.460433   
     13. B(C  11,C  10)                  1.4427         0.514819   
     14. B(N  12,C  11)                  1.2918         0.802737   
     15. B(C  13,N  12)                  1.3670         0.609005   
     16. B(C  14,C  13)                  1.3899         0.624925   
     17. B(C  15,C  14)                  1.3791         0.650293   
     18. B(C  16,C  15)                  1.3965         0.610011   
     19. B(C  17,C  16)                  1.3829         0.641358   
     20. B(C  18,C  17)                  1.3818         0.643931   
     21. B(C  18,C  13)                  1.4131         0.573954   
     22. B(O  19,C  18)                  1.3543         0.638122   
     23. B(O  19,C  11)                  1.3727         0.596279   
     24. B(H  20,C   4)                  1.0780         0.376313   
     25. B(H  21,C   5)                  1.0792         0.374729   
     26. B(H  22,C   6)                  1.0791         0.374773   
     27. B(H  23,C   7)                  1.0797         0.374054   
     28. B(H  24,C   9)                  1.0808         0.372410   
     29. B(H  25,C  14)                  1.0771         0.377531   
     30. B(H  26,C  15)                  1.0797         0.374018   
     31. B(H  27,C  16)                  1.0795         0.374238   
     32. B(H  28,C  17)                  1.0782         0.376055   
     33. A(O   2,C   1,C  10)          115.8030         0.406150   
     34. A(O   0,C   1,C  10)          126.6707         0.455901   
     35. A(O   0,C   1,O   2)          117.5263         0.474841   
     36. A(C   1,O   2,C   3)          123.6228         0.428980   
     37. A(O   2,C   3,C   8)          121.5724         0.431041   
     38. A(O   2,C   3,C   4)          118.0751         0.434422   
     39. A(C   4,C   3,C   8)          120.3525         0.429915   
     40. A(C   3,C   4,H  20)          118.7514         0.355251   
     41. A(C   5,C   4,H  20)          121.7383         0.358523   
     42. A(C   3,C   4,C   5)          119.5102         0.437517   
     43. A(C   6,C   5,H  21)          119.7207         0.354915   
     44. A(C   4,C   5,C   6)          120.6723         0.437409   
     45. A(C   4,C   5,H  21)          119.6071         0.358266   
     46. A(C   5,C   6,C   7)          120.1691         0.438486   
     47. A(C   5,C   6,H  22)          119.7327         0.354922   
     48. A(C   7,C   6,H  22)          120.0982         0.359105   
     49. A(C   8,C   7,H  23)          118.8238         0.353238   
     50. A(C   6,C   7,H  23)          120.8569         0.358988   
     51. A(C   6,C   7,C   8)          120.3193         0.436424   
     52. A(C   3,C   8,C   9)          117.3262         0.421160   
     53. A(C   7,C   8,C   9)          123.6972         0.422362   
     54. A(C   3,C   8,C   7)          118.9766         0.427799   
     55. A(C   8,C   9,C  10)          120.8508         0.433865   
     56. A(C  10,C   9,H  24)          120.1333         0.362084   
     57. A(C   8,C   9,H  24)          119.0159         0.347802   
     58. A(C   9,C  10,C  11)          120.9099         0.428755   
     59. A(C   1,C  10,C  11)          118.2653         0.398300   
     60. A(C   1,C  10,C   9)          120.8248         0.420277   
     61. A(N  12,C  11,O  19)          114.5878         0.445682   
     62. A(C  10,C  11,O  19)          117.9803         0.414241   
     63. A(C  10,C  11,N  12)          127.4319         0.436881   
     64. A(C  11,N  12,C  13)          105.6320         0.447391   
     65. A(C  14,C  13,C  18)          120.4561         0.428699   
     66. A(N  12,C  13,C  18)          107.9634         0.423942   
     67. A(N  12,C  13,C  14)          131.5805         0.430454   
     68. A(C  15,C  14,H  25)          122.4015         0.358643   
     69. A(C  13,C  14,H  25)          120.4702         0.356226   
     70. A(C  13,C  14,C  15)          117.1283         0.438437   
     71. A(C  16,C  15,H  26)          118.7285         0.354207   
     72. A(C  14,C  15,H  26)          119.4082         0.358074   
     73. A(C  14,C  15,C  16)          121.8633         0.436532   
     74. A(C  15,C  16,H  27)          119.0369         0.354242   
     75. A(C  15,C  16,C  17)          121.9237         0.435445   
     76. A(C  17,C  16,H  27)          119.0394         0.357268   
     77. A(C  16,C  17,C  18)          116.3462         0.439715   
     78. A(C  18,C  17,H  28)          121.5731         0.357806   
     79. A(C  16,C  17,H  28)          122.0807         0.357562   
     80. A(C  13,C  18,O  19)          107.5239         0.427501   
     81. A(C  13,C  18,C  17)          122.2825         0.431010   
     82. A(C  17,C  18,O  19)          130.1936         0.436431   
     83. A(C  11,O  19,C  18)          104.2929         0.427628   
     84. D(C   3,O   2,C   1,O   0)   -179.9990         0.025966   
     85. D(C   3,O   2,C   1,C  10)     -0.0074         0.025966   
     86. D(C   4,C   3,O   2,C   1)   -179.9965         0.031145   
     87. D(C   8,C   3,O   2,C   1)      0.0013         0.031145   
     88. D(C   5,C   4,C   3,O   2)    179.9974         0.026319   
     89. D(C   5,C   4,C   3,C   8)     -0.0004         0.026319   
     90. D(H  20,C   4,C   3,C   8)   -179.9961         0.026319   
     91. D(H  20,C   4,C   3,O   2)      0.0017         0.026319   
     92. D(H  21,C   5,C   4,H  20)     -0.0069         0.029525   
     93. D(H  21,C   5,C   4,C   3)    179.9975         0.029525   
     94. D(C   6,C   5,C   4,H  20)   -179.9994         0.029525   
     95. D(C   6,C   5,C   4,C   3)      0.0050         0.029525   
     96. D(H  22,C   6,C   5,C   4)    179.9957         0.026243   
     97. D(C   7,C   6,C   5,H  21)   -179.9953         0.026243   
     98. D(C   7,C   6,C   5,C   4)     -0.0028         0.026243   
     99. D(H  22,C   6,C   5,H  21)      0.0032         0.026243   
    100. D(H  23,C   7,C   6,H  22)      0.0077         0.030401   
    101. D(H  23,C   7,C   6,C   5)   -179.9938         0.030401   
    102. D(C   8,C   7,C   6,H  22)    179.9974         0.030401   
    103. D(C   8,C   7,C   6,C   5)     -0.0041         0.030401   
    104. D(C   9,C   8,C   7,H  23)     -0.0115         0.024832   
    105. D(C   3,C   8,C   7,H  23)    179.9985         0.024832   
    106. D(C   3,C   8,C   7,C   6)      0.0086         0.024832   
    107. D(C   9,C   8,C   3,C   4)   -179.9970         0.024012   
    108. D(C   9,C   8,C   3,O   2)      0.0052         0.024012   
    109. D(C   9,C   8,C   7,C   6)    179.9986         0.024832   
    110. D(C   7,C   8,C   3,C   4)     -0.0063         0.024012   
    111. D(C   7,C   8,C   3,O   2)    179.9959         0.024012   
    112. D(H  24,C   9,C   8,C   3)   -179.9999         0.020688   
    113. D(C  10,C   9,C   8,C   7)   -179.9954         0.020688   
    114. D(C  10,C   9,C   8,C   3)     -0.0052         0.020688   
    115. D(H  24,C   9,C   8,C   7)      0.0099         0.020688   
    116. D(C  11,C  10,C   9,H  24)     -0.0015         0.034214   
    117. D(C   1,C  10,C   9,H  24)    179.9937         0.034214   
    118. D(C   1,C  10,C   9,C   8)     -0.0010         0.034214   
    119. D(C  11,C  10,C   1,O   2)   -179.9975         0.014441   
    120. D(C  11,C  10,C   1,O   0)     -0.0068         0.014441   
    121. D(C  11,C  10,C   9,C   8)   -179.9962         0.034214   
    122. D(C   9,C  10,C   1,O   2)      0.0072         0.014441   
    123. D(C   9,C  10,C   1,O   0)    179.9978         0.014441   
    124. D(O  19,C  11,C  10,C   9)      0.0009         0.018068   
    125. D(O  19,C  11,C  10,C   1)   -179.9944         0.018068   
    126. D(N  12,C  11,C  10,C   9)   -179.9994         0.018068   
    127. D(N  12,C  11,C  10,C   1)      0.0052         0.018068   
    128. D(C  13,N  12,C  11,O  19)     -0.0014         0.049705   
    129. D(C  13,N  12,C  11,C  10)    179.9989         0.049705   
    130. D(C  18,C  13,N  12,C  11)      0.0004         0.027142   
    131. D(C  14,C  13,N  12,C  11)    179.9967         0.027142   
    132. D(H  25,C  14,C  13,C  18)   -179.9991         0.027050   
    133. D(H  25,C  14,C  13,N  12)      0.0050         0.027050   
    134. D(C  15,C  14,C  13,C  18)     -0.0053         0.027050   
    135. D(C  15,C  14,C  13,N  12)    179.9987         0.027050   
    136. D(H  26,C  15,C  14,H  25)     -0.0008         0.029446   
    137. D(H  26,C  15,C  14,C  13)   -179.9945         0.029446   
    138. D(C  16,C  15,C  14,H  25)    179.9987         0.029446   
    139. D(C  16,C  15,C  14,C  13)      0.0050         0.029446   
    140. D(H  27,C  16,C  15,H  26)     -0.0047         0.025700   
    141. D(H  27,C  16,C  15,C  14)    179.9958         0.025700   
    142. D(C  17,C  16,C  15,H  26)    179.9968         0.025700   
    143. D(C  17,C  16,C  15,C  14)     -0.0027         0.025700   
    144. D(H  28,C  17,C  16,C  15)    179.9975         0.028588   
    145. D(C  18,C  17,C  16,H  27)   -179.9981         0.028588   
    146. D(C  18,C  17,C  16,C  15)      0.0004         0.028588   
    147. D(H  28,C  17,C  16,H  27)     -0.0009         0.028588   
    148. D(O  19,C  18,C  17,H  28)      0.0014         0.028833   
    149. D(O  19,C  18,C  17,C  16)    179.9986         0.028833   
    150. D(C  13,C  18,C  17,H  28)   -179.9979         0.028833   
    151. D(C  13,C  18,C  17,C  16)     -0.0007         0.028833   
    152. D(O  19,C  18,C  13,C  14)   -179.9961         0.022611   
    153. D(O  19,C  18,C  13,N  12)      0.0007         0.022611   
    154. D(C  17,C  18,C  13,C  14)      0.0033         0.022611   
    155. D(C  17,C  18,C  13,N  12)   -179.9999         0.022611   
    156. D(C  11,O  19,C  18,C  17)    179.9992         0.030005   
    157. D(C  11,O  19,C  18,C  13)     -0.0015         0.030005   
    158. D(C  18,O  19,C  11,N  12)      0.0019         0.025947   
    159. D(C  18,O  19,C  11,C  10)   -179.9984         0.025947   
    -----------------------------------------------------------------

Number of atoms                         .... 29
Number of degrees of freedom            .... 159

         *************************************************************
         *                GEOMETRY OPTIMIZATION CYCLE   1            *
         *************************************************************
---------------------------------
CARTESIAN COORDINATES (ANGSTROEM)
---------------------------------
  O     -0.504100   -1.131900    2.622800
  C     -1.065800   -0.697500    1.658700
  O     -2.437600   -0.659500    1.687200
  C     -3.193600   -0.195300    0.670200
  C     -4.578600   -0.210000    0.822800
  C     -5.379300    0.257400   -0.197700
  C     -4.817100    0.742900   -1.377100
  C     -3.451300    0.760700   -1.535400
  C     -2.614800    0.291800   -0.514100
  C     -1.192800    0.277000   -0.601300
  C     -0.435800   -0.192000    0.426800
  C      1.004200   -0.207500    0.339900
  N      1.840300   -0.621600    1.233300
  C      3.081200   -0.434500    0.691300
  C      4.353300   -0.694100    1.187600
  C      5.421700   -0.383600    0.372700
  C      5.243900    0.168200   -0.897800
  C      3.987300    0.434200   -1.410200
  C      2.914800    0.124100   -0.596000
  O      1.585100    0.265000   -0.810600
  H     -4.995000   -0.589200    1.742000
  H     -6.452100    0.246700   -0.081200
  H     -5.458100    1.105000   -2.166100
  H     -3.004000    1.134400   -2.444200
  H     -0.718800    0.645400   -1.500100
  H      4.480400   -1.119900    2.168800
  H      6.426300   -0.570200    0.721500
  H      6.112800    0.393700   -1.497400
  H      3.847100    0.860200   -2.390700

----------------------------
CARTESIAN COORDINATES (A.U.)
----------------------------
  NO LB      ZA    FRAG     MASS         X           Y           Z
   0 O     8.0000    0    15.999   -0.952611   -2.138981    4.956374
   1 C     6.0000    0    12.011   -2.014070   -1.318084    3.134489
   2 O     8.0000    0    15.999   -4.606396   -1.246274    3.188346
   3 C     6.0000    0    12.011   -6.035029   -0.369064    1.266494
   4 C     6.0000    0    12.011   -8.652300   -0.396842    1.554867
   5 C     6.0000    0    12.011  -10.165404    0.486416   -0.373599
   6 C     6.0000    0    12.011   -9.103000    1.403878   -2.602342
   7 C     6.0000    0    12.011   -6.522012    1.437515   -2.901486
   8 C     6.0000    0    12.011   -4.941256    0.551422   -0.971508
   9 C     6.0000    0    12.011   -2.254065    0.523454   -1.136292
  10 C     6.0000    0    12.011   -0.823543   -0.362827    0.806535
  11 C     6.0000    0    12.011    1.897663   -0.392118    0.642318
  12 N     7.0000    0    14.007    3.477663   -1.174654    2.330599
  13 C     6.0000    0    12.011    5.822624   -0.821086    1.306368
  14 C     6.0000    0    12.011    8.226545   -1.311659    2.244239
  15 C     6.0000    0    12.011   10.245528   -0.724899    0.704301
  16 C     6.0000    0    12.011    9.909535    0.317852   -1.696596
  17 C     6.0000    0    12.011    7.534905    0.820519   -2.664892
  18 C     6.0000    0    12.011    5.508174    0.234515   -1.126277
  19 O     8.0000    0    15.999    2.995405    0.500777   -1.531812
  20 H     1.0000    0     1.008   -9.439182   -1.113427    3.291903
  21 H     1.0000    0     1.008  -12.192702    0.466195   -0.153446
  22 H     1.0000    0     1.008  -10.314314    2.088147   -4.093336
  23 H     1.0000    0     1.008   -5.676737    2.143705   -4.618869
  24 H     1.0000    0     1.008   -1.358335    1.219629   -2.834778
  25 H     1.0000    0     1.008    8.466729   -2.116304    4.098438
  26 H     1.0000    0     1.008   12.143947   -1.077522    1.363437
  27 H     1.0000    0     1.008   11.551518    0.743985   -2.829676
  28 H     1.0000    0     1.008    7.269965    1.625542   -4.517768

--------------------------------
INTERNAL COORDINATES (ANGSTROEM)
--------------------------------
 O      0   0   0     0.000000000000     0.00000000     0.00000000
 C      1   0   0     1.197371730082     0.00000000     0.00000000
 O      2   1   0     1.372622122071   117.52628003     0.00000000
 C      3   2   1     1.349557942439   123.62284380   180.00102287
 C      4   3   2     1.393458951674   118.07509957   180.00354528
 C      5   4   3     1.378768834867   119.51020529   179.99743132
 C      6   5   4     1.393830495433   120.67229197     0.00000000
 C      7   6   5     1.375058315127   120.16910116     0.00000000
 C      8   7   6     1.400947233125   120.31927500     0.00000000
 C      9   8   7     1.424748005789   123.69715942   179.99861553
 C     10   9   8     1.360146907507   120.85075428   180.00457681
 C     11  10   9     1.442702970122   120.90992935   180.00381632
 N     12  11  10     1.291783875112   127.43188649   180.00057075
 C     13  12  11     1.366968624366   105.63198664   179.99890030
 C     14  13  12     1.389943977288   131.58051815   179.99674060
 C     15  14  13     1.379112330450   117.12827489   179.99871773
 C     16  15  14     1.396519362558   121.86332872     0.00000000
 C     17  16  15     1.382878635311   121.92367885     0.00000000
 C     18  17  16     1.381788659673   116.34616564     0.00000000
 O     19  18  17     1.354255537186   130.19363179   179.99857084
 H      5   4   3     1.078012170618   118.75144981     0.00000000
 H      6   5   4     1.079160127136   119.60705635   179.99753215
 H      7   6   5     1.079128541926   119.73269952   179.99568252
 H      8   7   6     1.079651064002   120.85694519   180.00622849
 H     10   9   8     1.080849665772   119.01591495     0.00000000
 H     15  14  13     1.077132067112   120.47017728     0.00000000
 H     16  15  14     1.079676877589   119.40815564   180.00554925
 H     17  16  15     1.079517308801   119.03691533   179.99579963
 H     18  17  16     1.078198631978   122.08071182   179.99754918

---------------------------
INTERNAL COORDINATES (A.U.)
---------------------------
 O      0   0   0     0.000000000000     0.00000000     0.00000000
 C      1   0   0     2.262704650355     0.00000000     0.00000000
 O      2   1   0     2.593879896077   117.52628003     0.00000000
 C      3   2   1     2.550294913068   123.62284380   180.00102287
 C      4   3   2     2.633255797525   118.07509957   180.00354528
 C      5   4   3     2.605495499884   119.51020529   179.99743132
 C      6   5   4     2.633957913477   120.67229197     0.00000000
 C      7   6   5     2.598483633761   120.16910116     0.00000000
 C      8   7   6     2.647406598681   120.31927500     0.00000000
 C      9   8   7     2.692383540792   123.69715942   179.99861553
 C     10   9   8     2.570305157088   120.85075428   180.00457681
 C     11  10   9     2.726313506126   120.90992935   180.00381632
 N     12  11  10     2.441117748178   127.43188649   180.00057075
 C     13  12  11     2.583196333714   105.63198664   179.99890030
 C     14  13  12     2.626613458568   131.58051815   179.99674060
 C     15  14  13     2.606144612465   117.12827489   179.99871773
 C     16  15  14     2.639039135953   121.86332872     0.00000000
 C     17  16  15     2.613261897189   121.92367885     0.00000000
 C     18  17  16     2.611202141739   116.34616564     0.00000000
 O     19  18  17     2.559172080629   130.19363179   179.99857084
 H      5   4   3     2.037147771502   118.75144981     0.00000000
 H      6   5   4     2.039317094935   119.60705635   179.99753215
 H      7   6   5     2.039257407538   119.73269952   179.99568252
 H      8   7   6     2.040244831160   120.85694519   180.00622849
 H     10   9   8     2.042509860250   119.01591495     0.00000000
 H     15  14  13     2.035484616905   120.47017728     0.00000000
 H     16  15  14     2.040293611770   119.40815564   180.00554925
 H     17  16  15     2.039992070461   119.03691533   179.99579963
 H     18  17  16     2.037500132408   122.08071182   179.99754918

---------------------
BASIS SET INFORMATION
---------------------
There are 4 groups of distinct atoms

 Group   1 Type O   : 19s6p3d2f contracted to 5s4p3d2f pattern {88111/3111/111/11}
 Group   2 Type C   : 19s6p3d2f contracted to 5s4p3d2f pattern {88111/3111/111/11}
 Group   3 Type N   : 19s6p3d2f contracted to 5s4p3d2f pattern {88111/3111/111/11}
 Group   4 Type H   : 5s2p1d contracted to 3s2p1d pattern {311/11/1}

Atom   0O    basis set group =>   1
Atom   1C    basis set group =>   2
Atom   2O    basis set group =>   1
Atom   3C    basis set group =>   2
Atom   4C    basis set group =>   2
Atom   5C    basis set group =>   2
Atom   6C    basis set group =>   2
Atom   7C    basis set group =>   2
Atom   8C    basis set group =>   2
Atom   9C    basis set group =>   2
Atom  10C    basis set group =>   2
Atom  11C    basis set group =>   2
Atom  12N    basis set group =>   3
Atom  13C    basis set group =>   2
Atom  14C    basis set group =>   2
Atom  15C    basis set group =>   2
Atom  16C    basis set group =>   2
Atom  17C    basis set group =>   2
Atom  18C    basis set group =>   2
Atom  19O    basis set group =>   1
Atom  20H    basis set group =>   4
Atom  21H    basis set group =>   4
Atom  22H    basis set group =>   4
Atom  23H    basis set group =>   4
Atom  24H    basis set group =>   4
Atom  25H    basis set group =>   4
Atom  26H    basis set group =>   4
Atom  27H    basis set group =>   4
Atom  28H    basis set group =>   4
---------------------------------
AUXILIARY/J BASIS SET INFORMATION
---------------------------------
There are 4 groups of distinct atoms

 Group   1 Type O   : 10s7p5d2f1g contracted to 10s7p5d2f1g pattern {1111111111/1111111/11111/11/1}
 Group   2 Type C   : 10s7p5d2f1g contracted to 10s7p5d2f1g pattern {1111111111/1111111/11111/11/1}
 Group   3 Type N   : 10s7p5d2f1g contracted to 10s7p5d2f1g pattern {1111111111/1111111/11111/11/1}
 Group   4 Type H   : 4s3p2d1f contracted to 4s3p2d1f pattern {1111/111/11/1}

Atom   0O    basis set group =>   1
Atom   1C    basis set group =>   2
Atom   2O    basis set group =>   1
Atom   3C    basis set group =>   2
Atom   4C    basis set group =>   2
Atom   5C    basis set group =>   2
Atom   6C    basis set group =>   2
Atom   7C    basis set group =>   2
Atom   8C    basis set group =>   2
Atom   9C    basis set group =>   2
Atom  10C    basis set group =>   2
Atom  11C    basis set group =>   2
Atom  12N    basis set group =>   3
Atom  13C    basis set group =>   2
Atom  14C    basis set group =>   2
Atom  15C    basis set group =>   2
Atom  16C    basis set group =>   2
Atom  17C    basis set group =>   2
Atom  18C    basis set group =>   2
Atom  19O    basis set group =>   1
Atom  20H    basis set group =>   4
Atom  21H    basis set group =>   4
Atom  22H    basis set group =>   4
Atom  23H    basis set group =>   4
Atom  24H    basis set group =>   4
Atom  25H    basis set group =>   4
Atom  26H    basis set group =>   4
Atom  27H    basis set group =>   4
Atom  28H    basis set group =>   4
---------------------------------
AUXILIARY/C BASIS SET INFORMATION
---------------------------------
There are 4 groups of distinct atoms

 Group   1 Type O   : 9s7p6d4f2g contracted to 9s7p6d4f2g pattern {111111111/1111111/111111/1111/11}
 Group   2 Type C   : 9s7p6d4f2g contracted to 9s7p6d4f2g pattern {111111111/1111111/111111/1111/11}
 Group   3 Type N   : 9s7p6d4f2g contracted to 9s7p6d4f2g pattern {111111111/1111111/111111/1111/11}
 Group   4 Type H   : 4s3p2d1f contracted to 4s3p2d1f pattern {1111/111/11/1}

Atom   0O    basis set group =>   1
Atom   1C    basis set group =>   2
Atom   2O    basis set group =>   1
Atom   3C    basis set group =>   2
Atom   4C    basis set group =>   2
Atom   5C    basis set group =>   2
Atom   6C    basis set group =>   2
Atom   7C    basis set group =>   2
Atom   8C    basis set group =>   2
Atom   9C    basis set group =>   2
Atom  10C    basis set group =>   2
Atom  11C    basis set group =>   2
Atom  12N    basis set group =>   3
Atom  13C    basis set group =>   2
Atom  14C    basis set group =>   2
Atom  15C    basis set group =>   2
Atom  16C    basis set group =>   2
Atom  17C    basis set group =>   2
Atom  18C    basis set group =>   2
Atom  19O    basis set group =>   1
Atom  20H    basis set group =>   4
Atom  21H    basis set group =>   4
Atom  22H    basis set group =>   4
Atom  23H    basis set group =>   4
Atom  24H    basis set group =>   4
Atom  25H    basis set group =>   4
Atom  26H    basis set group =>   4
Atom  27H    basis set group =>   4
Atom  28H    basis set group =>   4


           ************************************************************
           *        Program running with 4 parallel MPI-processes     *
           *              working on a common directory               *
           ************************************************************
------------------------------------------------------------------------------
                           ORCA GTO INTEGRAL CALCULATION
                           -- RI-GTO INTEGRALS CHOSEN --
------------------------------------------------------------------------------
------------------------------------------------------------------------------
                   ___                                                        
                  /   \      - P O W E R E D   B Y -                         
                 /     \                                                     
                 |  |  |   _    _      __       _____    __    __             
                 |  |  |  | |  | |    /  \     |  _  \  |  |  /  |          
                  \  \/   | |  | |   /    \    | | | |  |  | /  /          
                 / \  \   | |__| |  /  /\  \   | |_| |  |  |/  /          
                |  |  |   |  __  | /  /__\  \  |    /   |      \           
                |  |  |   | |  | | |   __   |  |    \   |  |\   \          
                \     /   | |  | | |  |  |  |  | |\  \  |  | \   \       
                 \___/    |_|  |_| |__|  |__|  |_| \__\ |__|  \__/        
                                                                              
                      - O R C A' S   B I G   F R I E N D -                    
                                      &                                       
                       - I N T E G R A L  F E E D E R -                       
                                                                              
 v1 FN, 2020, v2 2021                                                         
------------------------------------------------------------------------------


Reading SHARK input file optpbed3-b2plyp-test-30.SHARKINP.tmp ... ok
----------------------
SHARK INTEGRAL PACKAGE
----------------------

Number of atoms                             ...     29
Number of basis functions                   ...   1166
Number of shells                            ...    454
Maximum angular momentum                    ...      3
Integral batch strategy                     ... SHARK/LIBINT Hybrid
RI-J (if used) integral strategy            ... SPLIT-RIJ (Revised 2003 algorithm where possible)
Printlevel                                  ...      1
Contraction scheme used                     ... PARTIAL GENERAL contraction
Coulomb Range Separation                    ... NOT USED
Exchange Range Separation                   ... NOT USED
Finite Nucleus Model                        ... NOT USED
Auxiliary Coulomb fitting basis             ... AVAILABLE
   # of basis functions in Aux-J            ...   1850
   # of shells in Aux-J                     ...    590
   Maximum angular momentum in Aux-J        ...      4
Auxiliary J/K fitting basis                 ... NOT available
Auxiliary Correlation fitting basis         ... AVAILABLE
   # of basis functions in Aux-C            ...   2390
   # of shells in Aux-C                     ...    650
   Maximum angular momentum in Aux-C        ...      4
Auxiliary 'external' fitting basis          ... NOT available
Integral threshold                          ...     2.500000e-11
Primitive cut-off                           ...     2.500000e-12
Primitive pair pre-selection threshold      ...     2.500000e-12

Calculating pre-screening integrals         ... done (  0.3 sec) Dimension = 454
Calculating pre-screening integrals (ORCA)  ... done (  0.6 sec) Dimension = 334
Organizing shell pair data                  ... done (  0.8 sec)
Shell pair information
Total number of shell pairs                 ...    103285
Shell pairs after pre-screening             ...     65811
Total number of primitive shell pairs       ...    131415
Primitive shell pairs kept                  ...     76283
          la=0 lb=0:  14616 shell pairs
          la=1 lb=0:  16674 shell pairs
          la=1 lb=1:   3935 shell pairs
          la=2 lb=0:  11163 shell pairs
          la=2 lb=1:   5361 shell pairs
          la=2 lb=2:   1886 shell pairs
          la=3 lb=0:   6299 shell pairs
          la=3 lb=1:   3088 shell pairs
          la=3 lb=2:   2145 shell pairs
          la=3 lb=3:    644 shell pairs

Calculating one electron integrals          ... done (  0.2 sec)
Calculating RI/J V-Matrix + Cholesky decomp.... done (  1.0 sec)
Calculating RI/C V-Matrix + Cholesky decomp.... done (  0.5 sec)
Calculating Nuclear repulsion               ... done (  0.0 sec) ENN=   1382.304673954044 Eh

SHARK setup successfully completed in   5.0 seconds

Maximum memory used throughout the entire GTOINT-calculation: 104.3 MB


           ************************************************************
           *        Program running with 4 parallel MPI-processes     *
           *              working on a common directory               *
           ************************************************************
-------------------------------------------------------------------------------
                                 ORCA SCF
-------------------------------------------------------------------------------

------------
SCF SETTINGS
------------
Hamiltonian:
 Density Functional     Method          .... DFT(GTOs)
 Exchange Functional    Exchange        .... PBE
   PBE kappa parameter   XKappa         ....  0.804000
   PBE mue parameter    XMuePBE         ....  0.219520
 Correlation Functional Correlation     .... PBE
   PBE beta parameter  CBetaPBE         ....  0.066725
 LDA part of GGA corr.  LDAOpt          .... PW91-LDA
 Gradients option       PostSCFGGA      .... off
 Hybrid DFT is turned on
   Fraction HF Exchange ScalHFX         ....  0.250000
   Scaling of DF-GGA-X  ScalDFX         ....  0.750000
   Scaling of DF-GGA-C  ScalDFC         ....  1.000000
   Scaling of DF-LDA-C  ScalLDAC        ....  1.000000
   Perturbative correction              ....  0.000000
   Density functional embedding theory  .... OFF
   NL short-range parameter             ....  6.900000
 RI-approximation to the Coulomb term is turned on
   Number of AuxJ basis functions       .... 1850
   RIJ-COSX (HFX calculated with COS-X)).... on


General Settings:
 Integral files         IntName         .... optpbed3-b2plyp-test-30
 Hartree-Fock type      HFTyp           .... RHF
 Total Charge           Charge          ....    0
 Multiplicity           Mult            ....    1
 Number of Electrons    NEL             ....  136
 Basis Dimension        Dim             .... 1046
 Nuclear Repulsion      ENuc            ....   1382.3046739540 Eh

Convergence Acceleration:
 DIIS                   CNVDIIS         .... on
   Start iteration      DIISMaxIt       ....    12
   Startup error        DIISStart       ....  0.200000
   # of expansion vecs  DIISMaxEq       ....     5
   Bias factor          DIISBfac        ....   1.050
   Max. coefficient     DIISMaxC        ....  10.000
 Trust-Rad. Augm. Hess. CNVTRAH         .... auto
   Auto Start mean grad. ratio tolernc. ....  1.125000
   Auto Start start iteration           ....    20
   Auto Start num. interpolation iter.  ....    10
   Max. Number of Micro iterations      ....    16
   Max. Number of Macro iterations      .... Maxiter - #DIIS iter
   Number of Davidson start vectors     ....     2
   Converg. threshold I  (grad. norm)   ....   1.000e-05
   Converg. threshold II (energy diff.) ....   1.000e-08
   Grad. Scal. Fac. for Micro threshold ....   0.100
   Minimum threshold for Micro iter.    ....   0.010
   NR start threshold (gradient norm)   ....   0.001
   Initial trust radius                 ....   0.400
   Minimum AH scaling param. (alpha)    ....   1.000
   Maximum AH scaling param. (alpha)    .... 1000.000
   Orbital update algorithm             .... Taylor
   White noise on init. David. guess    .... on
   Maximum white noise                  ....   0.010
   Quad. conv. algorithm                .... NR
 SOSCF                  CNVSOSCF        .... on
   Start iteration      SOSCFMaxIt      ....   150
   Startup grad/error   SOSCFStart      ....  0.003300
 Level Shifting         CNVShift        .... on
   Level shift para.    LevelShift      ....    0.2500
   Turn off err/grad.   ShiftErr        ....    0.0010
 Zerner damping         CNVZerner       .... off
 Static damping         CNVDamp         .... on
   Fraction old density DampFac         ....    0.7000
   Max. Damping (<1)    DampMax         ....    0.9800
   Min. Damping (>=0)   DampMin         ....    0.0000
   Turn off err/grad.   DampErr         ....    0.1000
 Fernandez-Rico         CNVRico         .... off

SCF Procedure:
 Maximum # iterations   MaxIter         ....   125
 SCF integral mode      SCFMode         .... Direct
   Integral package                     .... SHARK and LIBINT hybrid scheme
 Reset frequency        DirectResetFreq ....    20
 Integral Threshold     Thresh          ....  2.500e-11 Eh
 Primitive CutOff       TCut            ....  2.500e-12 Eh

Convergence Tolerance:
 Convergence Check Mode ConvCheckMode   .... Total+1el-Energy
 Convergence forced     ConvForced      .... 0
 Energy Change          TolE            ....  1.000e-08 Eh
 1-El. energy change                    ....  1.000e-05 Eh
 Orbital Gradient       TolG            ....  1.000e-05
 Orbital Rotation angle TolX            ....  1.000e-05
 DIIS Error             TolErr          ....  5.000e-07


Diagonalization of the overlap matrix:
Smallest eigenvalue                        ... 5.704e-07
Time for diagonalization                   ...    0.280 sec
Threshold for overlap eigenvalues          ... 1.000e-08
Number of eigenvalues below threshold      ... 0
Time for construction of square roots      ...    0.510 sec
Total time needed                          ...    0.797 sec

Time for model grid setup =    0.613 sec

------------------------------
INITIAL GUESS: MODEL POTENTIAL
------------------------------
Loading Hartree-Fock densities                     ... done
Calculating cut-offs                               ... done
Initializing the effective Hamiltonian             ... done
Setting up the integral package (SHARK)            ... done
Starting the Coulomb interaction                   ... done (   2.5 sec)
Reading the grid                                   ... done
Mapping shells                                     ... done
Starting the XC term evaluation                    ... done (   1.8 sec)
  promolecular density results
     # of electrons  =    135.998083348
     EX              =   -115.613118482
     EC              =     -4.614088005
     EX+EC           =   -120.227206487
Transforming the Hamiltonian                       ... done (   0.1 sec)
Diagonalizing the Hamiltonian                      ... done (   0.3 sec)
Back transforming the eigenvectors                 ... done (   0.1 sec)
Now organizing SCF variables                       ... done
                      ------------------
                      INITIAL GUESS DONE (   5.5 sec)
                      ------------------
-------------------
DFT GRID GENERATION
-------------------

General Integration Accuracy     IntAcc      ... 4.388
Radial Grid Type                 RadialGrid  ... OptM3 with GC (2021)
Angular Grid (max. ang.)         AngularGrid ... 4 (Lebedev-302)
Angular grid pruning method      GridPruning ... 4 (adaptive)
Weight generation scheme         WeightScheme... Becke
Basis function cutoff            BFCut       ... 1.0000e-11
Integration weight cutoff        WCut        ... 1.0000e-14
Angular grids for H and He will be reduced by one unit
Partially contracted basis set               ... off
Rotationally invariant grid construction     ... off

Total number of grid points                  ...   153789
Total number of batches                      ...     2418
Average number of points per batch           ...       63
Average number of grid points per atom       ...     5303
Time for grid setup =    2.300 sec

--------------------
COSX GRID GENERATION
--------------------

GRIDX 1
-------
General Integration Accuracy     IntAcc      ... 3.816
Radial Grid Type                 RadialGrid  ... OptM3 with GC (2021)
Angular Grid (max. ang.)         AngularGrid ... 1 (Lebedev-50)
Angular grid pruning method      GridPruning ... 4 (adaptive)
Weight generation scheme         WeightScheme... Becke
Basis function cutoff            BFCut       ... 1.0000e-11
Integration weight cutoff        WCut        ... 1.0000e-14
Angular grids for H and He will be reduced by one unit
Partially contracted basis set               ... on
Rotationally invariant grid construction     ... off

Total number of grid points                  ...    19565
Total number of batches                      ...      323
Average number of points per batch           ...       60
Average number of grid points per atom       ...      675
UseSFitting                                  ... on

GRIDX 2
-------
General Integration Accuracy     IntAcc      ... 4.020
Radial Grid Type                 RadialGrid  ... OptM3 with GC (2021)
Angular Grid (max. ang.)         AngularGrid ... 2 (Lebedev-110)
Angular grid pruning method      GridPruning ... 4 (adaptive)
Weight generation scheme         WeightScheme... Becke
Basis function cutoff            BFCut       ... 1.0000e-11
Integration weight cutoff        WCut        ... 1.0000e-14
Angular grids for H and He will be reduced by one unit
Partially contracted basis set               ... on
Rotationally invariant grid construction     ... off

Total number of grid points                  ...    47954
Total number of batches                      ...      766
Average number of points per batch           ...       62
Average number of grid points per atom       ...     1654
UseSFitting                                  ... on

GRIDX 3
-------
General Integration Accuracy     IntAcc      ... 4.338
Radial Grid Type                 RadialGrid  ... OptM3 with GC (2021)
Angular Grid (max. ang.)         AngularGrid ... 3 (Lebedev-194)
Angular grid pruning method      GridPruning ... 4 (adaptive)
Weight generation scheme         WeightScheme... Becke
Basis function cutoff            BFCut       ... 1.0000e-11
Integration weight cutoff        WCut        ... 1.0000e-14
Angular grids for H and He will be reduced by one unit
Partially contracted basis set               ... on
Rotationally invariant grid construction     ... off

Total number of grid points                  ...   103628
Total number of batches                      ...     1635
Average number of points per batch           ...       63
Average number of grid points per atom       ...     3573
UseSFitting                                  ... on

Time for X-Grid setup             =    5.891 sec


--------------------
CPCM SOLVATION MODEL
--------------------
CPCM parameters:
  Epsilon                                         ...       7.4257
  Refrac                                          ...       1.4050
  Rsolv                                           ...       1.3000
  Surface type                                    ... GAUSSIAN VDW
  Epsilon function type                           ...         CPCM
Solvent:                                     ... TETRAHYDROFURAN
SMD-CDS solvent descriptors:
  Soln                                       ...    1.4050
  Soln25                                     ...    1.4044
  Sola                                       ...    0.0000
  Solb                                       ...    0.4800
  Solg                                       ...   39.4400
  Solc                                       ...    0.0000
  Solh                                       ...    0.0000
Radii:
 Radius for O  used is    4.3350 Bohr (=   2.2940 Ang.)
 Radius for C  used is    3.4960 Bohr (=   1.8500 Ang.)
 Radius for N  used is    3.5716 Bohr (=   1.8900 Ang.)
 Radius for H  used is    2.2677 Bohr (=   1.2000 Ang.)
Calculating surface                               ...        done! (  0.0s)
GEPOL surface points                              ...         1555
GEPOL Volume                                      ...    1951.3226
GEPOL Surface-area                                ...    1012.5920
Calculating surface distance matrix               ...        done! (  0.0s)
Performing Cholesky decomposition & store         ...        done! (  0.2s)
Overall time for CPCM initialization              ...                 0.2s
 re-compute Schwartz prescreening matrix in partically contracted basis (1) ...done (   0.254 sec)
--------------
SCF ITERATIONS
--------------
ITER       Energy         Delta-E        Max-DP      RMS-DP      [F,P]     Damp
               ***  Starting incremental Fock matrix formation  ***
  0   -894.4402613742   0.000000000000 0.12115273  0.00112462  0.2990373 0.7000
  1   -894.6357324595  -0.195471085281 0.10213227  0.00082797  0.1144400 0.7000
                               ***Turning on DIIS***
  2   -894.7140295351  -0.078297075646 0.32430478  0.00176816  0.0423779 0.0000
  3   -894.8421180066  -0.128088471423 0.03836680  0.00039963  0.0488909 0.0000
  4   -894.8665750455  -0.024457038933 0.02507227  0.00016570  0.0204558 0.0000
  5   -894.8683449188  -0.001769873262 0.00859023  0.00005690  0.0099184 0.0000
                      *** Initiating the SOSCF procedure ***
                           *** Shutting down DIIS ***
                      *** Re-Reading the Fockian *** 
                      *** Removing any level shift *** 
ITER      Energy       Delta-E        Grad      Rot      Max-DP    RMS-DP
  6   -894.86847557  -0.0001306548  0.000391  0.000391  0.008409  0.000036
               *** Restarting incremental Fock matrix formation ***
  7   -894.86850784  -0.0000322702  0.000168  0.000858  0.036154  0.000375
  8   -894.86850911  -0.0000012704  0.000198  0.000521  0.010538  0.000111
  9   -894.86851140  -0.0000022901  0.000047  0.000212  0.011362  0.000125
 10   -894.86851148  -0.0000000755  0.000029  0.000042  0.009084  0.000039
 11   -894.86851161  -0.0000001268  0.000016  0.000060  0.024817  0.000079
 12   -894.86851161  -0.0000000077  0.000011  0.000017  0.014865  0.000044
 13   -894.86851163  -0.0000000167  0.000004  0.000013  0.015537  0.000066
 14   -894.86851161   0.0000000165  0.000003  0.000004  0.038211  0.000112
                  ***Gradient check signals convergence***
              ***Rediagonalizing the Fockian in SOSCF/NRSCF***

               *****************************************************
               *                     SUCCESS                       *
               *           SCF CONVERGED AFTER  15 CYCLES          *
               *****************************************************

Old exchange energy                            =    -29.387861172 Eh
New exchange energy                            =    -29.387876568 Eh
Exchange energy change after final integration =     -0.000015396 Eh
Total energy after final integration           =   -894.868526994 Eh
Final COS-X integration done in                =   127.121 sec

SMD CDS free energy correction energy :                -5.04018     Kcal/mol
Total Energy after SMD CDS correction =              -894.876559034 Eh

----------------
TOTAL SCF ENERGY
----------------

Total Energy       :         -894.87655903 Eh          -24350.82914 eV

Components:
Nuclear Repulsion  :         1382.30467395 Eh           37614.42246 eV
Electronic Energy  :        -2277.18123299 Eh          -61965.25160 eV
One Electron Energy:        -3960.81739671 Eh         -107779.32076 eV
Two Electron Energy:         1683.63616373 Eh           45814.06916 eV
Max COSX asymmetry :            0.00001843 Eh               0.00050 eV
CPCM Dielectric    :           -0.02110725 Eh              -0.57436 eV
SMD CDS (Gcds)     :           -0.00803204 Eh              -0.21856 eV

Virial components:
Potential Energy   :        -1784.82703973 Eh          -48567.61288 eV
Kinetic Energy     :          889.95048070 Eh           24216.78374 eV
Virial Ratio       :            2.00553523


DFT components:
N(Alpha)           :       68.000001388902 electrons
N(Beta)            :       68.000001388902 electrons
N(Total)           :      136.000002777805 electrons
E(X)               :      -88.016850013392 Eh       
E(C)               :       -4.616286782082 Eh       
E(XC)              :      -92.633136795475 Eh       
DFET-embed. en.    :        0.000000000000 Eh       
CPCM Solvation Model Properties:
Surface-charge          :           -0.04545619
Charge-correction       :            0.00005055 Eh               0.00138 eV
Free-energy (cav+disp)  :           -0.00803204 Eh              -0.21856 eV

---------------
SCF CONVERGENCE
---------------

  Last Energy change         ...    1.6513e-08  Tolerance :   1.0000e-08
  Last MAX-Density change    ...    2.4425e-15  Tolerance :   1.0000e-07
  Last RMS-Density change    ...    1.4802e-17  Tolerance :   5.0000e-09
  Last Orbital Gradient      ...    1.8131e-06  Tolerance :   1.0000e-05
  Last Orbital Rotation      ...    6.9755e-06  Tolerance :   1.0000e-05

             **** THE GBW FILE WAS UPDATED (optpbed3-b2plyp-test-30.gbw) ****
             **** DENSITY optpbed3-b2plyp-test-30.scfp WAS UPDATED ****
             **** ENERGY FILE WAS UPDATED (optpbed3-b2plyp-test-30.en.tmp) ****
             **** THE GBW FILE WAS UPDATED (optpbed3-b2plyp-test-30.gbw) ****
             **** DENSITY optpbed3-b2plyp-test-30.scfp WAS UPDATED ****
----------------
ORBITAL ENERGIES
----------------

  NO   OCC          E(Eh)            E(eV) 
   0   2.0000     -19.296688      -525.0896 
   1   2.0000     -19.289908      -524.9051 
   2   2.0000     -19.199851      -522.4545 
   3   2.0000     -14.390915      -391.5967 
   4   2.0000     -10.370897      -282.2064 
   5   2.0000     -10.336204      -281.2624 
   6   2.0000     -10.316388      -280.7232 
   7   2.0000     -10.294444      -280.1261 
   8   2.0000     -10.274582      -279.5856 
   9   2.0000     -10.273622      -279.5595 
  10   2.0000     -10.262457      -279.2557 
  11   2.0000     -10.259562      -279.1769 
  12   2.0000     -10.246823      -278.8302 
  13   2.0000     -10.246060      -278.8095 
  14   2.0000     -10.241447      -278.6839 
  15   2.0000     -10.239285      -278.6251 
  16   2.0000     -10.236573      -278.5513 
  17   2.0000     -10.234286      -278.4891 
  18   2.0000     -10.234052      -278.4827 
  19   2.0000     -10.230268      -278.3798 
  20   2.0000      -1.176884       -32.0246 
  21   2.0000      -1.168086       -31.7852 
  22   2.0000      -1.075291       -29.2601 
  23   2.0000      -0.970573       -26.4106 
  24   2.0000      -0.912370       -24.8268 
  25   2.0000      -0.894856       -24.3503 
  26   2.0000      -0.870143       -23.6778 
  27   2.0000      -0.806637       -21.9497 
  28   2.0000      -0.796928       -21.6855 
  29   2.0000      -0.784256       -21.3407 
  30   2.0000      -0.765969       -20.8431 
  31   2.0000      -0.705720       -19.2036 
  32   2.0000      -0.687936       -18.7197 
  33   2.0000      -0.667766       -18.1708 
  34   2.0000      -0.646030       -17.5794 
  35   2.0000      -0.638154       -17.3650 
  36   2.0000      -0.624644       -16.9974 
  37   2.0000      -0.589572       -16.0431 
  38   2.0000      -0.562126       -15.2962 
  39   2.0000      -0.541430       -14.7331 
  40   2.0000      -0.532259       -14.4835 
  41   2.0000      -0.521464       -14.1898 
  42   2.0000      -0.518102       -14.0983 
  43   2.0000      -0.506683       -13.7875 
  44   2.0000      -0.503741       -13.7075 
  45   2.0000      -0.478487       -13.0203 
  46   2.0000      -0.475289       -12.9333 
  47   2.0000      -0.465633       -12.6705 
  48   2.0000      -0.461660       -12.5624 
  49   2.0000      -0.454155       -12.3582 
  50   2.0000      -0.442318       -12.0361 
  51   2.0000      -0.430260       -11.7080 
  52   2.0000      -0.418215       -11.3802 
  53   2.0000      -0.410746       -11.1770 
  54   2.0000      -0.392640       -10.6843 
  55   2.0000      -0.390238       -10.6189 
  56   2.0000      -0.384700       -10.4682 
  57   2.0000      -0.381343       -10.3769 
  58   2.0000      -0.370768       -10.0891 
  59   2.0000      -0.363137        -9.8815 
  60   2.0000      -0.359401        -9.7798 
  61   2.0000      -0.341773        -9.3001 
  62   2.0000      -0.324607        -8.8330 
  63   2.0000      -0.290776        -7.9124 
  64   2.0000      -0.285094        -7.7578 
  65   2.0000      -0.267142        -7.2693 
  66   2.0000      -0.265748        -7.2314 
  67   2.0000      -0.236985        -6.4487 
  68   0.0000      -0.089550        -2.4368 
  69   0.0000      -0.028005        -0.7621 
  70   0.0000      -0.015623        -0.4251 
  71   0.0000      -0.006203        -0.1688 
  72   0.0000      -0.000401        -0.0109 
  73   0.0000       0.006347         0.1727 
  74   0.0000       0.010718         0.2916 
  75   0.0000       0.018419         0.5012 
  76   0.0000       0.020180         0.5491 
  77   0.0000       0.027428         0.7463 
  78   0.0000       0.029066         0.7909 
  79   0.0000       0.036954         1.0056 
  80   0.0000       0.037515         1.0208 
  81   0.0000       0.041645         1.1332 
  82   0.0000       0.043333         1.1792 
  83   0.0000       0.046646         1.2693 
  84   0.0000       0.050684         1.3792 
  85   0.0000       0.058821         1.6006 
  86   0.0000       0.060191         1.6379 
  87   0.0000       0.061634         1.6771 
  88   0.0000       0.065402         1.7797 
  89   0.0000       0.074316         2.0222 
  90   0.0000       0.075823         2.0632 
  91   0.0000       0.081510         2.2180 
  92   0.0000       0.085562         2.3283 
  93   0.0000       0.088771         2.4156 
  94   0.0000       0.089027         2.4226 
  95   0.0000       0.096778         2.6335 
  96   0.0000       0.098635         2.6840 
  97   0.0000       0.105473         2.8701 
  98   0.0000       0.105874         2.8810 
  99   0.0000       0.111568         3.0359 
 100   0.0000       0.111877         3.0443 
 101   0.0000       0.115936         3.1548 
 102   0.0000       0.119773         3.2592 
 103   0.0000       0.120693         3.2842 
 104   0.0000       0.125625         3.4184 
 105   0.0000       0.126479         3.4417 
 106   0.0000       0.127831         3.4785 
 107   0.0000       0.129287         3.5181 
 108   0.0000       0.130697         3.5564 
 109   0.0000       0.136413         3.7120 
 110   0.0000       0.139456         3.7948 
 111   0.0000       0.142024         3.8647 
 112   0.0000       0.144737         3.9385 
 113   0.0000       0.147366         4.0100 
 114   0.0000       0.148102         4.0301 
 115   0.0000       0.150239         4.0882 
 116   0.0000       0.153931         4.1887 
 117   0.0000       0.155048         4.2191 
 118   0.0000       0.155788         4.2392 
 119   0.0000       0.158240         4.3059 
 120   0.0000       0.166413         4.5283 
 121   0.0000       0.167303         4.5525 
 122   0.0000       0.168381         4.5819 
 123   0.0000       0.169265         4.6059 
 124   0.0000       0.171360         4.6629 
 125   0.0000       0.175823         4.7844 
 126   0.0000       0.176771         4.8102 
 127   0.0000       0.179845         4.8938 
 128   0.0000       0.181036         4.9262 
 129   0.0000       0.181607         4.9418 
 130   0.0000       0.184120         5.0102 
 131   0.0000       0.187365         5.0985 
 132   0.0000       0.192264         5.2318 
 133   0.0000       0.192417         5.2359 
 134   0.0000       0.192889         5.2488 
 135   0.0000       0.196187         5.3385 
 136   0.0000       0.199473         5.4279 
 137   0.0000       0.208515         5.6740 
 138   0.0000       0.208853         5.6832 
 139   0.0000       0.210915         5.7393 
 140   0.0000       0.212903         5.7934 
 141   0.0000       0.214110         5.8262 
 142   0.0000       0.219016         5.9597 
 143   0.0000       0.222244         6.0476 
 144   0.0000       0.222425         6.0525 
 145   0.0000       0.224022         6.0959 
 146   0.0000       0.226332         6.1588 
 147   0.0000       0.227757         6.1976 
 148   0.0000       0.234217         6.3734 
 149   0.0000       0.241027         6.5587 
 150   0.0000       0.241986         6.5848 
 151   0.0000       0.243883         6.6364 
 152   0.0000       0.249807         6.7976 
 153   0.0000       0.251199         6.8355 
 154   0.0000       0.251710         6.8494 
 155   0.0000       0.257128         6.9968 
 156   0.0000       0.260327         7.0839 
 157   0.0000       0.264376         7.1940 
 158   0.0000       0.267579         7.2812 
 159   0.0000       0.270802         7.3689 
 160   0.0000       0.275743         7.5033 
 161   0.0000       0.280662         7.6372 
 162   0.0000       0.280674         7.6375 
 163   0.0000       0.282541         7.6883 
 164   0.0000       0.282913         7.6985 
 165   0.0000       0.289840         7.8869 
 166   0.0000       0.291406         7.9296 
 167   0.0000       0.296509         8.0684 
 168   0.0000       0.298636         8.1263 
 169   0.0000       0.303362         8.2549 
 170   0.0000       0.309764         8.4291 
 171   0.0000       0.310675         8.4539 
 172   0.0000       0.312837         8.5127 
 173   0.0000       0.315937         8.5971 
 174   0.0000       0.317466         8.6387 
 175   0.0000       0.320494         8.7211 
 176   0.0000       0.326813         8.8930 
 177   0.0000       0.328963         8.9515 
 178   0.0000       0.329936         8.9780 
 179   0.0000       0.337558         9.1854 
 180   0.0000       0.339815         9.2468 
 181   0.0000       0.344464         9.3733 
 182   0.0000       0.345014         9.3883 
 183   0.0000       0.348703         9.4887 
[...]
   Maximum residual norm  :     0.000018512240

                       ****Iteration   12****
              <<< Entering MO-section for Build Sigma(Double) >>>
   Forming the XC and CPCM contribution:
   Time for densities:            0.211
   Time for XC-Integration:      17.006
   Time for LR-CPCM terms:        9.022
   Time for Sigma-Completion:     0.173
   Time for building 10 sigma-vectors
   Data Preparation Phase         ...     0.01 sec
   Transformed RI Coulomb         ...     0.51 sec
   Transformed RI-exchange        ...   224.77 sec
   (ab|v) reading and digestion   ...   202.53 sec
   Final sigma-completion         ...     0.01 sec
   Done building sigma-vectors             Size of expansion space: 30
   Lowest Energy          :     0.144950357232
   Maximum Energy change  :     0.000035143069 (vector 9)
   Maximum residual norm  :     0.000006074037

                       ****Iteration   13****
              <<< Entering MO-section for Build Sigma(Double) >>>
   Forming the XC and CPCM contribution:
   Time for densities:            0.177
   Time for XC-Integration:      13.691
   Time for LR-CPCM terms:        7.831
   Time for Sigma-Completion:     0.140
   Time for building 9 sigma-vectors
   Data Preparation Phase         ...     0.01 sec
   Transformed RI Coulomb         ...     0.51 sec
   Transformed RI-exchange        ...   185.57 sec
   (ab|v) reading and digestion   ...   162.89 sec
   Final sigma-completion         ...     0.01 sec
   Done building sigma-vectors             Size of expansion space: 39
   Lowest Energy          :     0.144950357232
   Maximum Energy change  :     0.000011492980 (vector 9)
   Maximum residual norm  :     0.000002327802

                       ****Iteration   14****
              <<< Entering MO-section for Build Sigma(Double) >>>
   Forming the XC and CPCM contribution:
   Time for densities:            0.186
   Time for XC-Integration:      13.363
   Time for LR-CPCM terms:        7.879
   Time for Sigma-Completion:     0.130
   Time for building 8 sigma-vectors
   Data Preparation Phase         ...     0.01 sec
   Transformed RI Coulomb         ...     0.44 sec
   Transformed RI-exchange        ...   161.87 sec
   (ab|v) reading and digestion   ...   145.85 sec
   Final sigma-completion         ...     0.01 sec
   Done building sigma-vectors             Size of expansion space: 47
   Lowest Energy          :     0.144950357232
   Maximum Energy change  :     0.000004304428 (vector 9)
   Maximum residual norm  :     0.000000564367

      *** CONVERGENCE OF RESIDUAL NORM REACHED ***

Storing the converged CI vectors               ... optpbed3-b2plyp-test-30_job2.cis1

                 *** DAVIDSON DONE ***

Total time for solving the CIS problem:  4280.125sec

------------------
DOUBLES CORRECTION (Double precision version)
------------------

The (D) correction will be scaled by  0.2700
Doing v(i,a)*T(i,a) terms (RI)                    ... ok
Doing u(i,j,a,b) terms for state   0              ... ok
Doing u(i,j,a,b) terms for state   1              ... ok
Doing u(i,j,a,b) terms for state   2              ... ok
Doing u(i,j,a,b) terms for state   3              ... ok
Doing u(i,j,a,b) terms for state   4              ... ok
Doing u(i,j,a,b) terms for state   5              ... ok
Doing u(i,j,a,b) terms for state   6              ... ok
Doing u(i,j,a,b) terms for state   7              ... ok
Doing u(i,j,a,b) terms for state   8              ... ok
Doing u(i,j,a,b) terms for state   9              ... ok

Contributions to the (D) correction(s) (in eV)

STATE  Final   Init.   Total   v(ext)   v(int)  v(3)    u
       omega   omega     (D)                             
-----------------------------------------------------------------------------
   0   3.615   3.944  -0.329   0.645   1.028  -0.056  -1.947
   1   4.050   4.630  -0.579   0.633   0.950  -0.046  -2.118
   2   4.324   5.054  -0.730   0.627   0.934  -0.025  -2.265
   3   4.737   5.243  -0.506   0.631   0.942  -0.056  -2.023
   4   4.473   5.460  -0.986   0.677   0.811  -0.024  -2.450
   5   5.065   5.600  -0.536   0.542   1.000  -0.034  -2.043
   6   5.727   5.858  -0.131   0.049   1.024  -0.002  -1.201
   7   5.449   5.967  -0.518   0.545   0.977  -0.040  -2.000
   8   5.475   6.032  -0.557   0.452   0.992  -0.038  -1.963
   9   5.261   6.100  -0.839   0.668   0.764  -0.026  -2.245

(D)-timings
 V(i,a)*T(i,a) terms           ...   680.504 sec
 U(i,j,a,b) 3-internal         ...     9.584 sec
 U(i,j,a,b) 3-external         ...   226.611 sec
 U(i,j,a,b) pair terms         ...   327.910 sec
 Total measured time           ...  3022.718 sec

 Time for (ab|v) I/O           ...    80.845 sec


------------------------------------
TD-DFT/TDA EXCITED STATES (SINGLETS)
------------------------------------

the weight of the individual excitations are printed if larger than 1.0e-02

STATE  1:  E=   0.132842 au      3.615 eV    29155.4 cm**-1 <S**2> =   0.000000
    64a ->  68a  :     0.013806 (c= -0.11749928)
    65a ->  68a  :     0.018143 (c=  0.13469640)
    66a ->  68a  :     0.010530 (c= -0.10261449)
    67a ->  68a  :     0.911180 (c=  0.95455755)

STATE  2:  E=   0.148840 au      4.050 eV    32666.5 cm**-1 <S**2> =   0.000000
    64a ->  68a  :     0.045420 (c=  0.21311938)
    64a ->  72a  :     0.017350 (c= -0.13171760)
    64a ->  76a  :     0.015687 (c= -0.12524702)
    65a ->  68a  :     0.715202 (c=  0.84569602)
    66a ->  68a  :     0.092405 (c= -0.30398188)
    67a ->  68a  :     0.014694 (c= -0.12121692)
    67a ->  70a  :     0.030385 (c= -0.17431414)
    67a ->  72a  :     0.019510 (c=  0.13967697)

STATE  3:  E=   0.158910 au      4.324 eV    34876.8 cm**-1 <S**2> =   0.000000
    64a ->  68a  :     0.010623 (c= -0.10307003)
    65a ->  68a  :     0.089589 (c=  0.29931366)
    65a ->  70a  :     0.014606 (c=  0.12085399)
    66a ->  68a  :     0.659907 (c=  0.81234655)
    66a ->  70a  :     0.027394 (c=  0.16551196)
    66a ->  77a  :     0.019277 (c=  0.13884179)
    66a ->  79a  :     0.012933 (c=  0.11372484)
    67a ->  70a  :     0.028780 (c= -0.16964660)
    67a ->  72a  :     0.014257 (c= -0.11940297)
    67a ->  77a  :     0.026441 (c=  0.16260713)
    67a ->  79a  :     0.024144 (c=  0.15538467)

STATE  4:  E=   0.174077 au      4.737 eV    38205.4 cm**-1 <S**2> =   0.000000
    64a ->  68a  :     0.754660 (c= -0.86871159)
    65a ->  68a  :     0.019578 (c=  0.13992251)
    65a ->  70a  :     0.012833 (c=  0.11328413)
    65a ->  72a  :     0.017557 (c= -0.13250343)
    66a ->  68a  :     0.054617 (c= -0.23370188)
    66a ->  77a  :     0.010687 (c=  0.10337955)
    67a ->  68a  :     0.020759 (c= -0.14408094)
    67a ->  72a  :     0.027589 (c= -0.16610055)

STATE  5:  E=   0.164390 au      4.473 eV    36079.5 cm**-1 <S**2> =   0.000000
    61a ->  68a  :     0.048266 (c= -0.21969471)
    61a ->  70a  :     0.038872 (c=  0.19715911)
    61a ->  77a  :     0.017699 (c=  0.13303844)
    63a ->  68a  :     0.660994 (c=  0.81301558)
    63a ->  70a  :     0.048799 (c= -0.22090431)
    63a ->  76a  :     0.035163 (c=  0.18751707)
    63a ->  77a  :     0.023266 (c= -0.15253135)
    63a ->  79a  :     0.013484 (c=  0.11611957)

STATE  6:  E=   0.186117 au      5.065 eV    40848.1 cm**-1 <S**2> =   0.000000
    64a ->  68a  :     0.042363 (c=  0.20582327)
    65a ->  68a  :     0.063504 (c= -0.25199943)
    66a ->  68a  :     0.043939 (c= -0.20961518)
    66a ->  77a  :     0.032978 (c=  0.18159809)
    66a ->  79a  :     0.019052 (c=  0.13802936)
    67a ->  68a  :     0.013666 (c=  0.11690236)
    67a ->  69a  :     0.117566 (c= -0.34287863)
    67a ->  70a  :     0.492372 (c= -0.70169248)
    67a ->  72a  :     0.069791 (c= -0.26418003)

STATE  7:  E=   0.210476 au      5.727 eV    46194.2 cm**-1 <S**2> =   0.000000
    64a ->  71a  :     0.016193 (c= -0.12725111)
    65a ->  71a  :     0.012443 (c=  0.11154961)
    67a ->  69a  :     0.301558 (c=  0.54914311)
    67a ->  70a  :     0.044375 (c= -0.21065353)
    67a ->  71a  :     0.354702 (c= -0.59556823)
    67a ->  73a  :     0.035126 (c= -0.18741965)
    67a ->  74a  :     0.104505 (c=  0.32327189)
    67a ->  81a  :     0.047420 (c=  0.21776173)

STATE  8:  E=   0.200264 au      5.449 eV    43952.9 cm**-1 <S**2> =   0.000000
    64a ->  68a  :     0.015586 (c= -0.12484373)
    64a ->  70a  :     0.027730 (c=  0.16652254)
    64a ->  77a  :     0.011556 (c= -0.10749683)
    64a ->  79a  :     0.011080 (c= -0.10526115)
    65a ->  70a  :     0.019732 (c= -0.14047020)
    65a ->  76a  :     0.028557 (c= -0.16898872)
    66a ->  68a  :     0.097096 (c=  0.31160219)
    66a ->  69a  :     0.019527 (c= -0.13973906)
    66a ->  70a  :     0.086870 (c= -0.29473655)
    66a ->  72a  :     0.021235 (c= -0.14572164)
    66a ->  77a  :     0.013942 (c= -0.11807829)
    66a ->  88a  :     0.011355 (c=  0.10655920)
    67a ->  70a  :     0.091734 (c= -0.30287619)
    67a ->  72a  :     0.119248 (c=  0.34532245)
    67a ->  76a  :     0.013217 (c=  0.11496396)
    67a ->  77a  :     0.210333 (c= -0.45862030)
    67a ->  79a  :     0.071351 (c= -0.26711671)

STATE  9:  E=   0.201187 au      5.475 eV    44155.4 cm**-1 <S**2> =   0.000000
    64a ->  68a  :     0.032272 (c= -0.17964292)
    64a ->  72a  :     0.072126 (c= -0.26856297)
    64a ->  76a  :     0.016357 (c= -0.12789415)
    65a ->  68a  :     0.041533 (c= -0.20379557)
    65a ->  70a  :     0.010265 (c=  0.10131582)
    65a ->  72a  :     0.034592 (c=  0.18598829)
    65a ->  76a  :     0.043551 (c= -0.20868790)
    65a ->  79a  :     0.021590 (c= -0.14693487)
    66a ->  70a  :     0.026128 (c=  0.16164202)
    66a ->  76a  :     0.020093 (c=  0.14175147)
    67a ->  72a  :     0.380633 (c=  0.61695426)
    67a ->  76a  :     0.022027 (c= -0.14841346)
    67a ->  77a  :     0.146864 (c=  0.38322875)
    67a ->  82a  :     0.011165 (c= -0.10566503)

STATE 10:  E=   0.193337 au      5.261 eV    42432.5 cm**-1 <S**2> =   0.000000
    57a ->  68a  :     0.011232 (c=  0.10598127)
    61a ->  68a  :     0.394654 (c=  0.62821475)
    61a ->  76a  :     0.016883 (c=  0.12993467)
    63a ->  68a  :     0.159347 (c=  0.39918287)
    63a ->  69a  :     0.026646 (c=  0.16323710)
    63a ->  70a  :     0.143371 (c=  0.37864317)
    63a ->  77a  :     0.048212 (c=  0.21957322)
    63a ->  88a  :     0.040875 (c=  0.20217680)
    63a ->  89a  :     0.011711 (c= -0.10821542)


-----------------------------
TD-DFT/TDA-EXCITATION SPECTRA
-----------------------------

Center of mass = ( -0.0436, -0.1711,  0.4657)
Calculating the Dipole integrals                  ... done
Transforming integrals                            ... done
Calculating the Linear Momentum integrals         ... done
Transforming integrals                            ... done
Calculating angular momentum integrals            ... done
Transforming integrals                            ... done

-----------------------------------------------------------------------------
         ABSORPTION SPECTRUM VIA TRANSITION ELECTRIC DIPOLE MOMENTS
-----------------------------------------------------------------------------
State   Energy    Wavelength  fosc         T2        TX        TY        TZ  
        (cm-1)      (nm)                 (au**2)    (au)      (au)      (au) 
-----------------------------------------------------------------------------
   1   29155.4    343.0   1.219730565  13.77276   3.66564  -0.30333   0.49379
   2   32666.5    306.1   0.041160330   0.41481  -0.50527   0.16618  -0.36318
   3   34876.8    286.7   0.033733496   0.31842   0.18588  -0.26820   0.46036
   4   38205.4    261.7   0.040958061   0.35293  -0.00650  -0.14057   0.57717
   5   36079.5    277.2   0.000946697   0.00864  -0.08390   0.03614   0.01710
   6   40848.1    244.8   0.124629242   1.00444  -0.97443   0.06265   0.22586
   7   46194.2    216.5   0.000469814   0.00335   0.05221   0.02353  -0.00831
   8   43952.9    227.5   0.112928645   0.84585  -0.40586  -0.28282   0.77533
   9   44155.4    226.5   0.029303840   0.21848   0.36925  -0.11566   0.26222
  10   42432.5    235.7   0.005507567   0.04273  -0.14602   0.14130   0.03797

-----------------------------------------------------------------------------
         ABSORPTION SPECTRUM VIA TRANSITION VELOCITY DIPOLE MOMENTS
-----------------------------------------------------------------------------
State   Energy    Wavelength   fosc        P2         PX        PY        PZ  
        (cm-1)      (nm)                 (au**2)     (au)      (au)      (au) 
-----------------------------------------------------------------------------
   1   29155.4    343.0   0.601455033   0.11985  -0.34599   0.01149  -0.00276
   2   32666.5    306.1   0.053143564   0.01186   0.10505   0.00717  -0.02788
   3   34876.8    286.7   0.001334972   0.00032  -0.01068  -0.00925   0.01089
   4   38205.4    261.7   0.010047741   0.00262   0.00368   0.01496  -0.04885
   5   36079.5    277.2   0.001988990   0.00049   0.01216  -0.01811  -0.00383
   6   40848.1    244.8   0.075166154   0.02098   0.14335  -0.00439  -0.02039
   7   46194.2    216.5   0.000649146   0.00020  -0.01139  -0.00534  -0.00684
   8   43952.9    227.5   0.020663332   0.00621   0.07104  -0.00283  -0.03396
   9   44155.4    226.5   0.025909860   0.00782  -0.08621   0.01500  -0.01274
  10   42432.5    235.7   0.007690887   0.00223   0.02873   0.02803   0.02489

-------------------------------------------------------------------
                             CD SPECTRUM
-------------------------------------------------------------------
State  Energy     Wavelength     R         MX        MY        MZ   
       (cm-1)       (nm)     (1e40*cgs)   (au)      (au)      (au)  
-------------------------------------------------------------------
   1   29155.4    343.0     21.97430   0.00767  -0.03752   0.01439
   2   32666.5    306.1     -1.68881  -0.00431  -0.26297  -0.10447
   3   34876.8    286.7     -1.46201  -0.00562   0.00166  -0.00350
   4   38205.4    261.7    -11.79976  -0.00357  -0.25777  -0.10618
   5   36079.5    277.2      6.30299  -0.17748   0.07979  -0.25769
   6   40848.1    244.8      2.55782   0.01598   0.10558   0.06367
   7   46194.2    216.5     -0.78352   0.01027  -0.03939   0.15302
   8   43952.9    227.5     -7.88254   0.00997   0.00190  -0.01565
   9   44155.4    226.5     -8.32809  -0.00899   0.25367   0.05719
  10   42432.5    235.7      9.38597  -0.14766  -0.02969   0.06698

-------------------------------------------------------------------
         CD SPECTRUM VIA TRANSITION VELOCITY DIPOLE MOMENTS        
-------------------------------------------------------------------
State  Energy     Wavelength     R         MX        MY        MZ   
       (cm-1)       (nm)     (1e40*cgs)   (au)      (au)      (au)  
-------------------------------------------------------------------
   1   29155.4    343.0    -11.09261   0.00767  -0.03752   0.01439
   2   32666.5    306.1      1.81803  -0.00431  -0.26297  -0.10447
   3   34876.8    286.7      0.01946  -0.00562   0.00166  -0.00350
   4   38205.4    261.7      3.56613  -0.00357  -0.25777  -0.10618
   5   36079.5    277.2     -7.50222  -0.17748   0.07979  -0.25769
   6   40848.1    244.8      1.33961   0.01598   0.10558   0.06367
   7   46194.2    216.5     -2.13571   0.01027  -0.03939   0.15302
   8   43952.9    227.5      2.90567   0.00997   0.00190  -0.01565
   9   44155.4    226.5      9.02405  -0.00899   0.25367   0.05719
  10   42432.5    235.7     -8.30894  -0.14766  -0.02969   0.06698

Total run time:     7309.446 sec

           *** ORCA-CIS/TD-DFT FINISHED WITHOUT ERROR ***

Maximum memory used throughout the entire CIS-calculation: 1202.0 MB

-----------------------
CIS/TD-DFT TOTAL ENERGY
-----------------------

    E(SCF)  =   -894.090528149 Eh
    DE(CIS) =      0.132841597 Eh (Root  1)
    ----------------------------- ---------
    E(tot)  =   -893.957686552 Eh



-------------------------------------------------------------------------------
                          DFT DISPERSION CORRECTION                            
                                                                               
                              DFTD3 V3.1  Rev 1                                
                          USING Becke-Johnson damping                          
-------------------------------------------------------------------------------
The B2PLYP functional is recognized
Active option DFTDOPT                   ...         4   

molecular C6(AA) [au] = 11860.563342 


            DFT-D V3
 parameters
 s6 scaling factor         :     0.6400 
 a1 scaling factor         :     0.3065 
 s8 scaling factor         :     0.9147 
 a2 scaling factor         :     5.0570 
 ad hoc parameters k1-k3   :    16.0000     1.3333    -4.0000 

 Edisp/kcal,au: -18.996763113163  -0.030273265778 
 E6   /kcal   : -10.493770290 
 E8   /kcal   :  -8.502992823 
 % E8         :  44.760219268 

-------------------------   ----------------
Dispersion correction           -0.030273266
-------------------------   ----------------


-------------------------   --------------------
FINAL SINGLE POINT ENERGY      -893.987959817856
-------------------------   --------------------


                            ***************************************
                            *     ORCA property calculations      *
                            ***************************************


  WARNING: The energy has been calculated at the MP2 level but the densities
           used in the property calculations are still SCF densities
           MP2 response densities have not been calculated 
           use %mp2 Density relaxed end
           or  %mp2 Density unrelaxed end

                                    ---------------------
                                    Active property flags
                                    ---------------------
   (+) Dipole Moment


------------------------------------------------------------------------------
                       ORCA ELECTRIC PROPERTIES CALCULATION
------------------------------------------------------------------------------

Dipole Moment Calculation                       ... on
Quadrupole Moment Calculation                   ... off
Polarizability Calculation                      ... off
GBWName                                         ... optpbed3-b2plyp-test-30_job2.gbw
Electron density                                ... optpbed3-b2plyp-test-30_job2.scfp
The origin for moment calculation is the CENTER OF MASS  = (-0.043614, -0.171069  0.465703)

-------------
DIPOLE MOMENT
-------------
                                X             Y             Z
Electronic contribution:     -1.79935      -1.21794       4.74453
Nuclear contribution   :      0.50364       2.33084      -7.70922
                        -----------------------------------------
Total Dipole Moment    :     -1.29571       1.11290      -2.96470
                        -----------------------------------------
Magnitude (a.u.)       :      3.42153
Magnitude (Debye)      :      8.69683



--------------------
Rotational spectrum 
--------------------
 
Rotational constants in cm-1:     0.036668     0.005648     0.004911 
Rotational constants in MHz :  1099.268946   169.324530   147.215008 

 Dipole components along the rotational axes: 
x,y,z [a.u.] :    -1.324976     3.152908    -0.102257 
x,y,z [Debye]:    -3.367821     8.014056    -0.259917 

 

Timings for individual modules:

Sum of individual times         ...     9005.991 sec (= 150.100 min)
GTO integral calculation        ...        4.806 sec (=   0.080 min)   0.1 %
SCF iterations                  ...      832.011 sec (=  13.867 min)   9.2 %
MP2 module                      ...      857.363 sec (=  14.289 min)   9.5 %
CIS module                      ...     7311.811 sec (= 121.864 min)  81.2 %



                             ****ORCA TERMINATED NORMALLY****
TOTAL RUN TIME: 0 days 5 hours 55 minutes 14 seconds 843 msec
