
                                 *****************
                                 * O   R   C   A *
                                 *****************

                                            #,                                       
                                            ###                                      
                                            ####                                     
                                            #####                                    
                                            ######                                   
                                           ########,                                 
                                     ,,################,,,,,                         
                               ,,#################################,,                 
                          ,,##########################################,,             
                       ,#########################################, ''#####,          
                    ,#############################################,,   '####,        
                  ,##################################################,,,,####,       
                ,###########''''           ''''###############################       
              ,#####''   ,,,,##########,,,,          '''####'''          '####       
            ,##' ,,,,###########################,,,                        '##       
           ' ,,###''''                  '''############,,,                           
         ,,##''                                '''############,,,,        ,,,,,,###''
      ,#''                                            '''#######################'''  
     '                                                          ''''####''''         
             ,#######,   #######,   ,#######,      ##                                
            ,#'     '#,  ##    ##  ,#'     '#,    #''#        ######   ,####,        
            ##       ##  ##   ,#'  ##            #'  '#       #        #'  '#        
            ##       ##  #######   ##           ,######,      #####,   #    #        
            '#,     ,#'  ##    ##  '#,     ,#' ,#      #,         ##   #,  ,#        
             '#######'   ##     ##  '#######'  #'      '#     #####' # '####'        



                  #######################################################
                  #                        -***-                        #
                  #          Department of theory and spectroscopy      #
                  #    Directorship and core code : Frank Neese         #
                  #        Max Planck Institute fuer Kohlenforschung    #
                  #                Kaiser Wilhelm Platz 1               #
                  #                 D-45470 Muelheim/Ruhr               #
                  #                      Germany                        #
                  #                                                     #
                  #                  All rights reserved                #
                  #                        -***-                        #
                  #######################################################


                         Program Version 5.0.2 -  RELEASE  -


 With contributions from (in alphabetic order):
   Daniel Aravena         : Magnetic Suceptibility
   Michael Atanasov       : Ab Initio Ligand Field Theory (pilot matlab implementation)
   Alexander A. Auer      : GIAO ZORA, VPT2 properties, NMR spectrum
   Ute Becker             : Parallelization
   Giovanni Bistoni       : ED, misc. LED, open-shell LED, HFLD
   Martin Brehm           : Molecular dynamics
   Dmytro Bykov           : SCF Hessian
   Vijay G. Chilkuri      : MRCI spin determinant printing, contributions to CSF-ICE
   Dipayan Datta          : RHF DLPNO-CCSD density
   Achintya Kumar Dutta   : EOM-CC, STEOM-CC
   Dmitry Ganyushin       : Spin-Orbit,Spin-Spin,Magnetic field MRCI
   Miquel Garcia          : C-PCM and meta-GGA Hessian, CC/C-PCM, Gaussian charge scheme
   Yang Guo               : DLPNO-NEVPT2, F12-NEVPT2, CIM, IAO-localization
   Andreas Hansen         : Spin unrestricted coupled pair/coupled cluster methods
   Benjamin Helmich-Paris : MC-RPA, TRAH-SCF, COSX integrals
   Lee Huntington         : MR-EOM, pCC
   Robert Izsak           : Overlap fitted RIJCOSX, COSX-SCS-MP3, EOM
   Marcus Kettner         : VPT2
   Christian Kollmar      : KDIIS, OOCD, Brueckner-CCSD(T), CCSD density, CASPT2, CASPT2-K
   Simone Kossmann        : Meta GGA functionals, TD-DFT gradient, OOMP2, MP2 Hessian
   Martin Krupicka        : Initial AUTO-CI
   Lucas Lang             : DCDCAS
   Marvin Lechner         : AUTO-CI (C++ implementation), FIC-MRCC
   Dagmar Lenk            : GEPOL surface, SMD
   Dimitrios Liakos       : Extrapolation schemes; Compound Job, initial MDCI parallelization
   Dimitrios Manganas     : Further ROCIS development; embedding schemes
   Dimitrios Pantazis     : SARC Basis sets
   Anastasios Papadopoulos: AUTO-CI, single reference methods and gradients
   Taras Petrenko         : DFT Hessian,TD-DFT gradient, ASA, ECA, R-Raman, ABS, FL, XAS/XES, NRVS
   Peter Pinski           : DLPNO-MP2, DLPNO-MP2 Gradient
   Christoph Reimann      : Effective Core Potentials
   Marius Retegan         : Local ZFS, SOC
   Christoph Riplinger    : Optimizer, TS searches, QM/MM, DLPNO-CCSD(T), (RO)-DLPNO pert. Triples
   Tobias Risthaus        : Range-separated hybrids, TD-DFT gradient, RPA, STAB
   Michael Roemelt        : Original ROCIS implementation
   Masaaki Saitow         : Open-shell DLPNO-CCSD energy and density
   Barbara Sandhoefer     : DKH picture change effects
   Avijit Sen             : IP-ROCIS
   Kantharuban Sivalingam : CASSCF convergence, NEVPT2, FIC-MRCI
   Bernardo de Souza      : ESD, SOC TD-DFT
   Georgi Stoychev        : AutoAux, RI-MP2 NMR, DLPNO-MP2 response
   Willem Van den Heuvel  : Paramagnetic NMR
   Boris Wezisla          : Elementary symmetry handling
   Frank Wennmohs         : Technical directorship


 We gratefully acknowledge several colleagues who have allowed us to
 interface, adapt or use parts of their codes:
   Stefan Grimme, W. Hujo, H. Kruse, P. Pracht,  : VdW corrections, initial TS optimization,
                  C. Bannwarth, S. Ehlert          DFT functionals, gCP, sTDA/sTD-DF
   Ed Valeev, F. Pavosevic, A. Kumar             : LibInt (2-el integral package), F12 methods
   Garnet Chan, S. Sharma, J. Yang, R. Olivares  : DMRG
   Ulf Ekstrom                                   : XCFun DFT Library
   Mihaly Kallay                                 : mrcc  (arbitrary order and MRCC methods)
   Jiri Pittner, Ondrej Demel                    : Mk-CCSD
   Frank Weinhold                                : gennbo (NPA and NBO analysis)
   Christopher J. Cramer and Donald G. Truhlar   : smd solvation model
   Lars Goerigk                                  : TD-DFT with DH, B97 family of functionals
   V. Asgeirsson, H. Jonsson                     : NEB implementation
   FAccTs GmbH                                   : IRC, NEB, NEB-TS, DLPNO-Multilevel, CI-OPT
                                                   MM, QMMM, 2- and 3-layer-ONIOM, Crystal-QMMM,
                                                   LR-CPCM, SF, NACMEs, symmetry and pop. for TD-DFT,
                                                   nearIR, NL-DFT gradient (VV10), updates on ESD,
                                                   ML-optimized integration grids
   S Lehtola, MJT Oliveira, MAL Marques          : LibXC Library
   Liviu Ungur et al                             : ANISO software


 Your calculation uses the libint2 library for the computation of 2-el integrals
 For citations please refer to: http://libint.valeyev.net

 Your ORCA version has been built with support for libXC version: 5.1.0
 For citations please refer to: https://tddft.org/programs/libxc/

 This ORCA versions uses:
   CBLAS   interface :  Fast vector & matrix operations
   LAPACKE interface :  Fast linear algebra routines
   SCALAPACK package :  Parallel linear algebra routines
   Shared memory     :  Shared parallel matrices
   BLAS/LAPACK       :  OpenBLAS 0.3.15  USE64BITINT DYNAMIC_ARCH NO_AFFINITY Haswell SINGLE_THREADED
        Core in use  :  Haswell
   Copyright (c) 2011-2014, The OpenBLAS Project


Your calculation utilizes the atom-pairwise dispersion correction
with the Becke-Johnson damping scheme (D3BJ)
Cite in your paper:
S.Grimme, S.Ehrlich, L.Goerigk, J Comput Chem, (2011), 32, 1456–1465 
S.Grimme, J.Antony, S.Ehrlich and H.Krieg, J.Chem.Phys., 132, (2010), 154104 
   

Your calculation utilizes the SMD solvation module
Please cite in your paper:
A.V. Marenich, C.J. Cramer, D.G. Truhlar J. Phys. Chem. B, 113, (2009), 6378 

================================================================================

----- Orbital basis set information -----
Your calculation utilizes the basis: aug-cc-pVTZ 
    H, B-Ne : Obtained from the ccRepo (grant-hill.group.shef.ac.uk/ccrepo) Feb. 2017
              R. A. Kendall, T. H. Dunning, Jr., R. J. Harrison, J. Chem. Phys. 96, 6796 (1992)
         He : Obtained from the ccRepo (grant-hill.group.shef.ac.uk/ccrepo) Feb. 2017
              D. E. Woon, T. H. Dunning, Jr., J. Chem. Phys. 100, 2975 (1994)
  Li-Be, Na : Obtained from the ccRepo (grant-hill.group.shef.ac.uk/ccrepo) Feb. 2017
              B. P. Prascher, D. E. Woon, K. A. Peterson, T. H. Dunning, Jr., A. K. Wilson, Theor. Chem. Acc. 128, 69 (2011)
         Mg : Obtained from the Peterson Research Group Website (tyr0.chem.wsu.edu/~kipeters) Feb. 2017
              B. P. Prascher, D. E. Woon, K. A. Peterson, T. H. Dunning, Jr., A. K. Wilson, Theor. Chem. Acc. 128, 69 (2011)
      Al-Ar : Obtained from the ccRepo (grant-hill.group.shef.ac.uk/ccrepo) Feb. 2017
              D. E. Woon, T. H. Dunning, Jr., J. Chem. Phys. 98, 1358 (1993)
      Sc-Zn : Obtained from the ccRepo (grant-hill.group.shef.ac.uk/ccrepo) Feb. 2017
              N. B. Balabanov, K. A. Peterson, J. Chem. Phys. 123, 064107 (2005)
              N. B. Balabanov, K. A. Peterson, J. Chem. Phys. 125, 074110 (2006)
      Ga-Kr : Obtained from the ccRepo (grant-hill.group.shef.ac.uk/ccrepo) Feb. 2017
              A. K. Wilson, D. E. Woon, K. A. Peterson, T. H. Dunning, Jr., J. Chem. Phys. 110, 7667 (1999)
     Ag, Au : Obtained from the Peterson Research Group Website (tyr0.chem.wsu.edu/~kipeters) Feb. 2017
              K. A. Peterson, C. Puzzarini, Theor. Chem. Acc. 114, 283 (2005)

The basis set includes element-specific modifications.

Your calculation utilizes the basis: cc-pVTZ 
       H, B-Ne : Obtained from the ccRepo (grant-hill.group.shef.ac.uk/ccrepo) Feb. 2017
                 T. H. Dunning, Jr., J. Chem. Phys. 90, 1007 (1989)
            He : Obtained from the ccRepo (grant-hill.group.shef.ac.uk/ccrepo) Feb. 2017
                 D. E. Woon, T. H. Dunning, Jr., J. Chem. Phys. 100, 2975 (1994)
  Li-Be, Na-Mg : Obtained from the ccRepo (grant-hill.group.shef.ac.uk/ccrepo) Feb. 2017
                 B. P. Prascher, D. E. Woon, K. A. Peterson, T. H. Dunning, Jr., A. K. Wilson, Theor. Chem. Acc. 128, 69 (2011)
         Al-Ar : Obtained from the ccRepo (grant-hill.group.shef.ac.uk/ccrepo) Feb. 2017
                 D. E. Woon, T. H. Dunning, Jr., J. Chem. Phys. 98, 1358 (1993)
            Ca : Obtained from the Peterson Research Group Website (tyr0.chem.wsu.edu/~kipeters) Feb. 2017
                 J. Koput, K. A. Peterson, J. Phys. Chem. 106, 9595 (2002)
         Sc-Zn : Obtained from the ccRepo (grant-hill.group.shef.ac.uk/ccrepo) Feb. 2017
                 N. B. Balabanov, K. A. Peterson, J. Chem. Phys. 123, 064107 (2005)
                 N. B. Balabanov, K. A. Peterson, J. Chem. Phys. 125, 074110 (2006)
         Ga-Kr : Obtained from the ccRepo (grant-hill.group.shef.ac.uk/ccrepo) Feb. 2017
                 A. K. Wilson, D. E. Woon, K. A. Peterson, T. H. Dunning, Jr., J. Chem. Phys. 110, 7667 (1999)
             Y : Obtained from the ccRepo (grant-hill.group.shef.ac.uk/ccrepo) Feb. 2017
                 K. A. Peterson, D. Figgen, M. Dolg, H. Stoll, J. Chem. Phys. 126, 124101 (2007)
        Ag, Au : Obtained from the Peterson Research Group Website (tyr0.chem.wsu.edu/~kipeters) Feb. 2017
                 K. A. Peterson, C. Puzzarini, Theor. Chem. Acc. 114, 283 (2005)

----- AuxJ basis set information -----
Your calculation utilizes the auxiliary basis: aug-cc-pVTZ/JK 
  H, B-F, Al-Cl, Ga-Br : Obtained from the TURBOMOLE 7.0 basis set library

The basis set includes element-specific modifications.

Your calculation utilizes the auxiliary basis: cc-pVTZ/JK 
  H, B-F, Al-Cl, Ga-Br : Obtained from the TURBOMOLE 7.0 basis set library

----- AuxC basis set information -----
Your calculation utilizes the auxiliary basis: aug-cc-pVTZ/C 
  H-He, B-F, Al-Ar, Ga-Kr : Obtained from the EMSL Basis Set Exchange (bse.pnl.gov) Feb. 2017
                            F. Weigend, A. Kohn, C. Hattig, J. Chem. Phys. 116, 3175 (2002)
                   Be, Mg : Obtained from the TURBOMOLE 7.0 basis set library
                            C. Haettig, Phys. Chem. Chem. Phys. 7, 59 (2005)
                       Ne : Obtained from the EMSL Basis Set Exchange (bse.pnl.gov) Feb. 2017
                            C. Haettig, Phys. Chem. Chem. Phys. 7, 59 (2005)
                            F. Weigend, A. Kohn, C. Hattig, J. Chem. Phys. 116, 3175 (2002)
                    Sc-Zn : Obtained from the EMSL Basis Set Exchange (bse.pnl.gov) Feb. 2017
                            J. G. Hill, J. A. Platts, J. Chem. Phys. 128, 044104 (2008)

The basis set includes element-specific modifications.

Your calculation utilizes the auxiliary basis: cc-pVTZ/C 
  Obtained from the EMSL Basis Set Exchange (bse.pnl.gov) Feb. 2017
  H-He, B-F, Al-Ar, Ga-Kr : F. Weigend, A. Kohn, C. Hattig, J. Chem. Phys. 116, 3175 (2002)
             Li-Be, Na-Mg : C. Haettig, Phys. Chem. Chem. Phys. 7, 59 (2005)
                       Ne : C. Haettig, Phys. Chem. Chem. Phys. 7, 59 (2005)
                            F. Weigend, A. Kohn, C. Hattig, J. Chem. Phys. 116, 3175 (2002)
                    Sc-Zn : J. G. Hill, J. A. Platts, J. Chem. Phys. 128, 044104 (2008)

================================================================================
                                        WARNINGS
                       Please study these warnings very carefully!
================================================================================


WARNING: Geometry Optimization
  ===> : Switching off AutoStart
         For restart on a previous wavefunction, please use MOREAD

INFO   : the flag for use of the SHARK integral package has been found!



***************************************
The coordinates will be read from file: 
***************************************


Your calculation utilizes the atom-pairwise dispersion correction
with the Becke-Johnson damping scheme (D3BJ)
Cite in your paper:
S.Grimme, S.Ehrlich, L.Goerigk, J Comput Chem, (2011), 32, 1456–1465 
S.Grimme, J.Antony, S.Ehrlich and H.Krieg, J.Chem.Phys., 132, (2010), 154104 
   

Your calculation utilizes the SMD solvation module
Please cite in your paper:
A.V. Marenich, C.J. Cramer, D.G. Truhlar J. Phys. Chem. B, 113, (2009), 6378 

================================================================================

----- Orbital basis set information -----
Your calculation utilizes the basis: aug-cc-pVTZ 
    H, B-Ne : Obtained from the ccRepo (grant-hill.group.shef.ac.uk/ccrepo) Feb. 2017
              R. A. Kendall, T. H. Dunning, Jr., R. J. Harrison, J. Chem. Phys. 96, 6796 (1992)
         He : Obtained from the ccRepo (grant-hill.group.shef.ac.uk/ccrepo) Feb. 2017
              D. E. Woon, T. H. Dunning, Jr., J. Chem. Phys. 100, 2975 (1994)
  Li-Be, Na : Obtained from the ccRepo (grant-hill.group.shef.ac.uk/ccrepo) Feb. 2017
              B. P. Prascher, D. E. Woon, K. A. Peterson, T. H. Dunning, Jr., A. K. Wilson, Theor. Chem. Acc. 128, 69 (2011)
         Mg : Obtained from the Peterson Research Group Website (tyr0.chem.wsu.edu/~kipeters) Feb. 2017
              B. P. Prascher, D. E. Woon, K. A. Peterson, T. H. Dunning, Jr., A. K. Wilson, Theor. Chem. Acc. 128, 69 (2011)
      Al-Ar : Obtained from the ccRepo (grant-hill.group.shef.ac.uk/ccrepo) Feb. 2017
              D. E. Woon, T. H. Dunning, Jr., J. Chem. Phys. 98, 1358 (1993)
      Sc-Zn : Obtained from the ccRepo (grant-hill.group.shef.ac.uk/ccrepo) Feb. 2017
              N. B. Balabanov, K. A. Peterson, J. Chem. Phys. 123, 064107 (2005)
              N. B. Balabanov, K. A. Peterson, J. Chem. Phys. 125, 074110 (2006)
      Ga-Kr : Obtained from the ccRepo (grant-hill.group.shef.ac.uk/ccrepo) Feb. 2017
              A. K. Wilson, D. E. Woon, K. A. Peterson, T. H. Dunning, Jr., J. Chem. Phys. 110, 7667 (1999)
     Ag, Au : Obtained from the Peterson Research Group Website (tyr0.chem.wsu.edu/~kipeters) Feb. 2017
              K. A. Peterson, C. Puzzarini, Theor. Chem. Acc. 114, 283 (2005)

The basis set includes element-specific modifications.

Your calculation utilizes the basis: cc-pVTZ 
       H, B-Ne : Obtained from the ccRepo (grant-hill.group.shef.ac.uk/ccrepo) Feb. 2017
                 T. H. Dunning, Jr., J. Chem. Phys. 90, 1007 (1989)
            He : Obtained from the ccRepo (grant-hill.group.shef.ac.uk/ccrepo) Feb. 2017
                 D. E. Woon, T. H. Dunning, Jr., J. Chem. Phys. 100, 2975 (1994)
  Li-Be, Na-Mg : Obtained from the ccRepo (grant-hill.group.shef.ac.uk/ccrepo) Feb. 2017
                 B. P. Prascher, D. E. Woon, K. A. Peterson, T. H. Dunning, Jr., A. K. Wilson, Theor. Chem. Acc. 128, 69 (2011)
         Al-Ar : Obtained from the ccRepo (grant-hill.group.shef.ac.uk/ccrepo) Feb. 2017
                 D. E. Woon, T. H. Dunning, Jr., J. Chem. Phys. 98, 1358 (1993)
            Ca : Obtained from the Peterson Research Group Website (tyr0.chem.wsu.edu/~kipeters) Feb. 2017
                 J. Koput, K. A. Peterson, J. Phys. Chem. 106, 9595 (2002)
         Sc-Zn : Obtained from the ccRepo (grant-hill.group.shef.ac.uk/ccrepo) Feb. 2017
                 N. B. Balabanov, K. A. Peterson, J. Chem. Phys. 123, 064107 (2005)
                 N. B. Balabanov, K. A. Peterson, J. Chem. Phys. 125, 074110 (2006)
         Ga-Kr : Obtained from the ccRepo (grant-hill.group.shef.ac.uk/ccrepo) Feb. 2017
                 A. K. Wilson, D. E. Woon, K. A. Peterson, T. H. Dunning, Jr., J. Chem. Phys. 110, 7667 (1999)
             Y : Obtained from the ccRepo (grant-hill.group.shef.ac.uk/ccrepo) Feb. 2017
                 K. A. Peterson, D. Figgen, M. Dolg, H. Stoll, J. Chem. Phys. 126, 124101 (2007)
        Ag, Au : Obtained from the Peterson Research Group Website (tyr0.chem.wsu.edu/~kipeters) Feb. 2017
                 K. A. Peterson, C. Puzzarini, Theor. Chem. Acc. 114, 283 (2005)

----- AuxJ basis set information -----
Your calculation utilizes the auxiliary basis: aug-cc-pVTZ/JK 
  H, B-F, Al-Cl, Ga-Br : Obtained from the TURBOMOLE 7.0 basis set library

The basis set includes element-specific modifications.

Your calculation utilizes the auxiliary basis: cc-pVTZ/JK 
  H, B-F, Al-Cl, Ga-Br : Obtained from the TURBOMOLE 7.0 basis set library

----- AuxC basis set information -----
Your calculation utilizes the auxiliary basis: aug-cc-pVTZ/C 
  H-He, B-F, Al-Ar, Ga-Kr : Obtained from the EMSL Basis Set Exchange (bse.pnl.gov) Feb. 2017
                            F. Weigend, A. Kohn, C. Hattig, J. Chem. Phys. 116, 3175 (2002)
                   Be, Mg : Obtained from the TURBOMOLE 7.0 basis set library
                            C. Haettig, Phys. Chem. Chem. Phys. 7, 59 (2005)
                       Ne : Obtained from the EMSL Basis Set Exchange (bse.pnl.gov) Feb. 2017
                            C. Haettig, Phys. Chem. Chem. Phys. 7, 59 (2005)
                            F. Weigend, A. Kohn, C. Hattig, J. Chem. Phys. 116, 3175 (2002)
                    Sc-Zn : Obtained from the EMSL Basis Set Exchange (bse.pnl.gov) Feb. 2017
                            J. G. Hill, J. A. Platts, J. Chem. Phys. 128, 044104 (2008)

The basis set includes element-specific modifications.

Your calculation utilizes the auxiliary basis: cc-pVTZ/C 
  Obtained from the EMSL Basis Set Exchange (bse.pnl.gov) Feb. 2017
  H-He, B-F, Al-Ar, Ga-Kr : F. Weigend, A. Kohn, C. Hattig, J. Chem. Phys. 116, 3175 (2002)
             Li-Be, Na-Mg : C. Haettig, Phys. Chem. Chem. Phys. 7, 59 (2005)
                       Ne : C. Haettig, Phys. Chem. Chem. Phys. 7, 59 (2005)
                            F. Weigend, A. Kohn, C. Hattig, J. Chem. Phys. 116, 3175 (2002)
                    Sc-Zn : J. G. Hill, J. A. Platts, J. Chem. Phys. 128, 044104 (2008)

================================================================================
                                        WARNINGS
                       Please study these warnings very carefully!
================================================================================

INFO   : Checking CIS options ...
  ===> : (D) CORRECTION FOUND - SETTING MODE=3
  ===> : JK MODE FOUND - ACTIVATING RI-MP2 CODE
  ===> : MP2 AND CIS FOUND - CHECKING
WARNING: CIS(D) and MP2 runs must have the same orbital window
  ===> : adjusting orbital windows

WARNING: No MP2 level density has been requested!
         To caclulate MP2 level properties use
         %mp2 Density relaxed end
         or
         %mp2 Density unrelaxed end
         Otherwise for double-hybrid DFT only the energy is correct!

WARNING: The frozen-core approximation is turned on by default for 
         the MP2 part of double-hybrid DFT.

INFO   : the flag for use of the SHARK integral package has been found!

================================================================================
                                       INPUT FILE
================================================================================
NAME = optpbed3-b2plyp-test-532.inp
|  1> ! pbe0 d3bj aug-cc-PVTZ RIJCOSX Opt
|  2> %maxcore 4000
|  3> %basis
|  4>  AuxJ "aug-cc-PVTZ/JK"
|  5>  AuxC "aug-cc-PVTZ/C"
|  6>  newGTO H "cc-PVTZ" end
|  7>  newAuxJGTO H "cc-PVTZ/JK" end
|  8>  newAuxCGTO H "cc-PVTZ/C" end
|  9> end
| 10> %cpcm
| 11>  SMD true
| 12>  SMDsolvent "cyclohexane"
| 13> end
| 14> %pal nprocs 4 end
| 15> * xyz 0 1
| 16> C         -0.81160       -0.93470        1.69790
| 17> C         -0.37050       -0.17580        0.48320
| 18> C         -1.19370        0.42270       -0.39900
| 19> C         -2.64210        0.51690       -0.34980
| 20> C         -3.35540        0.48940       -1.55240
| 21> C         -4.73270        0.56260       -1.57040
| 22> C         -5.42210        0.69150       -0.37360
| 23> Cl        -7.14770        0.78670       -0.38550
| 24> C         -4.73800        0.75990        0.82960
| 25> C         -3.35930        0.67090        0.83830
| 26> C          1.05610       -0.15710        0.26750
| 27> N          1.90660       -0.74410        1.02960
| 28> C          3.19050       -0.57740        0.62230
| 29> C          4.32170       -1.09740        1.24810
| 30> C          5.56060       -0.83610        0.70520
| 31> C          5.69390       -0.06640       -0.44980
| 32> C          4.58800        0.45990       -1.08810
| 33> C          3.33970        0.20250       -0.54870
| 34> S          1.78090        0.71570       -1.11040
| 35> H         -1.82160       -1.31520        1.57150
| 36> H         -0.12530       -1.75970        1.87030
| 37> H         -0.77780       -0.29470        2.57870
| 38> H         -0.74860        0.86000       -1.28570
| 39> H         -2.81650        0.39110       -2.48330
| 40> H         -5.27320        0.52590       -2.50330
| 41> H         -5.28310        0.88510        1.75220
| 42> H         -2.83470        0.76430        1.77490
| 43> H          4.20480       -1.69090        2.14060
| 44> H          6.44570       -1.23240        1.17990
| 45> H          6.67760        0.12160       -0.85280
| 46> H          4.68780        1.05540       -1.98220
| 47> *
| 48> 
| 49> 
| 50> $new_job
| 51> ! b2plyp aug-cc-PVTZ RIJCOSX SP
| 52> %maxcore 4000
| 53> %basis
| 54>  AuxJ "aug-cc-PVTZ/JK"
| 55>  AuxC "aug-cc-PVTZ/C"
| 56>  newGTO H "cc-PVTZ" end
| 57>  newAuxJGTO H "cc-PVTZ/JK" end
| 58>  newAuxCGTO H "cc-PVTZ/C" end
| 59> end
| 60> %cpcm
| 61>  SMD true
| 62>  SMDsolvent "cyclohexane"
| 63> end
| 64> %pal nprocs 4 end
| 65> %tddft
| 66>  nroots 10
| 67>  maxdim 7
| 68> end
| 69> * xyzfile 0 1
| 70> 
| 71>                          ****END OF INPUT****
================================================================================


                 $$$$$$$$$$$$$$$$$$$$$$$$$$$$$$$$$$$$$$$$$$$$$$ 
                 $ THERE ARE  2 JOBS TO BE PROCESSED THIS RUN $
                 $$$$$$$$$$$$$$$$$$$$$$$$$$$$$$$$$$$$$$$$$$$$$$ 




                 $$$$$$$$$$$$$$$$  JOB NUMBER  1 $$$$$$$$$$$$$$


                       *****************************
                       * Geometry Optimization Run *
                       *****************************

Geometry optimization settings:
Update method            Update   .... BFGS
Choice of coordinates    CoordSys .... Z-matrix Internals
Initial Hessian          InHess   .... Almoef's Model

Convergence Tolerances:
Energy Change            TolE     ....  5.0000e-06 Eh
Max. Gradient            TolMAXG  ....  3.0000e-04 Eh/bohr
RMS Gradient             TolRMSG  ....  1.0000e-04 Eh/bohr
Max. Displacement        TolMAXD  ....  4.0000e-03 bohr
RMS Displacement         TolRMSD  ....  2.0000e-03 bohr
Strict Convergence                ....  False
------------------------------------------------------------------------------
                        ORCA OPTIMIZATION COORDINATE SETUP
------------------------------------------------------------------------------

The optimization will be done in new redundant internal coordinates
Making redundant internal coordinates   ...  (new redundants) done
Evaluating the initial hessian          ...  (Almloef) done
Evaluating the coordinates              ...  done
Calculating the B-matrix                .... done
Calculating the G-matrix                .... done
Diagonalizing the G-matrix              .... done
Small eigenvalue found = 3.009e-03
Small eigenvalue found = 1.124e-02
Small eigenvalue found = 1.893e-02
The first mode is                       ....   73
The number of degrees of freedom        ....   87

    -----------------------------------------------------------------
                    Redundant Internal Coordinates


    -----------------------------------------------------------------
         Definition                    Initial Value    Approx d2E/dq
    -----------------------------------------------------------------
      1. B(C   1,C   0)                  1.4987         0.419152   
      2. B(C   2,C   1)                  1.3469         0.731987   
      3. B(C   3,C   2)                  1.4523         0.496996   
      4. B(C   4,C   3)                  1.3985         0.605590   
      5. B(C   5,C   4)                  1.3794         0.649699   
      6. B(C   6,C   5)                  1.3872         0.631345   
      7. B(Cl  7,C   6)                  1.7283         0.404626   
      8. B(C   8,C   6)                  1.3858         0.634579   
      9. B(C   9,C   8)                  1.3816         0.644384   
     10. B(C   9,C   3)                  1.3963         0.610486   
     11. B(C  10,C   1)                  1.4429         0.514379   
     12. B(N  11,C  10)                  1.2840         0.825952   
     13. B(C  12,N  11)                  1.3572         0.631180   
     14. B(C  13,C  12)                  1.3934         0.616980   
     15. B(C  14,C  13)                  1.3776         0.653820   
     16. B(C  15,C  14)                  1.3944         0.614875   
     17. B(C  16,C  15)                  1.3811         0.645565   
     18. B(C  17,C  16)                  1.3840         0.638718   
     19. B(C  17,C  12)                  1.4148         0.570326   
     20. B(S  18,C  17)                  1.7346         0.475077   
     21. B(S  18,C  10)                  1.7849         0.394942   
     22. B(H  19,C   0)                  1.0867         0.364529   
     23. B(H  20,C   0)                  1.0869         0.364223   
     24. B(H  21,C   0)                  1.0893         0.361041   
     25. B(H  22,C   2)                  1.0842         0.367797   
     26. B(H  23,C   4)                  1.0801         0.373415   
     27. B(H  24,C   5)                  1.0788         0.375238   
     28. B(H  25,C   8)                  1.0789         0.375104   
     29. B(H  26,C   9)                  1.0776         0.376930   
     30. B(H  27,C  13)                  1.0782         0.376086   
     31. B(H  28,C  14)                  1.0797         0.373959   
     32. B(H  29,C  15)                  1.0795         0.374199   
     33. B(H  30,C  16)                  1.0789         0.375107   
     34. A(C   1,C   0,H  20)          109.0916         0.331154   
     35. A(C   1,C   0,H  21)          110.4100         0.330673   
     36. A(H  19,C   0,H  21)          109.1852         0.291518   
     37. A(C   1,C   0,H  19)          110.8912         0.331200   
     38. A(H  19,C   0,H  20)          109.8493         0.291921   
     39. A(H  20,C   0,H  21)          107.3444         0.291480   
     40. A(C   0,C   1,C   2)          125.1701         0.416900   
     41. A(C   2,C   1,C  10)          120.0392         0.432452   
     42. A(C   0,C   1,C  10)          114.7539         0.391735   
     43. A(C   1,C   2,C   3)          128.0374         0.429790   
     44. A(C   3,C   2,H  22)          114.2652         0.341230   
     45. A(C   1,C   2,H  22)          117.6435         0.364331   
     46. A(C   2,C   3,C   4)          118.5726         0.415478   
     47. A(C   2,C   3,C   9)          123.2466         0.416073   
     48. A(C   4,C   3,C   9)          118.1567         0.431035   
     49. A(C   3,C   4,H  23)          119.2380         0.353674   
     50. A(C   3,C   4,C   5)          121.2962         0.435888   
     51. A(C   5,C   4,H  23)          119.4567         0.357920   
     52. A(C   6,C   5,H  24)          120.0166         0.356476   
     53. A(C   4,C   5,H  24)          120.6475         0.358216   
     54. A(C   4,C   5,C   6)          119.3351         0.439174   
     55. A(C   5,C   6,C   8)          120.5537         0.437313   
     56. A(C   5,C   6,Cl  7)          119.6960         0.421730   
     57. A(Cl  7,C   6,C   8)          119.7462         0.422115   
     58. A(C   9,C   8,H  25)          120.4159         0.357694   
     59. A(C   6,C   8,C   9)          119.6640         0.438928   
     60. A(C   6,C   8,H  25)          119.9198         0.356763   
     61. A(C   3,C   9,C   8)          120.9514         0.435876   
     62. A(C   8,C   9,H  26)          119.0588         0.357990   
     63. A(C   3,C   9,H  26)          119.9388         0.354720   
     64. A(C   1,C  10,N  11)          124.0713         0.439065   
     65. A(N  11,C  10,S  18)          114.3790         0.441893   
     66. A(C   1,C  10,S  18)          121.5488         0.408654   
     67. A(C  10,N  11,C  12)          113.0988         0.452643   
     68. A(C  13,C  12,C  17)          119.4596         0.427231   
     69. A(N  11,C  12,C  17)          114.5721         0.426180   
     70. A(N  11,C  12,C  13)          125.9683         0.432234   
     71. A(C  14,C  13,H  27)          121.8790         0.358740   
     72. A(C  12,C  13,H  27)          119.2860         0.355222   
     73. A(C  12,C  13,C  14)          118.8350         0.437853   
     74. A(C  15,C  14,H  28)          119.2369         0.354675   
     75. A(C  13,C  14,H  28)          119.6249         0.358393   
     76. A(C  13,C  14,C  15)          121.1382         0.437584   
     77. A(C  16,C  15,H  29)          119.3902         0.357659   
     78. A(C  14,C  15,H  29)          119.5028         0.354713   
     79. A(C  14,C  15,C  16)          121.1070         0.436583   
     80. A(C  17,C  16,H  30)          120.6022         0.357158   
     81. A(C  15,C  16,H  30)          121.2837         0.357806   
     82. A(C  15,C  16,C  17)          118.1141         0.439589   
     83. A(C  16,C  17,S  18)          128.9998         0.439043   
     84. A(C  12,C  17,S  18)          109.6541         0.430184   
     85. A(C  12,C  17,C  16)          121.3461         0.429892   
     86. A(C  10,S  18,C  17)           88.2959         0.424996   
     87. D(C  10,C   1,C   0,H  21)     85.7253         0.012993   
     88. D(C   2,C   1,C   0,H  20)    145.7716         0.012993   
     89. D(C   2,C   1,C   0,H  21)    -96.4932         0.012993   
     90. D(C   2,C   1,C   0,H  19)     24.6602         0.012993   
     91. D(C  10,C   1,C   0,H  20)    -32.0099         0.012993   
     92. D(C  10,C   1,C   0,H  19)   -153.1213         0.012993   
     93. D(H  22,C   2,C   1,C  10)      3.2852         0.038036   
     94. D(H  22,C   2,C   1,C   0)   -174.3875         0.038036   
     95. D(C   3,C   2,C   1,C   0)      2.7726         0.038036   
     96. D(C   3,C   2,C   1,C  10)   -179.5547         0.038036   
     97. D(C   9,C   3,C   2,H  22)   -146.6566         0.016822   
     98. D(C   4,C   3,C   2,H  22)     31.5217         0.016822   
     99. D(C   4,C   3,C   2,C   1)   -145.7190         0.016822   
    100. D(C   9,C   3,C   2,C   1)     36.1028         0.016822   
    101. D(C   5,C   4,C   3,C   2)    179.3959         0.025308   
    102. D(H  23,C   4,C   3,C   9)    178.7738         0.025308   
    103. D(H  23,C   4,C   3,C   2)      0.5018         0.025308   
    104. D(C   5,C   4,C   3,C   9)     -2.3321         0.025308   
    105. D(H  24,C   5,C   4,H  23)     -0.2049         0.029388   
    106. D(H  24,C   5,C   4,C   3)   -179.0966         0.029388   
    107. D(C   6,C   5,C   4,H  23)   -179.8723         0.029388   
    108. D(C   6,C   5,C   4,C   3)      1.2361         0.029388   
    109. D(C   8,C   6,C   5,H  24)   -179.0298         0.027644   
    110. D(C   8,C   6,C   5,C   4)      0.6397         0.027644   
    111. D(Cl  7,C   6,C   5,H  24)      0.2289         0.027644   
    112. D(Cl  7,C   6,C   5,C   4)    179.8984         0.027644   
    113. D(H  25,C   8,C   6,Cl  7)     -0.7975         0.027947   
    114. D(H  25,C   8,C   6,C   5)    178.4609         0.027947   
    115. D(C   9,C   8,C   6,Cl  7)    179.3893         0.027947   
    116. D(C   9,C   8,C   6,C   5)     -1.3524         0.027947   
    117. D(C   8,C   9,C   3,C   2)    179.7858         0.025742   
    118. D(H  26,C   9,C   8,H  25)     -2.2087         0.028876   
    119. D(H  26,C   9,C   8,C   6)    177.6037         0.028876   
    120. D(C   3,C   9,C   8,H  25)   -179.6093         0.028876   
    121. D(H  26,C   9,C   3,C   4)   -175.7774         0.025742   
    122. D(H  26,C   9,C   3,C   2)      2.4079         0.025742   
    123. D(C   8,C   9,C   3,C   4)      1.6005         0.025742   
    124. D(C   3,C   9,C   8,C   6)      0.2031         0.028876   
    125. D(S  18,C  10,C   1,C   2)      3.0769         0.018037   
    126. D(S  18,C  10,C   1,C   0)   -179.0180         0.018037   
    127. D(N  11,C  10,C   1,C   2)   -177.2837         0.018037   
    128. D(N  11,C  10,C   1,C   0)      0.6215         0.018037   
    129. D(C  12,N  11,C  10,S  18)     -0.0823         0.052988   
    130. D(C  12,N  11,C  10,C   1)   -179.7450         0.052988   
    131. D(C  17,C  12,N  11,C  10)      0.0399         0.029306   
    132. D(C  13,C  12,N  11,C  10)   -179.9420         0.029306   
    133. D(H  27,C  13,C  12,C  17)    179.9676         0.026325   
    134. D(H  27,C  13,C  12,N  11)     -0.0513         0.026325   
    135. D(C  14,C  13,C  12,C  17)     -0.0228         0.026325   
    136. D(C  14,C  13,C  12,N  11)    179.9583         0.026325   
    137. D(H  28,C  14,C  13,H  27)     -0.0131         0.029789   
    138. D(H  28,C  14,C  13,C  12)    179.9770         0.029789   
    139. D(C  15,C  14,C  13,H  27)   -179.9958         0.029789   
    140. D(C  15,C  14,C  13,C  12)     -0.0057         0.029789   
    141. D(H  29,C  15,C  14,H  28)      0.0421         0.026135   
    142. D(H  29,C  15,C  14,C  13)   -179.9751         0.026135   
    143. D(C  16,C  15,C  14,H  28)   -179.9765         0.026135   
    144. D(C  16,C  15,C  14,C  13)      0.0063         0.026135   
    145. D(H  30,C  16,C  15,H  29)      0.0135         0.028990   
    146. D(H  30,C  16,C  15,C  14)   -179.9679         0.028990   
    147. D(C  17,C  16,C  15,H  29)   -179.9964         0.028990   
    148. D(C  17,C  16,C  15,C  14)      0.0222         0.028990   
    149. D(C  16,C  17,C  12,N  11)   -179.9307         0.022314   
    150. D(S  18,C  17,C  16,H  30)     -0.0026         0.028337   
    151. D(S  18,C  17,C  16,C  15)   -179.9928         0.028337   
    152. D(C  12,C  17,C  16,H  30)    179.9388         0.028337   
    153. D(C  12,C  17,C  16,C  15)     -0.0514         0.028337   
    154. D(S  18,C  17,C  12,C  13)   -179.9959         0.022314   
    155. D(S  18,C  17,C  12,N  11)      0.0210         0.022314   
    156. D(C  16,C  17,C  12,C  13)      0.0525         0.022314   
    157. D(C  10,S  18,C  17,C  16)    179.8948         0.004829   
    158. D(C  10,S  18,C  17,C  12)     -0.0521         0.004829   
    159. D(C  17,S  18,C  10,N  11)      0.0793         0.003765   
    160. D(C  17,S  18,C  10,C   1)    179.7514         0.003765   
    -----------------------------------------------------------------

Number of atoms                         .... 31
Number of degrees of freedom            .... 160

         *************************************************************
         *                GEOMETRY OPTIMIZATION CYCLE   1            *
         *************************************************************
---------------------------------
CARTESIAN COORDINATES (ANGSTROEM)
---------------------------------
  C     -0.811600   -0.934700    1.697900
  C     -0.370500   -0.175800    0.483200
  C     -1.193700    0.422700   -0.399000
  C     -2.642100    0.516900   -0.349800
  C     -3.355400    0.489400   -1.552400
  C     -4.732700    0.562600   -1.570400
  C     -5.422100    0.691500   -0.373600
  Cl    -7.147700    0.786700   -0.385500
  C     -4.738000    0.759900    0.829600
  C     -3.359300    0.670900    0.838300
  C      1.056100   -0.157100    0.267500
  N      1.906600   -0.744100    1.029600
  C      3.190500   -0.577400    0.622300
  C      4.321700   -1.097400    1.248100
  C      5.560600   -0.836100    0.705200
  C      5.693900   -0.066400   -0.449800
  C      4.588000    0.459900   -1.088100
  C      3.339700    0.202500   -0.548700
  S      1.780900    0.715700   -1.110400
  H     -1.821600   -1.315200    1.571500
  H     -0.125300   -1.759700    1.870300
  H     -0.777800   -0.294700    2.578700
  H     -0.748600    0.860000   -1.285700
  H     -2.816500    0.391100   -2.483300
  H     -5.273200    0.525900   -2.503300
  H     -5.283100    0.885100    1.752200
  H     -2.834700    0.764300    1.774900
  H      4.204800   -1.690900    2.140600
  H      6.445700   -1.232400    1.179900
  H      6.677600    0.121600   -0.852800
  H      4.687800    1.055400   -1.982200

----------------------------
CARTESIAN COORDINATES (A.U.)
----------------------------
  NO LB      ZA    FRAG     MASS         X           Y           Z
   0 C     6.0000    0    12.011   -1.533702   -1.766327    3.208566
   1 C     6.0000    0    12.011   -0.700144   -0.332214    0.913116
   2 C     6.0000    0    12.011   -2.255766    0.798787   -0.754001
   3 C     6.0000    0    12.011   -4.992845    0.976799   -0.661026
   4 C     6.0000    0    12.011   -6.340787    0.924832   -2.933611
   5 C     6.0000    0    12.011   -8.943507    1.063160   -2.967626
   6 C     6.0000    0    12.011  -10.246284    1.306746   -0.706002
   7 Cl   17.0000    0    35.453  -13.507195    1.486648   -0.728489
   8 C     6.0000    0    12.011   -8.953522    1.436003    1.567717
   9 C     6.0000    0    12.011   -6.348157    1.267817    1.584157
  10 C     6.0000    0    12.011    1.995740   -0.296876    0.505502
  11 N     7.0000    0    14.007    3.602952   -1.406145    1.945662
  12 C     6.0000    0    12.011    6.029171   -1.091128    1.175977
  13 C     6.0000    0    12.011    8.166829   -2.073785    2.358567
  14 C     6.0000    0    12.011   10.508011   -1.580000    1.332635
  15 C     6.0000    0    12.011   10.759912   -0.125478   -0.849999
  16 C     6.0000    0    12.011    8.670064    0.869085   -2.056211
  17 C     6.0000    0    12.011    6.311118    0.382670   -1.036893
  18 S    16.0000    0    32.060    3.365413    1.352477   -2.098352
  19 H     1.0000    0     1.008   -3.442325   -2.485368    2.969705
  20 H     1.0000    0     1.008   -0.236783   -3.325351    3.534355
  21 H     1.0000    0     1.008   -1.469829   -0.556902    4.873037
  22 H     1.0000    0     1.008   -1.414649    1.625164   -2.429621
  23 H     1.0000    0     1.008   -5.322414    0.739072   -4.692757
  24 H     1.0000    0     1.008   -9.964904    0.993807   -4.730551
  25 H     1.0000    0     1.008   -9.983612    1.672597    3.311178
  26 H     1.0000    0     1.008   -5.356807    1.444318    3.354075
  27 H     1.0000    0     1.008    7.945920   -3.195338    4.045148
  28 H     1.0000    0     1.008   12.180608   -2.328898    2.229688
  29 H     1.0000    0     1.008   12.618835    0.229791   -1.611558
  30 H     1.0000    0     1.008    8.858658    1.994417   -3.745815

--------------------------------
INTERNAL COORDINATES (ANGSTROEM)
--------------------------------
 C      0   0   0     0.000000000000     0.00000000     0.00000000
 C      1   0   0     1.498664241917     0.00000000     0.00000000
 C      2   1   0     1.346899153612   125.17010617     0.00000000
 C      3   2   1     1.452293647993   128.03741017     2.77264391
 C      4   3   2     1.398499159814   118.57259878   214.28103465
 C      5   4   3     1.379361276098   121.29621238   179.39590764
 C      6   5   4     1.387161782201   119.33505291     1.23605581
 Cl     7   6   5     1.728265028866   119.69597518   179.89840393
 C      7   6   5     1.385771124681   120.55372677     0.63969738
 C      9   7   6     1.381597039661   119.66400408   358.64759267
 C      2   1   3     1.442935805918   114.75390144   182.21850007
 N     11   2   1     1.284023231877   124.07125578     0.62145883
 C     12  11   2     1.357232990315   113.09883814   180.25502681
 C     13  12  11     1.393427098918   125.96828052   180.05800240
 C     14  13  12     1.377639760605   118.83498429   179.95833037
 C     15  14  13     1.394357192401   121.13823079     0.00000000
 C     16  15  14     1.381098617044   121.10701122     0.00000000
 C     17  16  15     1.384001448699   118.11407595     0.00000000
 S     18  17  16     1.734571581112   128.99980489   180.00716405
 H      1   2   3     1.086672540373   110.89119181    24.66023803
 H      1   2   3     1.086901306467   109.09160903   145.77158054
 H      1   2   3     1.089289254514   110.40996407   263.50678900
 H      3   2   1     1.084242680400   117.64352350   185.61245517
 H      5   4   3     1.080116155791   119.23798193     0.50184641
 H      6   5   4     1.078790781384   120.64748689   180.90338776
 H      9   7   6     1.078888228687   119.91980571   178.46085091
 H     10   9   7     1.077565905177   119.05879387   177.60366312
 H     14  13  12     1.078176288925   119.28603175   359.94866236
 H     15  14  13     1.079720236913   119.62485876   179.97698403
 H     16  15  14     1.079545594220   119.50281349   180.02485378
 H     17  16  15     1.078886045883   121.28373018   180.03206263

---------------------------
INTERNAL COORDINATES (A.U.)
---------------------------
 C      0   0   0     0.000000000000     0.00000000     0.00000000
 C      1   0   0     2.832064983923     0.00000000     0.00000000
 C      2   1   0     2.545270530337   125.17010617     0.00000000
 C      3   2   1     2.744437260740   128.03741017     2.77264391
 C      4   3   2     2.642780410567   118.57259878   214.28103465
 C      5   4   3     2.606615051562   121.29621238   179.39590764
 C      6   5   4     2.621355871803   119.33505291     1.23605581
 Cl     7   6   5     3.265947591390   119.69597518   179.89840393
 C      7   6   5     2.618727909943   120.55372677     0.63969738
 C      9   7   6     2.610840032396   119.66400408   358.64759267
 C      2   1   3     2.726753502014   114.75390144   182.21850007
 N     11   2   1     2.426452257840   124.07125578     0.62145883
 C     12  11   2     2.564798651619   113.09883814   180.25502681
 C     13  12  11     2.633195604540   125.96828052   180.05800240
 C     14  13  12     2.603361858744   118.83498429   179.95833037
 C     15  14  13     2.634953226501   121.13823079     0.00000000
 C     16  15  14     2.609898150150   121.10701122     0.00000000
 C     17  16  15     2.615383706991   118.11407595     0.00000000
 S     18  17  16     3.277865247984   128.99980489   180.00716405
 H      1   2   3     2.053513498557   110.89119181    24.66023803
 H      1   2   3     2.053945803824   109.09160903   145.77158054
 H      1   2   3     2.058458371655   110.40996407   263.50678900
 H      3   2   1     2.048921728664   117.64352350   185.61245517
 H      5   4   3     2.041123727268   119.23798193     0.50184641
 H      6   5   4     2.038619132615   120.64748689   180.90338776
 H      9   7   6     2.038803281330   119.91980571   178.46085091
 H     10   9   7     2.036304452036   119.05879387   177.60366312
 H     14  13  12     2.037457910156   119.28603175   359.94866236
 H     15  14  13     2.040375549019   119.62485876   179.97698403
 H     16  15  14     2.040045522157   119.50281349   180.02485378
 H     17  16  15     2.038799156427   121.28373018   180.03206263

---------------------
BASIS SET INFORMATION
---------------------
There are 5 groups of distinct atoms

 Group   1 Type C   : 19s6p3d2f contracted to 5s4p3d2f pattern {88111/3111/111/11}
 Group   2 Type Cl  : 42s17p3d2f contracted to 6s5p3d2f pattern {131313111/77111/111/11}
 Group   3 Type N   : 19s6p3d2f contracted to 5s4p3d2f pattern {88111/3111/111/11}
 Group   4 Type S   : 42s17p3d2f contracted to 6s5p3d2f pattern {131313111/77111/111/11}
 Group   5 Type H   : 5s2p1d contracted to 3s2p1d pattern {311/11/1}

Atom   0C    basis set group =>   1
Atom   1C    basis set group =>   1
Atom   2C    basis set group =>   1
Atom   3C    basis set group =>   1
Atom   4C    basis set group =>   1
Atom   5C    basis set group =>   1
Atom   6C    basis set group =>   1
Atom   7Cl   basis set group =>   2
Atom   8C    basis set group =>   1
Atom   9C    basis set group =>   1
Atom  10C    basis set group =>   1
Atom  11N    basis set group =>   3
Atom  12C    basis set group =>   1
Atom  13C    basis set group =>   1
Atom  14C    basis set group =>   1
Atom  15C    basis set group =>   1
Atom  16C    basis set group =>   1
Atom  17C    basis set group =>   1
Atom  18S    basis set group =>   4
Atom  19H    basis set group =>   5
Atom  20H    basis set group =>   5
Atom  21H    basis set group =>   5
Atom  22H    basis set group =>   5
Atom  23H    basis set group =>   5
Atom  24H    basis set group =>   5
Atom  25H    basis set group =>   5
Atom  26H    basis set group =>   5
Atom  27H    basis set group =>   5
Atom  28H    basis set group =>   5
Atom  29H    basis set group =>   5
Atom  30H    basis set group =>   5
---------------------------------
AUXILIARY/J BASIS SET INFORMATION
---------------------------------
There are 5 groups of distinct atoms

 Group   1 Type C   : 10s7p5d2f1g contracted to 10s7p5d2f1g pattern {1111111111/1111111/11111/11/1}
 Group   2 Type Cl  : 13s11p9d3f1g contracted to 13s11p9d3f1g pattern {1111111111111/11111111111/111111111/111/1}
 Group   3 Type N   : 10s7p5d2f1g contracted to 10s7p5d2f1g pattern {1111111111/1111111/11111/11/1}
 Group   4 Type S   : 13s11p9d3f1g contracted to 13s11p9d3f1g pattern {1111111111111/11111111111/111111111/111/1}
 Group   5 Type H   : 4s3p2d1f contracted to 4s3p2d1f pattern {1111/111/11/1}

Atom   0C    basis set group =>   1
Atom   1C    basis set group =>   1
Atom   2C    basis set group =>   1
Atom   3C    basis set group =>   1
Atom   4C    basis set group =>   1
Atom   5C    basis set group =>   1
Atom   6C    basis set group =>   1
Atom   7Cl   basis set group =>   2
Atom   8C    basis set group =>   1
Atom   9C    basis set group =>   1
Atom  10C    basis set group =>   1
Atom  11N    basis set group =>   3
Atom  12C    basis set group =>   1
Atom  13C    basis set group =>   1
Atom  14C    basis set group =>   1
Atom  15C    basis set group =>   1
Atom  16C    basis set group =>   1
Atom  17C    basis set group =>   1
Atom  18S    basis set group =>   4
Atom  19H    basis set group =>   5
Atom  20H    basis set group =>   5
Atom  21H    basis set group =>   5
Atom  22H    basis set group =>   5
Atom  23H    basis set group =>   5
Atom  24H    basis set group =>   5
Atom  25H    basis set group =>   5
Atom  26H    basis set group =>   5
Atom  27H    basis set group =>   5
Atom  28H    basis set group =>   5
Atom  29H    basis set group =>   5
Atom  30H    basis set group =>   5
---------------------------------
AUXILIARY/C BASIS SET INFORMATION
---------------------------------
There are 5 groups of distinct atoms

 Group   1 Type C   : 9s7p6d4f2g contracted to 9s7p6d4f2g pattern {111111111/1111111/111111/1111/11}
 Group   2 Type Cl  : 11s9p8d6f3g contracted to 11s9p8d6f3g pattern {11111111111/111111111/11111111/111111/111}
 Group   3 Type N   : 9s7p6d4f2g contracted to 9s7p6d4f2g pattern {111111111/1111111/111111/1111/11}
 Group   4 Type S   : 11s9p8d6f3g contracted to 11s9p8d6f3g pattern {11111111111/111111111/11111111/111111/111}
 Group   5 Type H   : 4s3p2d1f contracted to 4s3p2d1f pattern {1111/111/11/1}

Atom   0C    basis set group =>   1
Atom   1C    basis set group =>   1
Atom   2C    basis set group =>   1
Atom   3C    basis set group =>   1
Atom   4C    basis set group =>   1
Atom   5C    basis set group =>   1
Atom   6C    basis set group =>   1
Atom   7Cl   basis set group =>   2
Atom   8C    basis set group =>   1
Atom   9C    basis set group =>   1
Atom  10C    basis set group =>   1
Atom  11N    basis set group =>   3
Atom  12C    basis set group =>   1
Atom  13C    basis set group =>   1
Atom  14C    basis set group =>   1
Atom  15C    basis set group =>   1
Atom  16C    basis set group =>   1
Atom  17C    basis set group =>   1
Atom  18S    basis set group =>   4
Atom  19H    basis set group =>   5
Atom  20H    basis set group =>   5
Atom  21H    basis set group =>   5
Atom  22H    basis set group =>   5
Atom  23H    basis set group =>   5
Atom  24H    basis set group =>   5
Atom  25H    basis set group =>   5
Atom  26H    basis set group =>   5
Atom  27H    basis set group =>   5
Atom  28H    basis set group =>   5
Atom  29H    basis set group =>   5
Atom  30H    basis set group =>   5


           ************************************************************
           *        Program running with 4 parallel MPI-processes     *
           *              working on a common directory               *
           ************************************************************
------------------------------------------------------------------------------
                           ORCA GTO INTEGRAL CALCULATION
                           -- RI-GTO INTEGRALS CHOSEN --
------------------------------------------------------------------------------
------------------------------------------------------------------------------
                   ___                                                        
                  /   \      - P O W E R E D   B Y -                         
                 /     \                                                     
                 |  |  |   _    _      __       _____    __    __             
                 |  |  |  | |  | |    /  \     |  _  \  |  |  /  |          
                  \  \/   | |  | |   /    \    | | | |  |  | /  /          
                 / \  \   | |__| |  /  /\  \   | |_| |  |  |/  /          
                |  |  |   |  __  | /  /__\  \  |    /   |      \           
                |  |  |   | |  | | |   __   |  |    \   |  |\   \          
                \     /   | |  | | |  |  |  |  | |\  \  |  | \   \       
                 \___/    |_|  |_| |__|  |__|  |_| \__\ |__|  \__/        
                                                                              
                      - O R C A' S   B I G   F R I E N D -                    
                                      &                                       
                       - I N T E G R A L  F E E D E R -                       
                                                                              
 v1 FN, 2020, v2 2021                                                         
------------------------------------------------------------------------------


Reading SHARK input file optpbed3-b2plyp-test-532.SHARKINP.tmp ... ok
----------------------
SHARK INTEGRAL PACKAGE
----------------------

Number of atoms                             ...     31
Number of basis functions                   ...   1202
Number of shells                            ...    474
Maximum angular momentum                    ...      3
Integral batch strategy                     ... SHARK/LIBINT Hybrid
RI-J (if used) integral strategy            ... SPLIT-RIJ (Revised 2003 algorithm where possible)
Printlevel                                  ...      1
Contraction scheme used                     ... PARTIAL GENERAL contraction
Coulomb Range Separation                    ... NOT USED
Exchange Range Separation                   ... NOT USED
Finite Nucleus Model                        ... NOT USED
Auxiliary Coulomb fitting basis             ... AVAILABLE
   # of basis functions in Aux-J            ...   1945
   # of shells in Aux-J                     ...    619
   Maximum angular momentum in Aux-J        ...      4
Auxiliary J/K fitting basis                 ... NOT available
Auxiliary Correlation fitting basis         ... AVAILABLE
   # of basis functions in Aux-C            ...   2456
   # of shells in Aux-C                     ...    670
   Maximum angular momentum in Aux-C        ...      4
Auxiliary 'external' fitting basis          ... NOT available
Integral threshold                          ...     2.500000e-11
Primitive cut-off                           ...     2.500000e-12
Primitive pair pre-selection threshold      ...     2.500000e-12

Calculating pre-screening integrals         ... done (  0.2 sec) Dimension = 474
Calculating pre-screening integrals (ORCA)  ... done (  0.6 sec) Dimension = 342
Organizing shell pair data                  ... done (  1.1 sec)
Shell pair information
Total number of shell pairs                 ...    112575
Shell pairs after pre-screening             ...     68230
Total number of primitive shell pairs       ...    141865
Primitive shell pairs kept                  ...     78672
          la=0 lb=0:  15345 shell pairs
          la=1 lb=0:  17860 shell pairs
          la=1 lb=1:   4666 shell pairs
          la=2 lb=0:  11156 shell pairs
          la=2 lb=1:   5712 shell pairs
          la=2 lb=2:   1818 shell pairs
          la=3 lb=0:   6050 shell pairs
          la=3 lb=1:   3108 shell pairs
          la=3 lb=2:   1959 shell pairs
          la=3 lb=3:    556 shell pairs

Calculating one electron integrals          ... done (  0.2 sec)
Calculating RI/J V-Matrix + Cholesky decomp.... done (  0.3 sec)
Calculating RI/C V-Matrix + Cholesky decomp.... done (  0.5 sec)
Calculating Nuclear repulsion               ... done (  0.0 sec) ENN=   1455.096245582078 Eh

SHARK setup successfully completed in   4.0 seconds

Maximum memory used throughout the entire GTOINT-calculation: 107.8 MB


           ************************************************************
           *        Program running with 4 parallel MPI-processes     *
           *              working on a common directory               *
           ************************************************************
-------------------------------------------------------------------------------
                                 ORCA SCF
-------------------------------------------------------------------------------

------------
SCF SETTINGS
------------
Hamiltonian:
 Density Functional     Method          .... DFT(GTOs)
 Exchange Functional    Exchange        .... PBE
   PBE kappa parameter   XKappa         ....  0.804000
   PBE mue parameter    XMuePBE         ....  0.219520
 Correlation Functional Correlation     .... PBE
   PBE beta parameter  CBetaPBE         ....  0.066725
 LDA part of GGA corr.  LDAOpt          .... PW91-LDA
 Gradients option       PostSCFGGA      .... off
 Hybrid DFT is turned on
   Fraction HF Exchange ScalHFX         ....  0.250000
   Scaling of DF-GGA-X  ScalDFX         ....  0.750000
   Scaling of DF-GGA-C  ScalDFC         ....  1.000000
   Scaling of DF-LDA-C  ScalLDAC        ....  1.000000
   Perturbative correction              ....  0.000000
   Density functional embedding theory  .... OFF
   NL short-range parameter             ....  6.900000
 RI-approximation to the Coulomb term is turned on
   Number of AuxJ basis functions       .... 1945
   RIJ-COSX (HFX calculated with COS-X)).... on


General Settings:
 Integral files         IntName         .... optpbed3-b2plyp-test-532
 Hartree-Fock type      HFTyp           .... RHF
 Total Charge           Charge          ....    0
 Multiplicity           Mult            ....    1
 Number of Electrons    NEL             ....  148
 Basis Dimension        Dim             .... 1050
 Nuclear Repulsion      ENuc            ....   1455.0962455821 Eh

Convergence Acceleration:
 DIIS                   CNVDIIS         .... on
   Start iteration      DIISMaxIt       ....    12
   Startup error        DIISStart       ....  0.200000
   # of expansion vecs  DIISMaxEq       ....     5
   Bias factor          DIISBfac        ....   1.050
   Max. coefficient     DIISMaxC        ....  10.000
 Trust-Rad. Augm. Hess. CNVTRAH         .... auto
   Auto Start mean grad. ratio tolernc. ....  1.125000
   Auto Start start iteration           ....    20
   Auto Start num. interpolation iter.  ....    10
   Max. Number of Micro iterations      ....    16
   Max. Number of Macro iterations      .... Maxiter - #DIIS iter
   Number of Davidson start vectors     ....     2
   Converg. threshold I  (grad. norm)   ....   1.000e-05
   Converg. threshold II (energy diff.) ....   1.000e-08
   Grad. Scal. Fac. for Micro threshold ....   0.100
   Minimum threshold for Micro iter.    ....   0.010
   NR start threshold (gradient norm)   ....   0.001
   Initial trust radius                 ....   0.400
   Minimum AH scaling param. (alpha)    ....   1.000
   Maximum AH scaling param. (alpha)    .... 1000.000
   Orbital update algorithm             .... Taylor
   White noise on init. David. guess    .... on
   Maximum white noise                  ....   0.010
   Quad. conv. algorithm                .... NR
 SOSCF                  CNVSOSCF        .... on
   Start iteration      SOSCFMaxIt      ....   150
   Startup grad/error   SOSCFStart      ....  0.003300
 Level Shifting         CNVShift        .... on
   Level shift para.    LevelShift      ....    0.2500
   Turn off err/grad.   ShiftErr        ....    0.0010
 Zerner damping         CNVZerner       .... off
 Static damping         CNVDamp         .... on
   Fraction old density DampFac         ....    0.7000
   Max. Damping (<1)    DampMax         ....    0.9800
   Min. Damping (>=0)   DampMin         ....    0.0000
   Turn off err/grad.   DampErr         ....    0.1000
 Fernandez-Rico         CNVRico         .... off

SCF Procedure:
 Maximum # iterations   MaxIter         ....   125
 SCF integral mode      SCFMode         .... Direct
   Integral package                     .... SHARK and LIBINT hybrid scheme
 Reset frequency        DirectResetFreq ....    20
 Integral Threshold     Thresh          ....  2.500e-11 Eh
 Primitive CutOff       TCut            ....  2.500e-12 Eh

Convergence Tolerance:
 Convergence Check Mode ConvCheckMode   .... Total+1el-Energy
 Convergence forced     ConvForced      .... 0
 Energy Change          TolE            ....  1.000e-08 Eh
 1-El. energy change                    ....  1.000e-05 Eh
 Orbital Gradient       TolG            ....  1.000e-05
 Orbital Rotation angle TolX            ....  1.000e-05
 DIIS Error             TolErr          ....  5.000e-07


Diagonalization of the overlap matrix:
Smallest eigenvalue                        ... 8.695e-07
Time for diagonalization                   ...    0.259 sec
Threshold for overlap eigenvalues          ... 1.000e-08
Number of eigenvalues below threshold      ... 0
Time for construction of square roots      ...    0.189 sec
Total time needed                          ...    0.454 sec

Time for model grid setup =    0.622 sec

------------------------------
INITIAL GUESS: MODEL POTENTIAL
------------------------------
Loading Hartree-Fock densities                     ... done
Calculating cut-offs                               ... done
Initializing the effective Hamiltonian             ... done
Setting up the integral package (SHARK)            ... done
Starting the Coulomb interaction                   ... done (   2.4 sec)
Reading the grid                                   ... done
Mapping shells                                     ... done
Starting the XC term evaluation                    ... done (   1.9 sec)
  promolecular density results
     # of electrons  =    147.996208414
     EX              =   -144.293828416
     EC              =     -5.156488452
     EX+EC           =   -149.450316867
Transforming the Hamiltonian                       ... done (   0.1 sec)
Diagonalizing the Hamiltonian                      ... done (   0.3 sec)
Back transforming the eigenvectors                 ... done (   0.1 sec)
Now organizing SCF variables                       ... done
                      ------------------
                      INITIAL GUESS DONE (   5.4 sec)
                      ------------------
-------------------
DFT GRID GENERATION
-------------------

General Integration Accuracy     IntAcc      ... 4.388
Radial Grid Type                 RadialGrid  ... OptM3 with GC (2021)
Angular Grid (max. ang.)         AngularGrid ... 4 (Lebedev-302)
Angular grid pruning method      GridPruning ... 4 (adaptive)
Weight generation scheme         WeightScheme... Becke
Basis function cutoff            BFCut       ... 1.0000e-11
Integration weight cutoff        WCut        ... 1.0000e-14
Angular grids for H and He will be reduced by one unit
Partially contracted basis set               ... off
Rotationally invariant grid construction     ... off

Total number of grid points                  ...   159305
Total number of batches                      ...     2500
Average number of points per batch           ...       63
Average number of grid points per atom       ...     5139
Time for grid setup =    2.134 sec

--------------------
COSX GRID GENERATION
--------------------

GRIDX 1
-------
General Integration Accuracy     IntAcc      ... 3.816
Radial Grid Type                 RadialGrid  ... OptM3 with GC (2021)
Angular Grid (max. ang.)         AngularGrid ... 1 (Lebedev-50)
Angular grid pruning method      GridPruning ... 4 (adaptive)
Weight generation scheme         WeightScheme... Becke
Basis function cutoff            BFCut       ... 1.0000e-11
Integration weight cutoff        WCut        ... 1.0000e-14
Angular grids for H and He will be reduced by one unit
Partially contracted basis set               ... on
Rotationally invariant grid construction     ... off

Total number of grid points                  ...    20111
Total number of batches                      ...      330
Average number of points per batch           ...       60
Average number of grid points per atom       ...      649
UseSFitting                                  ... on

GRIDX 2
-------
General Integration Accuracy     IntAcc      ... 4.020
Radial Grid Type                 RadialGrid  ... OptM3 with GC (2021)
Angular Grid (max. ang.)         AngularGrid ... 2 (Lebedev-110)
Angular grid pruning method      GridPruning ... 4 (adaptive)
Weight generation scheme         WeightScheme... Becke
Basis function cutoff            BFCut       ... 1.0000e-11
Integration weight cutoff        WCut        ... 1.0000e-14
Angular grids for H and He will be reduced by one unit
Partially contracted basis set               ... on
Rotationally invariant grid construction     ... off

Total number of grid points                  ...    47912
Total number of batches                      ...      767
Average number of points per batch           ...       62
Average number of grid points per atom       ...     1546
UseSFitting                                  ... on

GRIDX 3
-------
General Integration Accuracy     IntAcc      ... 4.338
Radial Grid Type                 RadialGrid  ... OptM3 with GC (2021)
Angular Grid (max. ang.)         AngularGrid ... 3 (Lebedev-194)
Angular grid pruning method      GridPruning ... 4 (adaptive)
Weight generation scheme         WeightScheme... Becke
Basis function cutoff            BFCut       ... 1.0000e-11
Integration weight cutoff        WCut        ... 1.0000e-14
Angular grids for H and He will be reduced by one unit
Partially contracted basis set               ... on
Rotationally invariant grid construction     ... off

Total number of grid points                  ...   104768
Total number of batches                      ...     1653
Average number of points per batch           ...       63
Average number of grid points per atom       ...     3380
UseSFitting                                  ... on

Time for X-Grid setup             =    4.989 sec


--------------------
CPCM SOLVATION MODEL
--------------------
CPCM parameters:
  Epsilon                                         ...       2.0165
  Refrac                                          ...       1.4266
  Rsolv                                           ...       1.3000
  Surface type                                    ... GAUSSIAN VDW
  Epsilon function type                           ...         CPCM
Solvent:                                     ... CYCLOHEXANE
SMD-CDS solvent descriptors:
  Soln                                       ...    1.4266
  Soln25                                     ...    1.4235
  Sola                                       ...    0.0000
  Solb                                       ...    0.0000
  Solg                                       ...   35.4800
  Solc                                       ...    0.0000
  Solh                                       ...    0.0000
Radii:
 Radius for C  used is    3.4960 Bohr (=   1.8500 Ang.)
 Radius for Cl used is    4.4975 Bohr (=   2.3800 Ang.)
 Radius for N  used is    3.5716 Bohr (=   1.8900 Ang.)
 Radius for S  used is    4.7054 Bohr (=   2.4900 Ang.)
 Radius for H  used is    2.2677 Bohr (=   1.2000 Ang.)
Calculating surface                               ...        done! (  0.0s)
GEPOL surface points                              ...         1719
GEPOL Volume                                      ...    2099.2079
GEPOL Surface-area                                ...    1113.4391
Calculating surface distance matrix               ...        done! (  0.0s)
Performing Cholesky decomposition & store         ...        done! (  0.2s)
Overall time for CPCM initialization              ...                 0.2s
 re-compute Schwartz prescreening matrix in partically contracted basis (1) ...done (   0.234 sec)
--------------
SCF ITERATIONS
--------------
ITER       Energy         Delta-E        Max-DP      RMS-DP      [F,P]     Damp
               ***  Starting incremental Fock matrix formation  ***
  0  -1528.8356295869   0.000000000000 0.08967637  0.00089262  0.2147109 0.7000
  1  -1529.0331183429  -0.197488756037 0.07159500  0.00068670  0.0955350 0.7000
                               ***Turning on DIIS***
  2  -1529.1152840119  -0.082165669054 0.18245873  0.00152641  0.0385086 0.0000
  3  -1529.2329151947  -0.117631182758 0.02796578  0.00037065  0.0475254 0.0000
  4  -1529.2666163455  -0.033701150811 0.02944074  0.00016869  0.0096086 0.0000
  5  -1529.2681263248  -0.001509979325 0.00701684  0.00005962  0.0079772 0.0000
                      *** Initiating the SOSCF procedure ***
                           *** Shutting down DIIS ***
                      *** Re-Reading the Fockian *** 
                      *** Removing any level shift *** 
ITER      Energy       Delta-E        Grad      Rot      Max-DP    RMS-DP
  6  -1529.26831310  -0.0001867716  0.000472  0.000472  0.004194  0.000036
               *** Restarting incremental Fock matrix formation ***
  7  -1529.26831780  -0.0000047072  0.000188  0.001060  0.029782  0.000428
  8  -1529.26831523   0.0000025777  0.000249  0.000564  0.002326  0.000034
  9  -1529.26832246  -0.0000072305  0.000031  0.000136  0.002229  0.000036
 10  -1529.26832234   0.0000001171  0.000056  0.000064  0.003681  0.000014
 11  -1529.26832254  -0.0000002023  0.000007  0.000024  0.007032  0.000033
 12  -1529.26832251   0.0000000297  0.000009  0.000013  0.005733  0.000023
                  ***Gradient check signals convergence***
              ***Rediagonalizing the Fockian in SOSCF/NRSCF***

               *****************************************************
               *                     SUCCESS                       *
               *           SCF CONVERGED AFTER  13 CYCLES          *
               *****************************************************

Old exchange energy                            =    -36.621851825 Eh
New exchange energy                            =    -36.621817593 Eh
Exchange energy change after final integration =      0.000034232 Eh
Total energy after final integration           =  -1529.268288281 Eh
Final COS-X integration done in                =   138.685 sec

SMD CDS free energy correction energy :                -7.90157     Kcal/mol
Total Energy after SMD CDS correction =             -1529.280880239 Eh

----------------
TOTAL SCF ENERGY
----------------

Total Energy       :        -1529.28088024 Eh          -41613.84836 eV

Components:
Nuclear Repulsion  :         1455.09624558 Eh           39595.18182 eV
Electronic Energy  :        -2984.37712582 Eh          -81209.03018 eV
One Electron Energy:        -4984.15521633 Eh         -135625.75852 eV
Two Electron Energy:         1999.77809051 Eh           54416.72834 eV
Max COSX asymmetry :            0.00003532 Eh               0.00096 eV
CPCM Dielectric    :           -0.00699063 Eh              -0.19022 eV
SMD CDS (Gcds)     :           -0.01259196 Eh              -0.34264 eV

Virial components:
Potential Energy   :        -3052.73252009 Eh          -83069.07502 eV
Kinetic Energy     :         1523.45163985 Eh           41455.22666 eV
Virial Ratio       :            2.00382634


DFT components:
N(Alpha)           :       73.999929233769 electrons
N(Beta)            :       73.999929233769 electrons
N(Total)           :      147.999858467539 electrons
E(X)               :     -109.455455295954 Eh       
E(C)               :       -5.155180562713 Eh       
E(XC)              :     -114.610635858667 Eh       
DFET-embed. en.    :        0.000000000000 Eh       
CPCM Solvation Model Properties:
Surface-charge          :           -0.04843824
Charge-correction       :            0.00020050 Eh               0.00546 eV
Free-energy (cav+disp)  :           -0.01259196 Eh              -0.34264 eV

---------------
SCF CONVERGENCE
---------------

  Last Energy change         ...   -1.4536e-09  Tolerance :   1.0000e-08
  Last MAX-Density change    ...    3.1086e-15  Tolerance :   1.0000e-07
  Last RMS-Density change    ...    1.5663e-17  Tolerance :   5.0000e-09
  Last Orbital Gradient      ...    1.2715e-06  Tolerance :   1.0000e-05
  Last Orbital Rotation      ...    4.8651e-06  Tolerance :   1.0000e-05

             **** THE GBW FILE WAS UPDATED (optpbed3-b2plyp-test-532.gbw) ****
             **** DENSITY optpbed3-b2plyp-test-532.scfp WAS UPDATED ****
             **** ENERGY FILE WAS UPDATED (optpbed3-b2plyp-test-532.en.tmp) ****
             **** THE GBW FILE WAS UPDATED (optpbed3-b2plyp-test-532.gbw) ****
             **** DENSITY optpbed3-b2plyp-test-532.scfp WAS UPDATED ****
----------------
ORBITAL ENERGIES
----------------

  NO   OCC          E(Eh)            E(eV) 
   0   2.0000    -101.745930     -2768.6475 
   1   2.0000     -89.083882     -2424.0957 
   2   2.0000     -14.391705      -391.6182 
   3   2.0000     -10.304500      -280.3997 
   4   2.0000     -10.298604      -280.2393 
   5   2.0000     -10.269805      -279.4556 
   6   2.0000     -10.266493      -279.3655 
   7   2.0000     -10.256484      -279.0931 
   8   2.0000     -10.253027      -278.9990 
   9   2.0000     -10.244991      -278.7804 
  10   2.0000     -10.244627      -278.7705 
  11   2.0000     -10.244547      -278.7683 
  12   2.0000     -10.243561      -278.7415 
  13   2.0000     -10.243421      -278.7377 
  14   2.0000     -10.239922      -278.6424 
  15   2.0000     -10.234324      -278.4901 
  16   2.0000     -10.233667      -278.4722 
  17   2.0000     -10.232002      -278.4269 
  18   2.0000     -10.217384      -278.0291 
  19   2.0000      -9.548215      -259.8201 
  20   2.0000      -8.041295      -218.8148 
  21   2.0000      -7.283437      -198.1924 
  22   2.0000      -7.275188      -197.9679 
  23   2.0000      -7.274708      -197.9549 
  24   2.0000      -5.978078      -162.6718 
  25   2.0000      -5.974865      -162.5843 
  26   2.0000      -5.971647      -162.4968 
  27   2.0000      -1.009527       -27.4706 
  28   2.0000      -0.931015       -25.3342 
  29   2.0000      -0.892366       -24.2825 
  30   2.0000      -0.883063       -24.0294 
  31   2.0000      -0.850417       -23.1410 
  32   2.0000      -0.826891       -22.5009 
  33   2.0000      -0.792103       -21.5542 
  34   2.0000      -0.786716       -21.4076 
  35   2.0000      -0.767956       -20.8971 
  36   2.0000      -0.750651       -20.4263 
  37   2.0000      -0.715361       -19.4660 
  38   2.0000      -0.667618       -18.1668 
  39   2.0000      -0.649915       -17.6851 
  40   2.0000      -0.632891       -17.2218 
  41   2.0000      -0.620832       -16.8937 
  42   2.0000      -0.603991       -16.4354 
  43   2.0000      -0.565562       -15.3897 
  44   2.0000      -0.528612       -14.3843 
  45   2.0000      -0.521685       -14.1958 
  46   2.0000      -0.509860       -13.8740 
  47   2.0000      -0.507297       -13.8043 
  48   2.0000      -0.485553       -13.2126 
  49   2.0000      -0.482149       -13.1200 
  50   2.0000      -0.462422       -12.5831 
  51   2.0000      -0.458097       -12.4655 
  52   2.0000      -0.456246       -12.4151 
  53   2.0000      -0.449269       -12.2252 
  54   2.0000      -0.446157       -12.1406 
  55   2.0000      -0.429973       -11.7002 
  56   2.0000      -0.423091       -11.5129 
  57   2.0000      -0.414520       -11.2797 
  58   2.0000      -0.401897       -10.9362 
  59   2.0000      -0.396570       -10.7912 
  60   2.0000      -0.380787       -10.3617 
  61   2.0000      -0.377745       -10.2790 
  62   2.0000      -0.374862       -10.2005 
  63   2.0000      -0.369102       -10.0438 
  64   2.0000      -0.362031        -9.8514 
  65   2.0000      -0.348199        -9.4750 
  66   2.0000      -0.332855        -9.0574 
  67   2.0000      -0.324965        -8.8427 
  68   2.0000      -0.308953        -8.4070 
  69   2.0000      -0.295096        -8.0300 
  70   2.0000      -0.285573        -7.7708 
  71   2.0000      -0.269914        -7.3447 
  72   2.0000      -0.252903        -6.8818 
  73   2.0000      -0.229513        -6.2454 
  74   0.0000      -0.075382        -2.0512 
  75   0.0000      -0.024172        -0.6578 
  76   0.0000      -0.017971        -0.4890 
  77   0.0000      -0.016419        -0.4468 
  78   0.0000      -0.000775        -0.0211 
  79   0.0000       0.002276         0.0619 
  80   0.0000       0.014188         0.3861 
  81   0.0000       0.015199         0.4136 
  82   0.0000       0.016210         0.4411 
  83   0.0000       0.019279         0.5246 
  84   0.0000       0.021815         0.5936 
  85   0.0000       0.026075         0.7095 
  86   0.0000       0.034194         0.9305 
  87   0.0000       0.038089         1.0365 
  88   0.0000       0.039895         1.0856 
  89   0.0000       0.042103         1.1457 
  90   0.0000       0.043185         1.1751 
  91   0.0000       0.047667         1.2971 
  92   0.0000       0.055313         1.5052 
  93   0.0000       0.057304         1.5593 
  94   0.0000       0.059494         1.6189 
  95   0.0000       0.062110         1.6901 
  96   0.0000       0.063612         1.7310 
  97   0.0000       0.069143         1.8815 
  98   0.0000       0.075281         2.0485 
  99   0.0000       0.077843         2.1182 
 100   0.0000       0.079987         2.1766 
 101   0.0000       0.082051         2.2327 
 102   0.0000       0.085766         2.3338 
 103   0.0000       0.088462         2.4072 
 104   0.0000       0.094844         2.5808 
 105   0.0000       0.100382         2.7315 
 106   0.0000       0.100731         2.7410 
 107   0.0000       0.104995         2.8571 
 108   0.0000       0.105381         2.8676 
 109   0.0000       0.107668         2.9298 
 110   0.0000       0.112564         3.0630 
 111   0.0000       0.115410         3.1405 
 112   0.0000       0.117193         3.1890 
 113   0.0000       0.121569         3.3081 
 114   0.0000       0.123761         3.3677 
 115   0.0000       0.125757         3.4220 
 116   0.0000       0.128856         3.5064 
 117   0.0000       0.131081         3.5669 
 118   0.0000       0.132364         3.6018 
 119   0.0000       0.135572         3.6891 
 120   0.0000       0.138482         3.7683 
 121   0.0000       0.140074         3.8116 
 122   0.0000       0.142633         3.8812 
 123   0.0000       0.145077         3.9478 
 124   0.0000       0.147194         4.0054 
 125   0.0000       0.148285         4.0350 
 126   0.0000       0.149828         4.0770 
 127   0.0000       0.153057         4.1649 
 128   0.0000       0.155444         4.2298 
 129   0.0000       0.155633         4.2350 
 130   0.0000       0.156578         4.2607 
 131   0.0000       0.159195         4.3319 
 132   0.0000       0.162362         4.4181 
 133   0.0000       0.164439         4.4746 
 134   0.0000       0.164593         4.4788 
 135   0.0000       0.167332         4.5533 
 136   0.0000       0.171983         4.6799 
 137   0.0000       0.172771         4.7013 
 138   0.0000       0.176421         4.8007 
 139   0.0000       0.177863         4.8399 
 140   0.0000       0.180117         4.9012 
 141   0.0000       0.181298         4.9334 
 142   0.0000       0.186083         5.0636 
 143   0.0000       0.188137         5.1195 
 144   0.0000       0.192818         5.2469 
 145   0.0000       0.193686         5.2705 
 146   0.0000       0.198464         5.4005 
 147   0.0000       0.202489         5.5100 
 148   0.0000       0.204417         5.5625 
 149   0.0000       0.207084         5.6350 
 150   0.0000       0.210539         5.7290 
 151   0.0000       0.212577         5.7845 
 152   0.0000       0.213399         5.8069 
 153   0.0000       0.217863         5.9284 
 154   0.0000       0.223740         6.0883 
 155   0.0000       0.229428         6.2431 
 156   0.0000       0.230474         6.2715 
 157   0.0000       0.232882         6.3370 
 158   0.0000       0.233637         6.3576 
[...]
   Time for densities:            0.218
   Time for XC-Integration:      17.578
   Time for LR-CPCM terms:       10.555
   Time for Sigma-Completion:     0.175
   Time for building 10 sigma-vectors
   Data Preparation Phase         ...     0.01 sec
   Transformed RI Coulomb         ...     0.67 sec
   Transformed RI-exchange        ...   333.64 sec
   (ab|v) reading and digestion   ...   307.13 sec
   Final sigma-completion         ...     0.01 sec
   Done building sigma-vectors             Size of expansion space: 60
   Lowest Energy          :     0.145678943818
   Maximum Energy change  :     0.000393889314 (vector 4)
   Maximum residual norm  :     0.000031088376

                       ****Iteration   10****
              <<< Entering MO-section for Build Sigma(Double) >>>
   Forming the XC and CPCM contribution:
   Time for densities:            0.221
   Time for XC-Integration:      17.096
   Time for LR-CPCM terms:       10.539
   Time for Sigma-Completion:     0.168
   Time for building 10 sigma-vectors
   Data Preparation Phase         ...     0.01 sec
   Transformed RI Coulomb         ...     0.68 sec
   Transformed RI-exchange        ...   343.11 sec
   (ab|v) reading and digestion   ...   328.95 sec
   Final sigma-completion         ...     0.01 sec
   Done building sigma-vectors             Size of expansion space: 70
   Lowest Energy          :     0.145678943801
   Maximum Energy change  :     0.000063117791 (vector 4)
   Maximum residual norm  :     0.000002940375
   Rebuilding the expansion space

                       ****Iteration   11****
              <<< Entering MO-section for Build Sigma(Double) >>>
   Forming the XC and CPCM contribution:
   Time for densities:            0.452
   Time for XC-Integration:      33.407
   Time for LR-CPCM terms:       16.826
   Time for Sigma-Completion:     0.365
   Time for building 20 sigma-vectors
   Data Preparation Phase         ...     0.02 sec
   Transformed RI Coulomb         ...     1.14 sec
   Transformed RI-exchange        ...   729.19 sec
   (ab|v) reading and digestion   ...   696.43 sec
   Final sigma-completion         ...     0.01 sec
   Done building sigma-vectors             Size of expansion space: 20
   Lowest Energy          :     0.145678943794
   Maximum Energy change  :     0.000005759592 (vector 4)
   Maximum residual norm  :     0.000000582901

      *** CONVERGENCE OF RESIDUAL NORM REACHED ***

Storing the converged CI vectors               ... optpbed3-b2plyp-test-532_job2.cis1

                 *** DAVIDSON DONE ***

Total time for solving the CIS problem:  5018.181sec

------------------
DOUBLES CORRECTION (Double precision version)
------------------

The (D) correction will be scaled by  0.2700
Doing v(i,a)*T(i,a) terms (RI)                    ... ok
Doing u(i,j,a,b) terms for state   0              ... ok
Doing u(i,j,a,b) terms for state   1              ... ok
Doing u(i,j,a,b) terms for state   2              ... ok
Doing u(i,j,a,b) terms for state   3              ... ok
Doing u(i,j,a,b) terms for state   4              ... ok
Doing u(i,j,a,b) terms for state   5              ... ok
Doing u(i,j,a,b) terms for state   6              ... ok
Doing u(i,j,a,b) terms for state   7              ... ok
Doing u(i,j,a,b) terms for state   8              ... ok
Doing u(i,j,a,b) terms for state   9              ... ok

Contributions to the (D) correction(s) (in eV)

STATE  Final   Init.   Total   v(ext)   v(int)  v(3)    u
       omega   omega     (D)                             
-----------------------------------------------------------------------------
   0   3.718   3.964  -0.246   0.634   0.992  -0.051  -1.822
   1   4.142   4.740  -0.597   0.617   0.894  -0.036  -2.073
   2   4.605   5.076  -0.471   0.513   0.943  -0.027  -1.899
   3   4.910   5.296  -0.386   0.605   0.920  -0.062  -1.849
   4   4.794   5.402  -0.608   0.661   0.779  -0.031  -2.017
   5   5.074   5.546  -0.472   0.442   0.960  -0.043  -1.832
   6   5.367   5.583  -0.216   0.068   0.987  -0.003  -1.268
   7   5.231   5.619  -0.387   0.300   0.943  -0.011  -1.620
   8   5.254   5.756  -0.503   0.399   0.963  -0.016  -1.849
   9   5.655   5.880  -0.226   0.128   0.928  -0.005  -1.277

(D)-timings
 V(i,a)*T(i,a) terms           ...   400.683 sec
 U(i,j,a,b) 3-internal         ...    12.382 sec
 U(i,j,a,b) 3-external         ...   259.209 sec
 U(i,j,a,b) pair terms         ...   244.079 sec
 Total measured time           ...  2105.577 sec

 Time for (ab|v) I/O           ...    59.219 sec


------------------------------------
TD-DFT/TDA EXCITED STATES (SINGLETS)
------------------------------------

the weight of the individual excitations are printed if larger than 1.0e-02

STATE  1:  E=   0.136629 au      3.718 eV    29986.6 cm**-1 <S**2> =   0.000000
    73a ->  74a  :     0.943833 (c= -0.97151048)

STATE  2:  E=   0.152222 au      4.142 eV    33408.9 cm**-1 <S**2> =   0.000000
    71a ->  79a  :     0.013008 (c=  0.11405151)
    72a ->  74a  :     0.763283 (c=  0.87366083)
    72a ->  79a  :     0.030575 (c= -0.17485684)
    72a ->  80a  :     0.019504 (c=  0.13965618)
    72a ->  84a  :     0.011851 (c= -0.10886336)
    73a ->  78a  :     0.026222 (c= -0.16193093)
    73a ->  79a  :     0.025086 (c= -0.15838546)
    73a ->  80a  :     0.018272 (c= -0.13517499)

STATE  3:  E=   0.169236 au      4.605 eV    37143.0 cm**-1 <S**2> =   0.000000
    70a ->  74a  :     0.303371 (c= -0.55079084)
    70a ->  79a  :     0.025146 (c= -0.15857377)
    70a ->  80a  :     0.030797 (c=  0.17548944)
    71a ->  77a  :     0.106460 (c= -0.32628209)
    73a ->  75a  :     0.030930 (c=  0.17587058)
    73a ->  77a  :     0.386164 (c= -0.62142106)
    73a ->  79a  :     0.034404 (c=  0.18548401)

STATE  4:  E=   0.180436 au      4.910 eV    39601.1 cm**-1 <S**2> =   0.000000
    68a ->  74a  :     0.049123 (c=  0.22163805)
    69a ->  74a  :     0.032779 (c=  0.18105057)
    70a ->  77a  :     0.017559 (c=  0.13250915)
    71a ->  74a  :     0.651370 (c= -0.80707520)
    72a ->  74a  :     0.011394 (c=  0.10674105)
    72a ->  78a  :     0.017335 (c=  0.13166401)
    72a ->  79a  :     0.025690 (c=  0.16028201)
    73a ->  79a  :     0.033553 (c= -0.18317395)
    73a ->  80a  :     0.036764 (c=  0.19174022)

STATE  5:  E=   0.176181 au      4.794 eV    38667.2 cm**-1 <S**2> =   0.000000
    68a ->  74a  :     0.585714 (c= -0.76531952)
    68a ->  79a  :     0.022013 (c=  0.14836839)
    68a ->  80a  :     0.013604 (c= -0.11663534)
    68a ->  92a  :     0.010568 (c=  0.10280203)
    68a ->  93a  :     0.010929 (c=  0.10454235)
    69a ->  74a  :     0.173119 (c= -0.41607558)
    71a ->  74a  :     0.052330 (c= -0.22875704)
    73a ->  79a  :     0.011747 (c= -0.10838499)

STATE  6:  E=   0.186473 au      5.074 eV    40926.1 cm**-1 <S**2> =   0.000000
    67a ->  74a  :     0.022447 (c= -0.14982399)
    71a ->  78a  :     0.032747 (c=  0.18096244)
    71a ->  79a  :     0.013015 (c=  0.11408347)
    71a ->  80a  :     0.041941 (c=  0.20479462)
    72a ->  74a  :     0.108409 (c= -0.32925566)
    72a ->  79a  :     0.012371 (c= -0.11122630)
    72a ->  84a  :     0.022064 (c= -0.14854057)
    72a ->  90a  :     0.011433 (c= -0.10692645)
    73a ->  76a  :     0.032868 (c= -0.18129549)
    73a ->  77a  :     0.013121 (c= -0.11454573)
    73a ->  78a  :     0.183822 (c= -0.42874482)
    73a ->  79a  :     0.253946 (c= -0.50393024)
    73a ->  80a  :     0.078724 (c= -0.28057735)
    73a ->  82a  :     0.013542 (c= -0.11636940)

STATE  7:  E=   0.197243 au      5.367 eV    43289.7 cm**-1 <S**2> =   0.000000
    70a ->  74a  :     0.011134 (c= -0.10551978)
    71a ->  76a  :     0.030883 (c= -0.17573609)
    73a ->  75a  :     0.718514 (c= -0.84765217)
    73a ->  76a  :     0.025707 (c=  0.16033452)
    73a ->  81a  :     0.053474 (c= -0.23124379)
    73a ->  85a  :     0.021871 (c=  0.14788798)
    73a ->  88a  :     0.014553 (c=  0.12063752)

STATE  8:  E=   0.192241 au      5.231 eV    42192.0 cm**-1 <S**2> =   0.000000
    71a ->  74a  :     0.072890 (c= -0.26998133)
    71a ->  75a  :     0.017115 (c=  0.13082510)
    72a ->  76a  :     0.041221 (c= -0.20302923)
    72a ->  85a  :     0.011777 (c=  0.10852336)
    72a ->  92a  :     0.016658 (c=  0.12906655)
    72a ->  96a  :     0.010347 (c=  0.10172231)
    73a ->  75a  :     0.018771 (c=  0.13700663)
    73a ->  76a  :     0.279641 (c=  0.52881094)
    73a ->  77a  :     0.017168 (c=  0.13102592)
    73a ->  78a  :     0.046145 (c= -0.21481482)
    73a ->  79a  :     0.020887 (c=  0.14452474)
    73a ->  80a  :     0.111981 (c= -0.33463578)
    73a ->  83a  :     0.027575 (c= -0.16605678)
    73a ->  85a  :     0.038885 (c= -0.19719328)
    73a ->  86a  :     0.010058 (c=  0.10029160)
    73a ->  92a  :     0.025736 (c= -0.16042598)
    73a ->  93a  :     0.015039 (c=  0.12263527)
    73a ->  96a  :     0.016862 (c= -0.12985301)

STATE  9:  E=   0.193076 au      5.254 eV    42375.2 cm**-1 <S**2> =   0.000000
    70a ->  77a  :     0.010316 (c= -0.10156587)
    71a ->  74a  :     0.111950 (c= -0.33458993)
    72a ->  76a  :     0.022501 (c=  0.15000326)
    72a ->  78a  :     0.023904 (c= -0.15460848)
    72a ->  79a  :     0.020876 (c= -0.14448595)
    72a ->  80a  :     0.020821 (c= -0.14429311)
    73a ->  75a  :     0.030559 (c= -0.17481045)
    73a ->  76a  :     0.069261 (c= -0.26317420)
    73a ->  77a  :     0.025426 (c=  0.15945640)
    73a ->  78a  :     0.013944 (c= -0.11808487)
    73a ->  79a  :     0.288727 (c=  0.53733309)
    73a ->  80a  :     0.141274 (c= -0.37586455)
    73a ->  81a  :     0.017683 (c= -0.13297892)
    73a ->  83a  :     0.016458 (c=  0.12828762)
    73a ->  84a  :     0.011381 (c=  0.10668128)
    73a ->  85a  :     0.014434 (c=  0.12014302)

STATE 10:  E=   0.207807 au      5.655 eV    45608.3 cm**-1 <S**2> =   0.000000
    71a ->  75a  :     0.029753 (c= -0.17248925)
    72a ->  75a  :     0.107086 (c=  0.32723938)
    72a ->  76a  :     0.276082 (c= -0.52543503)
    72a ->  82a  :     0.012387 (c= -0.11129733)
    72a ->  83a  :     0.030924 (c=  0.17585248)
    72a ->  85a  :     0.015731 (c=  0.12542427)
    72a ->  88a  :     0.019198 (c= -0.13855741)
    72a ->  92a  :     0.017661 (c=  0.13289431)
    72a ->  93a  :     0.012245 (c= -0.11065699)
    72a ->  96a  :     0.019025 (c=  0.13793211)
    73a ->  76a  :     0.274945 (c= -0.52435241)
    73a ->  87a  :     0.011418 (c= -0.10685677)


-----------------------------
TD-DFT/TDA-EXCITATION SPECTRA
-----------------------------

Center of mass = ( -1.0233,  0.3416, -0.1974)
Calculating the Dipole integrals                  ... done
Transforming integrals                            ... done
Calculating the Linear Momentum integrals         ... done
Transforming integrals                            ... done
Calculating angular momentum integrals            ... done
Transforming integrals                            ... done

-----------------------------------------------------------------------------
         ABSORPTION SPECTRUM VIA TRANSITION ELECTRIC DIPOLE MOMENTS
-----------------------------------------------------------------------------
State   Energy    Wavelength  fosc         T2        TX        TY        TZ  
        (cm-1)      (nm)                 (au**2)    (au)      (au)      (au) 
-----------------------------------------------------------------------------
   1   29986.6    333.5   1.427407086  15.67099  -3.91416   0.47545  -0.35260
   2   33408.9    299.3   0.126474426   1.24628   0.88098  -0.43306   0.53161
   3   37143.0    269.2   0.001763150   0.01563  -0.10583   0.02408  -0.06203
   4   39601.1    252.5   0.051670449   0.42955  -0.58012   0.16202  -0.25838
   5   38667.2    258.6   0.012253045   0.10432  -0.28777   0.11863  -0.08623
   6   40926.1    244.3   0.172050423   1.38398  -0.89479   0.46007  -0.60965
   7   43289.7    231.0   0.005188887   0.03946  -0.00757   0.15188   0.12781
   8   42192.0    237.0   0.007010050   0.05470  -0.07528   0.17821  -0.13143
   9   42375.2    236.0   0.031418995   0.24409   0.45218  -0.10431   0.16954
  10   45608.3    219.3   0.002305092   0.01664   0.11693  -0.02260  -0.04954

-----------------------------------------------------------------------------
         ABSORPTION SPECTRUM VIA TRANSITION VELOCITY DIPOLE MOMENTS
-----------------------------------------------------------------------------
State   Energy    Wavelength   fosc        P2         PX        PY        PZ  
        (cm-1)      (nm)                 (au**2)     (au)      (au)      (au) 
-----------------------------------------------------------------------------
   1   29986.6    333.5   0.926096544   0.18980   0.43295  -0.04399   0.02041
   2   33408.9    299.3   0.044503206   0.01016  -0.09949  -0.00389   0.01573
   3   37143.0    269.2   0.002034892   0.00052   0.01620  -0.00323  -0.01561
   4   39601.1    252.5   0.053631422   0.01452   0.11277  -0.03197   0.02786
   5   38667.2    258.6   0.013302608   0.00352   0.05292   0.01056   0.02456
   6   40926.1    244.3   0.059096512   0.01653   0.12746  -0.01522   0.00719
   7   43289.7    231.0   0.002887984   0.00085  -0.00176  -0.02044  -0.02082
   8   42192.0    237.0   0.000864844   0.00025   0.01420  -0.00692   0.00002
   9   42375.2    236.0   0.014724336   0.00426  -0.06447   0.00731  -0.00740
  10   45608.3    219.3   0.000948602   0.00030  -0.01594   0.00328   0.00556

-------------------------------------------------------------------
                             CD SPECTRUM
-------------------------------------------------------------------
State  Energy     Wavelength     R         MX        MY        MZ   
       (cm-1)       (nm)     (1e40*cgs)   (au)      (au)      (au)  
-------------------------------------------------------------------
   1   29986.6    333.5    -93.13699   0.03413  -0.26834  -0.18044
   2   33408.9    299.3     -3.11506  -0.00022   0.09292   0.06364
   3   37143.0    269.2      0.42545   0.00693   0.01409  -0.02091
   4   39601.1    252.5    -54.65687   0.17360   0.19838   0.18332
   5   38667.2    258.6     52.55377  -0.30007   0.17887  -0.04524
   6   40926.1    244.3    -24.66391   0.04973   0.28241   0.22594
   7   43289.7    231.0      5.04546  -0.04356   0.04609   0.02638
   8   42192.0    237.0      8.60349  -0.03256   0.08714  -0.00204
   9   42375.2    236.0     -1.63826  -0.00047   0.01119  -0.01234
  10   45608.3    219.3     -2.98485  -0.12569   0.19558  -0.25810

-------------------------------------------------------------------
         CD SPECTRUM VIA TRANSITION VELOCITY DIPOLE MOMENTS        
-------------------------------------------------------------------
State  Energy     Wavelength     R         MX        MY        MZ   
       (cm-1)       (nm)     (1e40*cgs)   (au)      (au)      (au)  
-------------------------------------------------------------------
   1   29986.6    333.5     79.01509   0.03413  -0.26834  -0.18044
   2   33408.9    299.3      2.04959  -0.00022   0.09292   0.06364
   3   37143.0    269.2      1.09580   0.00693   0.01409  -0.02091
   4   39601.1    252.5     47.92383   0.17360   0.19838   0.18332
   5   38667.2    258.6    -40.41690  -0.30007   0.17887  -0.04524
   6   40926.1    244.3      9.27069   0.04973   0.28241   0.22594
   7   43289.7    231.0     -3.38147  -0.04356   0.04609   0.02638
   8   42192.0    237.0     -2.61180  -0.03256   0.08714  -0.00204
   9   42375.2    236.0      0.49750  -0.00047   0.01119  -0.01234
  10   45608.3    219.3      2.74527  -0.12569   0.19558  -0.25810

Total run time:     7130.154 sec

           *** ORCA-CIS/TD-DFT FINISHED WITHOUT ERROR ***

Maximum memory used throughout the entire CIS-calculation: 1207.6 MB

-----------------------
CIS/TD-DFT TOTAL ENERGY
-----------------------

    E(SCF)  =  -1528.515515434 Eh
    DE(CIS) =      0.136628904 Eh (Root  1)
    ----------------------------- ---------
    E(tot)  =  -1528.378886530 Eh



-------------------------------------------------------------------------------
                          DFT DISPERSION CORRECTION                            
                                                                               
                              DFTD3 V3.1  Rev 1                                
                          USING Becke-Johnson damping                          
-------------------------------------------------------------------------------
The B2PLYP functional is recognized
Active option DFTDOPT                   ...         4   

molecular C6(AA) [au] = 15613.385348 


            DFT-D V3
 parameters
 s6 scaling factor         :     0.6400 
 a1 scaling factor         :     0.3065 
 s8 scaling factor         :     0.9147 
 a2 scaling factor         :     5.0570 
 ad hoc parameters k1-k3   :    16.0000     1.3333    -4.0000 

 Edisp/kcal,au: -22.383636255924  -0.035670591112 
 E6   /kcal   : -12.129499239 
 E8   /kcal   : -10.254137017 
 % E8         :  45.810863345 

-------------------------   ----------------
Dispersion correction           -0.035670591
-------------------------   ----------------


-------------------------   --------------------
FINAL SINGLE POINT ENERGY     -1528.414557120948
-------------------------   --------------------


                            ***************************************
                            *     ORCA property calculations      *
                            ***************************************


  WARNING: The energy has been calculated at the MP2 level but the densities
           used in the property calculations are still SCF densities
           MP2 response densities have not been calculated 
           use %mp2 Density relaxed end
           or  %mp2 Density unrelaxed end

                                    ---------------------
                                    Active property flags
                                    ---------------------
   (+) Dipole Moment


------------------------------------------------------------------------------
                       ORCA ELECTRIC PROPERTIES CALCULATION
------------------------------------------------------------------------------

Dipole Moment Calculation                       ... on
Quadrupole Moment Calculation                   ... off
Polarizability Calculation                      ... off
GBWName                                         ... optpbed3-b2plyp-test-532_job2.gbw
Electron density                                ... optpbed3-b2plyp-test-532_job2.scfp
The origin for moment calculation is the CENTER OF MASS  = (-1.023308,  0.341610 -0.197366)

-------------
DIPOLE MOMENT
-------------
                                X             Y             Z
Electronic contribution:    -16.62187       4.72726      -5.66588
Nuclear contribution   :     17.14866      -4.56627       5.38632
                        -----------------------------------------
Total Dipole Moment    :      0.52680       0.16100      -0.27956
                        -----------------------------------------
Magnitude (a.u.)       :      0.61773
Magnitude (Debye)      :      1.57014



--------------------
Rotational spectrum 
--------------------
 
Rotational constants in cm-1:     0.048920     0.003394     0.003202 
Rotational constants in MHz :  1466.588881   101.743891    95.992501 

 Dipole components along the rotational axes: 
x,y,z [a.u.] :     0.494443     0.363897     0.068501 
x,y,z [Debye]:     1.256775     0.924951     0.174116 

 

Timings for individual modules:

Sum of individual times         ...     8923.220 sec (= 148.720 min)
GTO integral calculation        ...        4.906 sec (=   0.082 min)   0.1 %
SCF iterations                  ...      949.386 sec (=  15.823 min)  10.6 %
MP2 module                      ...      835.770 sec (=  13.929 min)   9.4 %
CIS module                      ...     7133.158 sec (= 118.886 min)  79.9 %



                             ****ORCA TERMINATED NORMALLY****
TOTAL RUN TIME: 0 days 4 hours 41 minutes 43 seconds 783 msec
