
                                 *****************
                                 * O   R   C   A *
                                 *****************

                                            #,                                       
                                            ###                                      
                                            ####                                     
                                            #####                                    
                                            ######                                   
                                           ########,                                 
                                     ,,################,,,,,                         
                               ,,#################################,,                 
                          ,,##########################################,,             
                       ,#########################################, ''#####,          
                    ,#############################################,,   '####,        
                  ,##################################################,,,,####,       
                ,###########''''           ''''###############################       
              ,#####''   ,,,,##########,,,,          '''####'''          '####       
            ,##' ,,,,###########################,,,                        '##       
           ' ,,###''''                  '''############,,,                           
         ,,##''                                '''############,,,,        ,,,,,,###''
      ,#''                                            '''#######################'''  
     '                                                          ''''####''''         
             ,#######,   #######,   ,#######,      ##                                
            ,#'     '#,  ##    ##  ,#'     '#,    #''#        ######   ,####,        
            ##       ##  ##   ,#'  ##            #'  '#       #        #'  '#        
            ##       ##  #######   ##           ,######,      #####,   #    #        
            '#,     ,#'  ##    ##  '#,     ,#' ,#      #,         ##   #,  ,#        
             '#######'   ##     ##  '#######'  #'      '#     #####' # '####'        



                  #######################################################
                  #                        -***-                        #
                  #          Department of theory and spectroscopy      #
                  #    Directorship and core code : Frank Neese         #
                  #        Max Planck Institute fuer Kohlenforschung    #
                  #                Kaiser Wilhelm Platz 1               #
                  #                 D-45470 Muelheim/Ruhr               #
                  #                      Germany                        #
                  #                                                     #
                  #                  All rights reserved                #
                  #                        -***-                        #
                  #######################################################


                         Program Version 5.0.2 -  RELEASE  -


 With contributions from (in alphabetic order):
   Daniel Aravena         : Magnetic Suceptibility
   Michael Atanasov       : Ab Initio Ligand Field Theory (pilot matlab implementation)
   Alexander A. Auer      : GIAO ZORA, VPT2 properties, NMR spectrum
   Ute Becker             : Parallelization
   Giovanni Bistoni       : ED, misc. LED, open-shell LED, HFLD
   Martin Brehm           : Molecular dynamics
   Dmytro Bykov           : SCF Hessian
   Vijay G. Chilkuri      : MRCI spin determinant printing, contributions to CSF-ICE
   Dipayan Datta          : RHF DLPNO-CCSD density
   Achintya Kumar Dutta   : EOM-CC, STEOM-CC
   Dmitry Ganyushin       : Spin-Orbit,Spin-Spin,Magnetic field MRCI
   Miquel Garcia          : C-PCM and meta-GGA Hessian, CC/C-PCM, Gaussian charge scheme
   Yang Guo               : DLPNO-NEVPT2, F12-NEVPT2, CIM, IAO-localization
   Andreas Hansen         : Spin unrestricted coupled pair/coupled cluster methods
   Benjamin Helmich-Paris : MC-RPA, TRAH-SCF, COSX integrals
   Lee Huntington         : MR-EOM, pCC
   Robert Izsak           : Overlap fitted RIJCOSX, COSX-SCS-MP3, EOM
   Marcus Kettner         : VPT2
   Christian Kollmar      : KDIIS, OOCD, Brueckner-CCSD(T), CCSD density, CASPT2, CASPT2-K
   Simone Kossmann        : Meta GGA functionals, TD-DFT gradient, OOMP2, MP2 Hessian
   Martin Krupicka        : Initial AUTO-CI
   Lucas Lang             : DCDCAS
   Marvin Lechner         : AUTO-CI (C++ implementation), FIC-MRCC
   Dagmar Lenk            : GEPOL surface, SMD
   Dimitrios Liakos       : Extrapolation schemes; Compound Job, initial MDCI parallelization
   Dimitrios Manganas     : Further ROCIS development; embedding schemes
   Dimitrios Pantazis     : SARC Basis sets
   Anastasios Papadopoulos: AUTO-CI, single reference methods and gradients
   Taras Petrenko         : DFT Hessian,TD-DFT gradient, ASA, ECA, R-Raman, ABS, FL, XAS/XES, NRVS
   Peter Pinski           : DLPNO-MP2, DLPNO-MP2 Gradient
   Christoph Reimann      : Effective Core Potentials
   Marius Retegan         : Local ZFS, SOC
   Christoph Riplinger    : Optimizer, TS searches, QM/MM, DLPNO-CCSD(T), (RO)-DLPNO pert. Triples
   Tobias Risthaus        : Range-separated hybrids, TD-DFT gradient, RPA, STAB
   Michael Roemelt        : Original ROCIS implementation
   Masaaki Saitow         : Open-shell DLPNO-CCSD energy and density
   Barbara Sandhoefer     : DKH picture change effects
   Avijit Sen             : IP-ROCIS
   Kantharuban Sivalingam : CASSCF convergence, NEVPT2, FIC-MRCI
   Bernardo de Souza      : ESD, SOC TD-DFT
   Georgi Stoychev        : AutoAux, RI-MP2 NMR, DLPNO-MP2 response
   Willem Van den Heuvel  : Paramagnetic NMR
   Boris Wezisla          : Elementary symmetry handling
   Frank Wennmohs         : Technical directorship


 We gratefully acknowledge several colleagues who have allowed us to
 interface, adapt or use parts of their codes:
   Stefan Grimme, W. Hujo, H. Kruse, P. Pracht,  : VdW corrections, initial TS optimization,
                  C. Bannwarth, S. Ehlert          DFT functionals, gCP, sTDA/sTD-DF
   Ed Valeev, F. Pavosevic, A. Kumar             : LibInt (2-el integral package), F12 methods
   Garnet Chan, S. Sharma, J. Yang, R. Olivares  : DMRG
   Ulf Ekstrom                                   : XCFun DFT Library
   Mihaly Kallay                                 : mrcc  (arbitrary order and MRCC methods)
   Jiri Pittner, Ondrej Demel                    : Mk-CCSD
   Frank Weinhold                                : gennbo (NPA and NBO analysis)
   Christopher J. Cramer and Donald G. Truhlar   : smd solvation model
   Lars Goerigk                                  : TD-DFT with DH, B97 family of functionals
   V. Asgeirsson, H. Jonsson                     : NEB implementation
   FAccTs GmbH                                   : IRC, NEB, NEB-TS, DLPNO-Multilevel, CI-OPT
                                                   MM, QMMM, 2- and 3-layer-ONIOM, Crystal-QMMM,
                                                   LR-CPCM, SF, NACMEs, symmetry and pop. for TD-DFT,
                                                   nearIR, NL-DFT gradient (VV10), updates on ESD,
                                                   ML-optimized integration grids
   S Lehtola, MJT Oliveira, MAL Marques          : LibXC Library
   Liviu Ungur et al                             : ANISO software


 Your calculation uses the libint2 library for the computation of 2-el integrals
 For citations please refer to: http://libint.valeyev.net

 Your ORCA version has been built with support for libXC version: 5.1.0
 For citations please refer to: https://tddft.org/programs/libxc/

 This ORCA versions uses:
   CBLAS   interface :  Fast vector & matrix operations
   LAPACKE interface :  Fast linear algebra routines
   SCALAPACK package :  Parallel linear algebra routines
   Shared memory     :  Shared parallel matrices
   BLAS/LAPACK       :  OpenBLAS 0.3.15  USE64BITINT DYNAMIC_ARCH NO_AFFINITY Haswell SINGLE_THREADED
        Core in use  :  Haswell
   Copyright (c) 2011-2014, The OpenBLAS Project


Your calculation utilizes the atom-pairwise dispersion correction
with the Becke-Johnson damping scheme (D3BJ)
Cite in your paper:
S.Grimme, S.Ehrlich, L.Goerigk, J Comput Chem, (2011), 32, 1456–1465 
S.Grimme, J.Antony, S.Ehrlich and H.Krieg, J.Chem.Phys., 132, (2010), 154104 
   

Your calculation utilizes the SMD solvation module
Please cite in your paper:
A.V. Marenich, C.J. Cramer, D.G. Truhlar J. Phys. Chem. B, 113, (2009), 6378 

================================================================================

----- Orbital basis set information -----
Your calculation utilizes the basis: aug-cc-pVTZ 
    H, B-Ne : Obtained from the ccRepo (grant-hill.group.shef.ac.uk/ccrepo) Feb. 2017
              R. A. Kendall, T. H. Dunning, Jr., R. J. Harrison, J. Chem. Phys. 96, 6796 (1992)
         He : Obtained from the ccRepo (grant-hill.group.shef.ac.uk/ccrepo) Feb. 2017
              D. E. Woon, T. H. Dunning, Jr., J. Chem. Phys. 100, 2975 (1994)
  Li-Be, Na : Obtained from the ccRepo (grant-hill.group.shef.ac.uk/ccrepo) Feb. 2017
              B. P. Prascher, D. E. Woon, K. A. Peterson, T. H. Dunning, Jr., A. K. Wilson, Theor. Chem. Acc. 128, 69 (2011)
         Mg : Obtained from the Peterson Research Group Website (tyr0.chem.wsu.edu/~kipeters) Feb. 2017
              B. P. Prascher, D. E. Woon, K. A. Peterson, T. H. Dunning, Jr., A. K. Wilson, Theor. Chem. Acc. 128, 69 (2011)
      Al-Ar : Obtained from the ccRepo (grant-hill.group.shef.ac.uk/ccrepo) Feb. 2017
              D. E. Woon, T. H. Dunning, Jr., J. Chem. Phys. 98, 1358 (1993)
      Sc-Zn : Obtained from the ccRepo (grant-hill.group.shef.ac.uk/ccrepo) Feb. 2017
              N. B. Balabanov, K. A. Peterson, J. Chem. Phys. 123, 064107 (2005)
              N. B. Balabanov, K. A. Peterson, J. Chem. Phys. 125, 074110 (2006)
      Ga-Kr : Obtained from the ccRepo (grant-hill.group.shef.ac.uk/ccrepo) Feb. 2017
              A. K. Wilson, D. E. Woon, K. A. Peterson, T. H. Dunning, Jr., J. Chem. Phys. 110, 7667 (1999)
     Ag, Au : Obtained from the Peterson Research Group Website (tyr0.chem.wsu.edu/~kipeters) Feb. 2017
              K. A. Peterson, C. Puzzarini, Theor. Chem. Acc. 114, 283 (2005)

The basis set includes element-specific modifications.

Your calculation utilizes the basis: cc-pVTZ 
       H, B-Ne : Obtained from the ccRepo (grant-hill.group.shef.ac.uk/ccrepo) Feb. 2017
                 T. H. Dunning, Jr., J. Chem. Phys. 90, 1007 (1989)
            He : Obtained from the ccRepo (grant-hill.group.shef.ac.uk/ccrepo) Feb. 2017
                 D. E. Woon, T. H. Dunning, Jr., J. Chem. Phys. 100, 2975 (1994)
  Li-Be, Na-Mg : Obtained from the ccRepo (grant-hill.group.shef.ac.uk/ccrepo) Feb. 2017
                 B. P. Prascher, D. E. Woon, K. A. Peterson, T. H. Dunning, Jr., A. K. Wilson, Theor. Chem. Acc. 128, 69 (2011)
         Al-Ar : Obtained from the ccRepo (grant-hill.group.shef.ac.uk/ccrepo) Feb. 2017
                 D. E. Woon, T. H. Dunning, Jr., J. Chem. Phys. 98, 1358 (1993)
            Ca : Obtained from the Peterson Research Group Website (tyr0.chem.wsu.edu/~kipeters) Feb. 2017
                 J. Koput, K. A. Peterson, J. Phys. Chem. 106, 9595 (2002)
         Sc-Zn : Obtained from the ccRepo (grant-hill.group.shef.ac.uk/ccrepo) Feb. 2017
                 N. B. Balabanov, K. A. Peterson, J. Chem. Phys. 123, 064107 (2005)
                 N. B. Balabanov, K. A. Peterson, J. Chem. Phys. 125, 074110 (2006)
         Ga-Kr : Obtained from the ccRepo (grant-hill.group.shef.ac.uk/ccrepo) Feb. 2017
                 A. K. Wilson, D. E. Woon, K. A. Peterson, T. H. Dunning, Jr., J. Chem. Phys. 110, 7667 (1999)
             Y : Obtained from the ccRepo (grant-hill.group.shef.ac.uk/ccrepo) Feb. 2017
                 K. A. Peterson, D. Figgen, M. Dolg, H. Stoll, J. Chem. Phys. 126, 124101 (2007)
        Ag, Au : Obtained from the Peterson Research Group Website (tyr0.chem.wsu.edu/~kipeters) Feb. 2017
                 K. A. Peterson, C. Puzzarini, Theor. Chem. Acc. 114, 283 (2005)

----- AuxJ basis set information -----
Your calculation utilizes the auxiliary basis: aug-cc-pVTZ/JK 
  H, B-F, Al-Cl, Ga-Br : Obtained from the TURBOMOLE 7.0 basis set library

The basis set includes element-specific modifications.

Your calculation utilizes the auxiliary basis: cc-pVTZ/JK 
  H, B-F, Al-Cl, Ga-Br : Obtained from the TURBOMOLE 7.0 basis set library

----- AuxC basis set information -----
Your calculation utilizes the auxiliary basis: aug-cc-pVTZ/C 
  H-He, B-F, Al-Ar, Ga-Kr : Obtained from the EMSL Basis Set Exchange (bse.pnl.gov) Feb. 2017
                            F. Weigend, A. Kohn, C. Hattig, J. Chem. Phys. 116, 3175 (2002)
                   Be, Mg : Obtained from the TURBOMOLE 7.0 basis set library
                            C. Haettig, Phys. Chem. Chem. Phys. 7, 59 (2005)
                       Ne : Obtained from the EMSL Basis Set Exchange (bse.pnl.gov) Feb. 2017
                            C. Haettig, Phys. Chem. Chem. Phys. 7, 59 (2005)
                            F. Weigend, A. Kohn, C. Hattig, J. Chem. Phys. 116, 3175 (2002)
                    Sc-Zn : Obtained from the EMSL Basis Set Exchange (bse.pnl.gov) Feb. 2017
                            J. G. Hill, J. A. Platts, J. Chem. Phys. 128, 044104 (2008)

The basis set includes element-specific modifications.

Your calculation utilizes the auxiliary basis: cc-pVTZ/C 
  Obtained from the EMSL Basis Set Exchange (bse.pnl.gov) Feb. 2017
  H-He, B-F, Al-Ar, Ga-Kr : F. Weigend, A. Kohn, C. Hattig, J. Chem. Phys. 116, 3175 (2002)
             Li-Be, Na-Mg : C. Haettig, Phys. Chem. Chem. Phys. 7, 59 (2005)
                       Ne : C. Haettig, Phys. Chem. Chem. Phys. 7, 59 (2005)
                            F. Weigend, A. Kohn, C. Hattig, J. Chem. Phys. 116, 3175 (2002)
                    Sc-Zn : J. G. Hill, J. A. Platts, J. Chem. Phys. 128, 044104 (2008)

================================================================================
                                        WARNINGS
                       Please study these warnings very carefully!
================================================================================


WARNING: Geometry Optimization
  ===> : Switching off AutoStart
         For restart on a previous wavefunction, please use MOREAD

INFO   : the flag for use of the SHARK integral package has been found!



***************************************
The coordinates will be read from file: 
***************************************


Your calculation utilizes the atom-pairwise dispersion correction
with the Becke-Johnson damping scheme (D3BJ)
Cite in your paper:
S.Grimme, S.Ehrlich, L.Goerigk, J Comput Chem, (2011), 32, 1456–1465 
S.Grimme, J.Antony, S.Ehrlich and H.Krieg, J.Chem.Phys., 132, (2010), 154104 
   

Your calculation utilizes the SMD solvation module
Please cite in your paper:
A.V. Marenich, C.J. Cramer, D.G. Truhlar J. Phys. Chem. B, 113, (2009), 6378 

================================================================================

----- Orbital basis set information -----
Your calculation utilizes the basis: aug-cc-pVTZ 
    H, B-Ne : Obtained from the ccRepo (grant-hill.group.shef.ac.uk/ccrepo) Feb. 2017
              R. A. Kendall, T. H. Dunning, Jr., R. J. Harrison, J. Chem. Phys. 96, 6796 (1992)
         He : Obtained from the ccRepo (grant-hill.group.shef.ac.uk/ccrepo) Feb. 2017
              D. E. Woon, T. H. Dunning, Jr., J. Chem. Phys. 100, 2975 (1994)
  Li-Be, Na : Obtained from the ccRepo (grant-hill.group.shef.ac.uk/ccrepo) Feb. 2017
              B. P. Prascher, D. E. Woon, K. A. Peterson, T. H. Dunning, Jr., A. K. Wilson, Theor. Chem. Acc. 128, 69 (2011)
         Mg : Obtained from the Peterson Research Group Website (tyr0.chem.wsu.edu/~kipeters) Feb. 2017
              B. P. Prascher, D. E. Woon, K. A. Peterson, T. H. Dunning, Jr., A. K. Wilson, Theor. Chem. Acc. 128, 69 (2011)
      Al-Ar : Obtained from the ccRepo (grant-hill.group.shef.ac.uk/ccrepo) Feb. 2017
              D. E. Woon, T. H. Dunning, Jr., J. Chem. Phys. 98, 1358 (1993)
      Sc-Zn : Obtained from the ccRepo (grant-hill.group.shef.ac.uk/ccrepo) Feb. 2017
              N. B. Balabanov, K. A. Peterson, J. Chem. Phys. 123, 064107 (2005)
              N. B. Balabanov, K. A. Peterson, J. Chem. Phys. 125, 074110 (2006)
      Ga-Kr : Obtained from the ccRepo (grant-hill.group.shef.ac.uk/ccrepo) Feb. 2017
              A. K. Wilson, D. E. Woon, K. A. Peterson, T. H. Dunning, Jr., J. Chem. Phys. 110, 7667 (1999)
     Ag, Au : Obtained from the Peterson Research Group Website (tyr0.chem.wsu.edu/~kipeters) Feb. 2017
              K. A. Peterson, C. Puzzarini, Theor. Chem. Acc. 114, 283 (2005)

The basis set includes element-specific modifications.

Your calculation utilizes the basis: cc-pVTZ 
       H, B-Ne : Obtained from the ccRepo (grant-hill.group.shef.ac.uk/ccrepo) Feb. 2017
                 T. H. Dunning, Jr., J. Chem. Phys. 90, 1007 (1989)
            He : Obtained from the ccRepo (grant-hill.group.shef.ac.uk/ccrepo) Feb. 2017
                 D. E. Woon, T. H. Dunning, Jr., J. Chem. Phys. 100, 2975 (1994)
  Li-Be, Na-Mg : Obtained from the ccRepo (grant-hill.group.shef.ac.uk/ccrepo) Feb. 2017
                 B. P. Prascher, D. E. Woon, K. A. Peterson, T. H. Dunning, Jr., A. K. Wilson, Theor. Chem. Acc. 128, 69 (2011)
         Al-Ar : Obtained from the ccRepo (grant-hill.group.shef.ac.uk/ccrepo) Feb. 2017
                 D. E. Woon, T. H. Dunning, Jr., J. Chem. Phys. 98, 1358 (1993)
            Ca : Obtained from the Peterson Research Group Website (tyr0.chem.wsu.edu/~kipeters) Feb. 2017
                 J. Koput, K. A. Peterson, J. Phys. Chem. 106, 9595 (2002)
         Sc-Zn : Obtained from the ccRepo (grant-hill.group.shef.ac.uk/ccrepo) Feb. 2017
                 N. B. Balabanov, K. A. Peterson, J. Chem. Phys. 123, 064107 (2005)
                 N. B. Balabanov, K. A. Peterson, J. Chem. Phys. 125, 074110 (2006)
         Ga-Kr : Obtained from the ccRepo (grant-hill.group.shef.ac.uk/ccrepo) Feb. 2017
                 A. K. Wilson, D. E. Woon, K. A. Peterson, T. H. Dunning, Jr., J. Chem. Phys. 110, 7667 (1999)
             Y : Obtained from the ccRepo (grant-hill.group.shef.ac.uk/ccrepo) Feb. 2017
                 K. A. Peterson, D. Figgen, M. Dolg, H. Stoll, J. Chem. Phys. 126, 124101 (2007)
        Ag, Au : Obtained from the Peterson Research Group Website (tyr0.chem.wsu.edu/~kipeters) Feb. 2017
                 K. A. Peterson, C. Puzzarini, Theor. Chem. Acc. 114, 283 (2005)

----- AuxJ basis set information -----
Your calculation utilizes the auxiliary basis: aug-cc-pVTZ/JK 
  H, B-F, Al-Cl, Ga-Br : Obtained from the TURBOMOLE 7.0 basis set library

The basis set includes element-specific modifications.

Your calculation utilizes the auxiliary basis: cc-pVTZ/JK 
  H, B-F, Al-Cl, Ga-Br : Obtained from the TURBOMOLE 7.0 basis set library

----- AuxC basis set information -----
Your calculation utilizes the auxiliary basis: aug-cc-pVTZ/C 
  H-He, B-F, Al-Ar, Ga-Kr : Obtained from the EMSL Basis Set Exchange (bse.pnl.gov) Feb. 2017
                            F. Weigend, A. Kohn, C. Hattig, J. Chem. Phys. 116, 3175 (2002)
                   Be, Mg : Obtained from the TURBOMOLE 7.0 basis set library
                            C. Haettig, Phys. Chem. Chem. Phys. 7, 59 (2005)
                       Ne : Obtained from the EMSL Basis Set Exchange (bse.pnl.gov) Feb. 2017
                            C. Haettig, Phys. Chem. Chem. Phys. 7, 59 (2005)
                            F. Weigend, A. Kohn, C. Hattig, J. Chem. Phys. 116, 3175 (2002)
                    Sc-Zn : Obtained from the EMSL Basis Set Exchange (bse.pnl.gov) Feb. 2017
                            J. G. Hill, J. A. Platts, J. Chem. Phys. 128, 044104 (2008)

The basis set includes element-specific modifications.

Your calculation utilizes the auxiliary basis: cc-pVTZ/C 
  Obtained from the EMSL Basis Set Exchange (bse.pnl.gov) Feb. 2017
  H-He, B-F, Al-Ar, Ga-Kr : F. Weigend, A. Kohn, C. Hattig, J. Chem. Phys. 116, 3175 (2002)
             Li-Be, Na-Mg : C. Haettig, Phys. Chem. Chem. Phys. 7, 59 (2005)
                       Ne : C. Haettig, Phys. Chem. Chem. Phys. 7, 59 (2005)
                            F. Weigend, A. Kohn, C. Hattig, J. Chem. Phys. 116, 3175 (2002)
                    Sc-Zn : J. G. Hill, J. A. Platts, J. Chem. Phys. 128, 044104 (2008)

================================================================================
                                        WARNINGS
                       Please study these warnings very carefully!
================================================================================

INFO   : Checking CIS options ...
  ===> : (D) CORRECTION FOUND - SETTING MODE=3
  ===> : JK MODE FOUND - ACTIVATING RI-MP2 CODE
  ===> : MP2 AND CIS FOUND - CHECKING
WARNING: CIS(D) and MP2 runs must have the same orbital window
  ===> : adjusting orbital windows

WARNING: No MP2 level density has been requested!
         To caclulate MP2 level properties use
         %mp2 Density relaxed end
         or
         %mp2 Density unrelaxed end
         Otherwise for double-hybrid DFT only the energy is correct!

WARNING: The frozen-core approximation is turned on by default for 
         the MP2 part of double-hybrid DFT.

INFO   : the flag for use of the SHARK integral package has been found!

================================================================================
                                       INPUT FILE
================================================================================
NAME = optpbed3-b2plyp-test-599.inp
|  1> ! pbe0 d3bj aug-cc-PVTZ RIJCOSX Opt
|  2> %maxcore 4000
|  3> %basis
|  4>  AuxJ "aug-cc-PVTZ/JK"
|  5>  AuxC "aug-cc-PVTZ/C"
|  6>  newGTO H "cc-PVTZ" end
|  7>  newAuxJGTO H "cc-PVTZ/JK" end
|  8>  newAuxCGTO H "cc-PVTZ/C" end
|  9> end
| 10> %cpcm
| 11>  SMD true
| 12>  SMDsolvent "methanol"
| 13> end
| 14> %pal nprocs 4 end
| 15> * xyz 0 1
| 16> C         -5.61960        1.50190        0.56600
| 17> N         -4.98880        0.69160       -0.44630
| 18> C         -5.79820        0.14330       -1.50600
| 19> C         -3.64440        0.46010       -0.41120
| 20> C         -3.00190       -0.29450       -1.40830
| 21> C         -1.64800       -0.52020       -1.36420
| 22> C         -0.84190       -0.01780       -0.33430
| 23> C          0.57120       -0.28890       -0.35170
| 24> C          1.47630        0.08880        0.57250
| 25> C          2.89130       -0.18740        0.55120
| 26> C          3.67340        0.20810        1.65070
| 27> C          5.02070       -0.03780        1.67790
| 28> C          5.65870       -0.68010        0.61400
| 29> N          7.06580       -0.90400        0.70260
| 30> O          7.61300       -0.58480        1.74590
| 31> O          7.65140       -1.38760       -0.24270
| 32> C          4.90200       -1.08120       -0.50280
| 33> O          5.49740       -1.70210       -1.53350
| 34> C          3.53670       -0.82780       -0.50790
| 35> C         -1.48490        0.73240        0.65820
| 36> C         -2.83780        0.96580        0.62440
| 37> H         -5.52060        1.04710        1.55660
| 38> H         -5.18350        2.50480        0.59680
| 39> H         -6.67910        1.60190        0.34420
| 40> H         -5.50200        0.54390       -2.48080
| 41> H         -6.84110        0.39910       -1.33760
| 42> H         -5.71790       -0.94720       -1.53760
| 43> H         -3.56530       -0.70690       -2.22890
| 44> H         -1.19110       -1.10490       -2.15090
| 45> H          0.89920       -0.86480       -1.20780
| 46> H          1.14470        0.64670        1.43710
| 47> H          3.20170        0.70860        2.48230
| 48> H          5.62760        0.25980        2.51940
| 49> H          4.85350       -1.92010       -2.21970
| 50> H          2.97020       -1.14030       -1.37400
| 51> H         -0.91280        1.14510        1.47470
| 52> H         -3.27570        1.54960        1.41710
| 53> *
| 54> 
| 55> 
| 56> $new_job
| 57> ! b2plyp aug-cc-PVTZ RIJCOSX SP
| 58> %maxcore 4000
| 59> %basis
| 60>  AuxJ "aug-cc-PVTZ/JK"
| 61>  AuxC "aug-cc-PVTZ/C"
| 62>  newGTO H "cc-PVTZ" end
| 63>  newAuxJGTO H "cc-PVTZ/JK" end
| 64>  newAuxCGTO H "cc-PVTZ/C" end
| 65> end
| 66> %cpcm
| 67>  SMD true
| 68>  SMDsolvent "methanol"
| 69> end
| 70> %pal nprocs 4 end
| 71> %tddft
| 72>  nroots 10
| 73>  maxdim 7
| 74> end
| 75> * xyzfile 0 1
| 76> 
| 77>                          ****END OF INPUT****
================================================================================


                 $$$$$$$$$$$$$$$$$$$$$$$$$$$$$$$$$$$$$$$$$$$$$$ 
                 $ THERE ARE  2 JOBS TO BE PROCESSED THIS RUN $
                 $$$$$$$$$$$$$$$$$$$$$$$$$$$$$$$$$$$$$$$$$$$$$$ 




                 $$$$$$$$$$$$$$$$  JOB NUMBER  1 $$$$$$$$$$$$$$


                       *****************************
                       * Geometry Optimization Run *
                       *****************************

Geometry optimization settings:
Update method            Update   .... BFGS
Choice of coordinates    CoordSys .... Z-matrix Internals
Initial Hessian          InHess   .... Almoef's Model

Convergence Tolerances:
Energy Change            TolE     ....  5.0000e-06 Eh
Max. Gradient            TolMAXG  ....  3.0000e-04 Eh/bohr
RMS Gradient             TolRMSG  ....  1.0000e-04 Eh/bohr
Max. Displacement        TolMAXD  ....  4.0000e-03 bohr
RMS Displacement         TolRMSD  ....  2.0000e-03 bohr
Strict Convergence                ....  False
------------------------------------------------------------------------------
                        ORCA OPTIMIZATION COORDINATE SETUP
------------------------------------------------------------------------------

The optimization will be done in new redundant internal coordinates
Making redundant internal coordinates   ...  (new redundants) done
Evaluating the initial hessian          ...  (Almloef) done
Evaluating the coordinates              ...  done
Calculating the B-matrix                .... done
Calculating the G-matrix                .... done
Diagonalizing the G-matrix              .... done
Small eigenvalue found = 1.857e-03
Small eigenvalue found = 9.529e-03
Small eigenvalue found = 1.218e-02
Small eigenvalue found = 1.770e-02
Small eigenvalue found = 1.849e-02
The first mode is                       ....   76
The number of degrees of freedom        ....  105

    -----------------------------------------------------------------
                    Redundant Internal Coordinates


    -----------------------------------------------------------------
         Definition                    Initial Value    Approx d2E/dq
    -----------------------------------------------------------------
      1. B(N   1,C   0)                  1.4420         0.462358   
      2. B(C   2,N   1)                  1.4418         0.462664   
      3. B(C   3,N   1)                  1.3646         0.614242   
      4. B(C   4,C   3)                  1.4059         0.589439   
      5. B(C   5,C   4)                  1.3733         0.664348   
      6. B(C   6,C   5)                  1.4010         0.599976   
      7. B(C   7,C   6)                  1.4390         0.521917   
      8. B(C   8,C   7)                  1.3476         0.730121   
      9. B(C   9,C   8)                  1.4419         0.516412   
     10. B(C  10,C   9)                  1.4061         0.589004   
     11. B(C  11,C  10)                  1.3698         0.672860   
     12. B(C  12,C  11)                  1.3970         0.609040   
     13. B(N  13,C  12)                  1.4276         0.487483   
     14. B(O  14,N  13)                  1.2206         0.933957   
     15. B(O  15,N  13)                  1.2126         0.961722   
     16. B(C  16,C  12)                  1.4074         0.586152   
     17. B(O  17,C  16)                  1.3425         0.666234   
     18. B(C  18,C  16)                  1.3886         0.627959   
     19. B(C  18,C   9)                  1.3958         0.611553   
     20. B(C  19,C   6)                  1.4005         0.601230   
     21. B(C  20,C  19)                  1.3733         0.664325   
     22. B(C  20,C   3)                  1.4067         0.587619   
     23. B(H  21,C   0)                  1.0945         0.354195   
     24. B(H  22,C   0)                  1.0940         0.354785   
     25. B(H  23,C   0)                  1.0871         0.363988   
     26. B(H  24,C   2)                  1.0947         0.353887   
     27. B(H  25,C   2)                  1.0869         0.364174   
     28. B(H  26,C   2)                  1.0939         0.354966   
     29. B(H  27,C   4)                  1.0774         0.377104   
     30. B(H  28,C   5)                  1.0814         0.371594   
     31. B(H  29,C   7)                  1.0827         0.369942   
     32. B(H  30,C   8)                  1.0811         0.372089   
     33. B(H  31,C  10)                  1.0791         0.374746   
     34. B(H  32,C  11)                  1.0794         0.374456   
     35. B(H  33,O  17)                  0.9659         0.508770   
     36. B(H  34,C  18)                  1.0811         0.372112   
     37. B(H  35,C  19)                  1.0790         0.374917   
     38. B(H  36,C  20)                  1.0775         0.377056   
     39. A(H  22,C   0,H  23)          108.0543         0.290651   
     40. A(N   1,C   0,H  22)          111.1318         0.333099   
     41. A(N   1,C   0,H  23)          109.5615         0.334518   
     42. A(H  21,C   0,H  23)          108.1223         0.290575   
     43. A(H  21,C   0,H  22)          108.6253         0.289410   
     44. A(N   1,C   0,H  21)          111.2423         0.333007   
     45. A(C   2,N   1,C   3)          120.4945         0.405982   
     46. A(C   0,N   1,C   3)          120.5470         0.405935   
     47. A(C   0,N   1,C   2)          118.9540         0.386244   
     48. A(N   1,C   2,H  26)          111.0469         0.333164   
     49. A(H  24,C   2,H  26)          108.6151         0.289394   
     50. A(N   1,C   2,H  25)          109.5892         0.334583   
     51. A(N   1,C   2,H  24)          111.3100         0.332995   
     52. A(H  25,C   2,H  26)          108.0300         0.290697   
     53. A(H  24,C   2,H  25)          108.1462         0.290559   
     54. A(N   1,C   3,C  20)          121.5233         0.426384   
     55. A(N   1,C   3,C   4)          121.5372         0.426620   
     56. A(C   4,C   3,C  20)          116.9394         0.426024   
     57. A(C   5,C   4,H  27)          118.4944         0.359882   
     58. A(C   3,C   4,H  27)          120.4408         0.352646   
     59. A(C   3,C   4,C   5)          121.0645         0.435517   
     60. A(C   4,C   5,H  28)          118.8175         0.358981   
     61. A(C   4,C   5,C   6)          122.1344         0.436909   
     62. A(C   6,C   5,H  28)          119.0481         0.352825   
     63. A(C   5,C   6,C   7)          119.2465         0.418418   
     64. A(C   7,C   6,C  19)          124.0812         0.418574   
     65. A(C   5,C   6,C  19)          116.6720         0.429137   
     66. A(C   8,C   7,H  29)          119.2032         0.364534   
     67. A(C   6,C   7,H  29)          114.0345         0.344374   
     68. A(C   6,C   7,C   8)          126.7602         0.433386   
     69. A(C   7,C   8,H  30)          119.1507         0.364895   
     70. A(C   7,C   8,C   9)          126.5346         0.432560   
     71. A(C   9,C   8,H  30)          114.3106         0.344096   
     72. A(C  10,C   9,C  18)          117.7225         0.429026   
     73. A(C   8,C   9,C  18)          123.5632         0.419053   
     74. A(C   8,C   9,C  10)          118.7141         0.416258   
     75. A(C  11,C  10,H  31)          119.8592         0.360278   
     76. A(C   9,C  10,H  31)          119.3352         0.352228   
     77. A(C   9,C  10,C  11)          120.8053         0.436459   
     78. A(C  12,C  11,H  32)          117.6281         0.354182   
     79. A(C  10,C  11,H  32)          121.2664         0.360231   
     80. A(C  10,C  11,C  12)          121.1053         0.439099   
     81. A(C  11,C  12,N  13)          118.3601         0.411793   
     82. A(N  13,C  12,C  16)          122.3108         0.409006   
     83. A(C  11,C  12,C  16)          119.3290         0.428337   
     84. A(C  12,N  13,O  15)          119.3523         0.441031   
     85. A(C  12,N  13,O  14)          116.9958         0.438705   
     86. A(O  14,N  13,O  15)          123.6514         0.493419   
     87. A(O  17,C  16,C  18)          121.1728         0.437849   
     88. A(C  12,C  16,C  18)          118.6555         0.430694   
     89. A(C  12,C  16,O  17)          120.1707         0.432451   
     90. A(C  16,O  17,H  33)          110.7411         0.373327   
     91. A(C  16,C  18,H  34)          117.7367         0.355645   
     92. A(C   9,C  18,H  34)          119.8816         0.354052   
     93. A(C   9,C  18,C  16)          122.3809         0.433991   
     94. A(C  20,C  19,H  35)          118.4209         0.359524   
     95. A(C   6,C  19,H  35)          119.8493         0.353482   
     96. A(C   6,C  19,C  20)          121.7296         0.437071   
     97. A(C  19,C  20,H  36)          118.3173         0.359872   
     98. A(C   3,C  20,H  36)          120.2227         0.352454   
     99. A(C   3,C  20,C  19)          121.4599         0.435272   
    100. D(C   2,N   1,C   0,H  21)    117.9759         0.018252   
    101. D(C   2,N   1,C   0,H  22)   -120.8522         0.018252   
    102. D(C   3,N   1,C   0,H  23)    177.7181         0.018252   
    103. D(C   3,N   1,C   0,H  22)     58.3809         0.018252   
    104. D(C   2,N   1,C   0,H  23)     -1.5150         0.018252   
    105. D(C   3,N   1,C   0,H  21)    -62.7909         0.018252   
    106. D(H  24,C   2,N   1,C   0)    116.3574         0.018277   
    107. D(H  26,C   2,N   1,C   3)     58.2706         0.018277   
    108. D(H  26,C   2,N   1,C   0)   -122.4958         0.018277   
    109. D(H  25,C   2,N   1,C   3)    177.5424         0.018277   
    110. D(H  24,C   2,N   1,C   3)    -62.8763         0.018277   
    111. D(H  25,C   2,N   1,C   0)     -3.2240         0.018277   
    112. D(C  20,C   3,N   1,C   2)   -178.9306         0.030507   
    113. D(C  20,C   3,N   1,C   0)      1.8480         0.030507   
    114. D(C   4,C   3,N   1,C   0)   -178.1438         0.030507   
    115. D(C   4,C   3,N   1,C   2)      1.0776         0.030507   
    116. D(H  27,C   4,C   3,N   1)      0.1259         0.023907   
    117. D(H  27,C   4,C   3,C  20)   -179.8663         0.023907   
    118. D(C   5,C   4,C   3,N   1)    179.9238         0.023907   
    119. D(C   5,C   4,C   3,C  20)     -0.0684         0.023907   
    120. D(H  28,C   5,C   4,H  27)     -0.1330         0.030828   
    121. D(H  28,C   5,C   4,C   3)   -179.9348         0.030828   
    122. D(C   6,C   5,C   4,H  27)    179.8647         0.030828   
    123. D(C   6,C   5,C   4,C   3)      0.0630         0.030828   
    124. D(C  19,C   6,C   5,H  28)    179.9973         0.024815   
    125. D(C  19,C   6,C   5,C   4)     -0.0004         0.024815   
    126. D(C   7,C   6,C   5,H  28)      0.1770         0.024815   
    127. D(C   7,C   6,C   5,C   4)   -179.8207         0.024815   
    128. D(H  29,C   7,C   6,C   5)      1.2309         0.018580   
    129. D(C   8,C   7,C   6,C  19)      1.9536         0.018580   
    130. D(C   8,C   7,C   6,C   5)   -178.2404         0.018580   
    131. D(H  29,C   7,C   6,C  19)   -178.5751         0.018580   
    132. D(H  30,C   8,C   7,H  29)   -178.7782         0.037825   
    133. D(C   9,C   8,C   7,H  29)      0.4501         0.037825   
    134. D(C   9,C   8,C   7,C   6)    179.8969         0.037825   
    135. D(H  30,C   8,C   7,C   6)      0.6686         0.037825   
    136. D(C  18,C   9,C   8,H  30)   -176.3012         0.018182   
    137. D(C  18,C   9,C   8,C   7)      4.4383         0.018182   
    138. D(C  10,C   9,C   8,H  30)      3.5588         0.018182   
    139. D(C  10,C   9,C   8,C   7)   -175.7016         0.018182   
    140. D(H  31,C  10,C   9,C  18)    179.7755         0.023870   
    141. D(H  31,C  10,C   9,C   8)     -0.0928         0.023870   
    142. D(C  11,C  10,C   9,C  18)     -0.4046         0.023870   
    143. D(C  11,C  10,C   9,C   8)    179.7271         0.023870   
    144. D(H  32,C  11,C  10,H  31)      0.0105         0.031684   
    145. D(H  32,C  11,C  10,C   9)   -179.8086         0.031684   
    146. D(C  12,C  11,C  10,H  31)   -179.8028         0.031684   
    147. D(C  12,C  11,C  10,C   9)      0.3782         0.031684   
    148. D(C  16,C  12,C  11,H  32)   -179.8723         0.025613   
    149. D(C  16,C  12,C  11,C  10)     -0.0524         0.025613   
    150. D(N  13,C  12,C  11,H  32)      0.0381         0.025613   
    151. D(N  13,C  12,C  11,C  10)    179.8579         0.025613   
    152. D(O  15,N  13,C  12,C  16)      4.2622         0.018760   
    153. D(O  15,N  13,C  12,C  11)   -175.6452         0.018760   
    154. D(O  14,N  13,C  12,C  16)   -175.9911         0.018760   
    155. D(O  14,N  13,C  12,C  11)      4.1014         0.018760   
    156. D(C  18,C  16,C  12,N  13)    179.8628         0.023628   
    157. D(C  18,C  16,C  12,C  11)     -0.2306         0.023628   
    158. D(O  17,C  16,C  12,N  13)      0.2240         0.023628   
    159. D(O  17,C  16,C  12,C  11)   -179.8694         0.023628   
    160. D(H  33,O  17,C  16,C  18)      0.0209         0.032941   
    161. D(H  33,O  17,C  16,C  12)    179.6504         0.032941   
    162. D(C  16,C  18,C   9,C   8)    179.9773         0.025838   
    163. D(H  34,C  18,C  16,O  17)     -0.4910         0.027330   
    164. D(H  34,C  18,C  16,C  12)    179.8740         0.027330   
    165. D(C   9,C  18,C  16,O  17)    179.8322         0.027330   
    166. D(C   9,C  18,C  16,C  12)      0.1972         0.027330   
    167. D(H  34,C  18,C   9,C  10)   -179.5542         0.025838   
    168. D(H  34,C  18,C   9,C   8)      0.3072         0.025838   
    169. D(C  16,C  18,C   9,C  10)      0.1160         0.025838   
    170. D(H  35,C  19,C   6,C   7)     -0.0949         0.024925   
    171. D(H  35,C  19,C   6,C   5)   -179.9055         0.024925   
    172. D(C  20,C  19,C   6,C   7)    179.7557         0.024925   
    173. D(C  20,C  19,C   6,C   5)     -0.0549         0.024925   
    174. D(H  36,C  20,C  19,H  35)     -0.2041         0.030825   
    175. D(H  36,C  20,C  19,C   6)    179.9432         0.030825   
    176. D(C   3,C  20,C  19,H  35)    179.9012         0.030825   
    177. D(C   3,C  20,C  19,C   6)      0.0486         0.030825   
    178. D(H  36,C  20,C   3,C   4)   -179.8789         0.023753   
    179. D(H  36,C  20,C   3,N   1)      0.1290         0.023753   
    180. D(C  19,C  20,C   3,C   4)      0.0138         0.023753   
    181. D(C  19,C  20,C   3,N   1)   -179.9784         0.023753   
    -----------------------------------------------------------------

Number of atoms                         .... 37
Number of degrees of freedom            .... 181

         *************************************************************
         *                GEOMETRY OPTIMIZATION CYCLE   1            *
         *************************************************************
---------------------------------
CARTESIAN COORDINATES (ANGSTROEM)
---------------------------------
  C     -5.619600    1.501900    0.566000
  N     -4.988800    0.691600   -0.446300
  C     -5.798200    0.143300   -1.506000
  C     -3.644400    0.460100   -0.411200
  C     -3.001900   -0.294500   -1.408300
  C     -1.648000   -0.520200   -1.364200
  C     -0.841900   -0.017800   -0.334300
  C      0.571200   -0.288900   -0.351700
  C      1.476300    0.088800    0.572500
  C      2.891300   -0.187400    0.551200
  C      3.673400    0.208100    1.650700
  C      5.020700   -0.037800    1.677900
  C      5.658700   -0.680100    0.614000
  N      7.065800   -0.904000    0.702600
  O      7.613000   -0.584800    1.745900
  O      7.651400   -1.387600   -0.242700
  C      4.902000   -1.081200   -0.502800
  O      5.497400   -1.702100   -1.533500
  C      3.536700   -0.827800   -0.507900
  C     -1.484900    0.732400    0.658200
  C     -2.837800    0.965800    0.624400
  H     -5.520600    1.047100    1.556600
  H     -5.183500    2.504800    0.596800
  H     -6.679100    1.601900    0.344200
  H     -5.502000    0.543900   -2.480800
  H     -6.841100    0.399100   -1.337600
  H     -5.717900   -0.947200   -1.537600
  H     -3.565300   -0.706900   -2.228900
  H     -1.191100   -1.104900   -2.150900
  H      0.899200   -0.864800   -1.207800
  H      1.144700    0.646700    1.437100
  H      3.201700    0.708600    2.482300
  H      5.627600    0.259800    2.519400
  H      4.853500   -1.920100   -2.219700
  H      2.970200   -1.140300   -1.374000
  H     -0.912800    1.145100    1.474700
  H     -3.275700    1.549600    1.417100

----------------------------
CARTESIAN COORDINATES (A.U.)
----------------------------
  NO LB      ZA    FRAG     MASS         X           Y           Z
   0 C     6.0000    0    12.011  -10.619505    2.838180    1.069585
   1 N     7.0000    0    14.007   -9.427466    1.306935   -0.843385
   2 C     6.0000    0    12.011  -10.957010    0.270798   -2.845928
   3 C     6.0000    0    12.011   -6.886918    0.869463   -0.777055
   4 C     6.0000    0    12.011   -5.672769   -0.556524   -2.661301
   5 C     6.0000    0    12.011   -3.114269   -0.983036   -2.577964
   6 C     6.0000    0    12.011   -1.590960   -0.033637   -0.631735
   7 C     6.0000    0    12.011    1.079412   -0.545942   -0.664617
   8 C     6.0000    0    12.011    2.789803    0.167808    1.081868
   9 C     6.0000    0    12.011    5.463765   -0.354135    1.041617
  10 C     6.0000    0    12.011    6.941720    0.393252    3.119371
  11 C     6.0000    0    12.011    9.487748   -0.071432    3.170771
  12 C     6.0000    0    12.011   10.693393   -1.285203    1.160292
  13 N     7.0000    0    14.007   13.352427   -1.708312    1.327722
  14 O     8.0000    0    15.999   14.386485   -1.105112    3.299273
  15 O     8.0000    0    15.999   14.459051   -2.622184   -0.458637
  16 C     6.0000    0    12.011    9.263438   -2.043172   -0.950154
  17 O     8.0000    0    15.999   10.388580   -3.216503   -2.897895
  18 C     6.0000    0    12.011    6.683394   -1.564315   -0.959792
  19 C     6.0000    0    12.011   -2.806054    1.384035    1.243818
  20 C     6.0000    0    12.011   -5.362665    1.825098    1.179945
  21 H     1.0000    0     1.008  -10.432422    1.978732    2.941548
  22 H     1.0000    0     1.008   -9.795395    4.733386    1.127789
  23 H     1.0000    0     1.008  -12.621670    3.027152    0.650444
  24 H     1.0000    0     1.008  -10.397273    1.027822   -4.688033
  25 H     1.0000    0     1.008  -12.927805    0.754190   -2.527698
  26 H     1.0000    0     1.008  -10.805265   -1.789949   -2.905643
  27 H     1.0000    0     1.008   -6.737441   -1.335847   -4.212011
  28 H     1.0000    0     1.008   -2.250853   -2.087958   -4.064612
  29 H     1.0000    0     1.008    1.699242   -1.634235   -2.282411
  30 H     1.0000    0     1.008    2.163170    1.222086    2.715725
  31 H     1.0000    0     1.008    6.050336    1.339060    4.690867
  32 H     1.0000    0     1.008   10.634623    0.490951    4.760976
  33 H     1.0000    0     1.008    9.171786   -3.628463   -4.194625
  34 H     1.0000    0     1.008    5.612865   -2.154855   -2.596484
  35 H     1.0000    0     1.008   -1.724942    2.163925    2.786779
  36 H     1.0000    0     1.008   -6.190176    2.928320    2.677931

--------------------------------
INTERNAL COORDINATES (ANGSTROEM)
--------------------------------
 C      0   0   0     0.000000000000     0.00000000     0.00000000
 N      1   0   0     1.441959090959     0.00000000     0.00000000
 C      2   1   0     1.441778533617   118.95400620     0.00000000
 C      2   1   3     1.364637541620   120.54701328   179.23318941
 C      4   2   1     1.405857681275   121.53722038   181.85623782
 C      5   4   2     1.373291851720   121.06449182   179.92378842
 C      6   5   4     1.401034253685   122.13443776     0.06295715
 C      7   6   5     1.438975183942   119.24649634   180.17934027
 C      8   7   6     1.347593759261   126.76024220   181.75964266
 C      9   8   7     1.441861688929   126.53462022   179.89689619
 C     10   9   8     1.406058643869   118.71410489   184.29840476
 C     11  10   9     1.369826244456   120.80529998   179.72713777
 C     12  11  10     1.396952576146   121.10531012     0.37817715
 N     13  12  11     1.427554405268   118.36006743   179.85790405
 O     14  13  12     1.220570100404   116.99578743     4.10138238
 O     14  13  12     1.212595732303   119.35233361   184.35475997
 C     13  12  11     1.407379955804   119.32902685   359.94758874
 O     17  13  12     1.342520189792   120.17072727   180.13061629
 C     17  13  12     1.388625817130   118.65545826   359.76938981
 C      7   6   5     1.400466097412   116.67204613     0.00000000
 C     20   7   6     1.373301281584   121.72960203   359.94511274
 H      1   2   3     1.094500982183   111.24227729   117.97591680
 H      1   2   3     1.094047649785   111.13176799   239.14775811
 H      1   2   3     1.087076579639   109.56149285   358.48495754
 H      3   2   1     1.094737338360   111.31004840   116.35735271
 H      3   2   1     1.086937261299   109.58916593   356.77604296
 H      3   2   1     1.093908999872   111.04686031   237.50420929
 H      5   4   2     1.077440337095   120.44076775     0.12585401
 H      6   5   4     1.081447451335   118.81748578   180.06524944
 H      8   7   6     1.082659697227   114.03446915     1.23093838
 H      9   8   7     1.081084700659   119.15073707     0.66864778
 H     11  10   9     1.079147672935   119.33522652   359.90719279
 H     12  11  10     1.079358893047   121.26638116   180.19144992
 H     18  17  13     0.965920105392   110.74109242   179.65039013
 H     19  17  13     1.081067856335   117.73672340   179.87403629
 H     20   7   6     1.079023609566   119.84930954   180.09448187
 H     21  20   7     1.077474890659   118.31730052   179.94321880

---------------------------
INTERNAL COORDINATES (A.U.)
---------------------------
 C      0   0   0     0.000000000000     0.00000000     0.00000000
 N      1   0   0     2.724907778231     0.00000000     0.00000000
 C      2   1   0     2.724566574303   118.95400620     0.00000000
 C      2   1   3     2.578791225730   120.54701328   179.23318941
 C      4   2   1     2.656686000879   121.53722038   181.85623782
 C      5   4   2     2.595145501696   121.06449182   179.92378842
 C      6   5   4     2.647571043708   122.13443776     0.06295715
 C      7   6   5     2.719269011159   119.24649634   180.17934027
 C      8   7   6     2.546583144785   126.76024220   181.75964266
 C      9   8   7     2.724723715068   126.53462022   179.89689619
 C     10   9   8     2.657065765146   118.71410489   184.29840476
 C     11  10   9     2.588596453079   120.80529998   179.72713777
 C     12  11  10     2.639857790991   121.10531012     0.37817715
 N     13  12  11     2.697686867229   118.36006743   179.85790405
 O     14  13  12     2.306543217016   116.99578743     4.10138238
 O     14  13  12     2.291473845215   119.35233361   184.35475997
 C     13  12  11     2.659562682841   119.32902685   359.94758874
 O     17  13  12     2.536995487967   120.17072727   180.13061629
 C     17  13  12     2.624122496868   118.65545826   359.76938981
 C      7   6   5     2.646497383950   116.67204613     0.00000000
 C     20   7   6     2.595163321557   121.72960203   359.94511274
 H      1   2   3     2.068307109634   111.24227729   117.97591680
 H      1   2   3     2.067450435554   111.13176799   239.14775811
 H      1   2   3     2.054277022118   109.56149285   358.48495754
 H      3   2   1     2.068753758079   111.31004840   116.35735271
 H      3   2   1     2.054013748609   109.58916593   356.77604296
 H      3   2   1     2.067188425189   111.04686031   237.50420929
 H      5   4   2     2.036067162750   120.44076775     0.12585401
 H      6   5   4     2.043639511251   118.81748578   180.06524944
 H      8   7   6     2.045930323993   114.03446915     1.23093838
 H      9   8   7     2.042954011819   119.15073707     0.66864778
 H     11  10   9     2.039293559905   119.33522652   359.90719279
 H     12  11  10     2.039692708072   121.26638116   180.19144992
 H     18  17  13     1.825324466439   110.74109242   179.65039013
 H     19  17  13     2.042922180658   117.73672340   179.87403629
 H     20   7   6     2.039059114114   119.84930954   180.09448187
 H     21  20   7     2.036132459522   118.31730052   179.94321880

---------------------
BASIS SET INFORMATION
---------------------
There are 4 groups of distinct atoms

 Group   1 Type C   : 19s6p3d2f contracted to 5s4p3d2f pattern {88111/3111/111/11}
 Group   2 Type N   : 19s6p3d2f contracted to 5s4p3d2f pattern {88111/3111/111/11}
 Group   3 Type O   : 19s6p3d2f contracted to 5s4p3d2f pattern {88111/3111/111/11}
 Group   4 Type H   : 5s2p1d contracted to 3s2p1d pattern {311/11/1}

Atom   0C    basis set group =>   1
Atom   1N    basis set group =>   2
Atom   2C    basis set group =>   1
Atom   3C    basis set group =>   1
Atom   4C    basis set group =>   1
Atom   5C    basis set group =>   1
Atom   6C    basis set group =>   1
Atom   7C    basis set group =>   1
Atom   8C    basis set group =>   1
Atom   9C    basis set group =>   1
Atom  10C    basis set group =>   1
Atom  11C    basis set group =>   1
Atom  12C    basis set group =>   1
Atom  13N    basis set group =>   2
Atom  14O    basis set group =>   3
Atom  15O    basis set group =>   3
Atom  16C    basis set group =>   1
Atom  17O    basis set group =>   3
Atom  18C    basis set group =>   1
Atom  19C    basis set group =>   1
Atom  20C    basis set group =>   1
Atom  21H    basis set group =>   4
Atom  22H    basis set group =>   4
Atom  23H    basis set group =>   4
Atom  24H    basis set group =>   4
Atom  25H    basis set group =>   4
Atom  26H    basis set group =>   4
Atom  27H    basis set group =>   4
Atom  28H    basis set group =>   4
Atom  29H    basis set group =>   4
Atom  30H    basis set group =>   4
Atom  31H    basis set group =>   4
Atom  32H    basis set group =>   4
Atom  33H    basis set group =>   4
Atom  34H    basis set group =>   4
Atom  35H    basis set group =>   4
Atom  36H    basis set group =>   4
---------------------------------
AUXILIARY/J BASIS SET INFORMATION
---------------------------------
There are 4 groups of distinct atoms

 Group   1 Type C   : 10s7p5d2f1g contracted to 10s7p5d2f1g pattern {1111111111/1111111/11111/11/1}
 Group   2 Type N   : 10s7p5d2f1g contracted to 10s7p5d2f1g pattern {1111111111/1111111/11111/11/1}
 Group   3 Type O   : 10s7p5d2f1g contracted to 10s7p5d2f1g pattern {1111111111/1111111/11111/11/1}
 Group   4 Type H   : 4s3p2d1f contracted to 4s3p2d1f pattern {1111/111/11/1}

Atom   0C    basis set group =>   1
Atom   1N    basis set group =>   2
Atom   2C    basis set group =>   1
Atom   3C    basis set group =>   1
Atom   4C    basis set group =>   1
Atom   5C    basis set group =>   1
Atom   6C    basis set group =>   1
Atom   7C    basis set group =>   1
Atom   8C    basis set group =>   1
Atom   9C    basis set group =>   1
Atom  10C    basis set group =>   1
Atom  11C    basis set group =>   1
Atom  12C    basis set group =>   1
Atom  13N    basis set group =>   2
Atom  14O    basis set group =>   3
Atom  15O    basis set group =>   3
Atom  16C    basis set group =>   1
Atom  17O    basis set group =>   3
Atom  18C    basis set group =>   1
Atom  19C    basis set group =>   1
Atom  20C    basis set group =>   1
Atom  21H    basis set group =>   4
Atom  22H    basis set group =>   4
Atom  23H    basis set group =>   4
Atom  24H    basis set group =>   4
Atom  25H    basis set group =>   4
Atom  26H    basis set group =>   4
Atom  27H    basis set group =>   4
Atom  28H    basis set group =>   4
Atom  29H    basis set group =>   4
Atom  30H    basis set group =>   4
Atom  31H    basis set group =>   4
Atom  32H    basis set group =>   4
Atom  33H    basis set group =>   4
Atom  34H    basis set group =>   4
Atom  35H    basis set group =>   4
Atom  36H    basis set group =>   4
---------------------------------
AUXILIARY/C BASIS SET INFORMATION
---------------------------------
There are 4 groups of distinct atoms

 Group   1 Type C   : 9s7p6d4f2g contracted to 9s7p6d4f2g pattern {111111111/1111111/111111/1111/11}
 Group   2 Type N   : 9s7p6d4f2g contracted to 9s7p6d4f2g pattern {111111111/1111111/111111/1111/11}
 Group   3 Type O   : 9s7p6d4f2g contracted to 9s7p6d4f2g pattern {111111111/1111111/111111/1111/11}
 Group   4 Type H   : 4s3p2d1f contracted to 4s3p2d1f pattern {1111/111/11/1}

Atom   0C    basis set group =>   1
Atom   1N    basis set group =>   2
Atom   2C    basis set group =>   1
Atom   3C    basis set group =>   1
Atom   4C    basis set group =>   1
Atom   5C    basis set group =>   1
Atom   6C    basis set group =>   1
Atom   7C    basis set group =>   1
Atom   8C    basis set group =>   1
Atom   9C    basis set group =>   1
Atom  10C    basis set group =>   1
Atom  11C    basis set group =>   1
Atom  12C    basis set group =>   1
Atom  13N    basis set group =>   2
Atom  14O    basis set group =>   3
Atom  15O    basis set group =>   3
Atom  16C    basis set group =>   1
Atom  17O    basis set group =>   3
Atom  18C    basis set group =>   1
Atom  19C    basis set group =>   1
Atom  20C    basis set group =>   1
Atom  21H    basis set group =>   4
Atom  22H    basis set group =>   4
Atom  23H    basis set group =>   4
Atom  24H    basis set group =>   4
Atom  25H    basis set group =>   4
Atom  26H    basis set group =>   4
Atom  27H    basis set group =>   4
Atom  28H    basis set group =>   4
Atom  29H    basis set group =>   4
Atom  30H    basis set group =>   4
Atom  31H    basis set group =>   4
Atom  32H    basis set group =>   4
Atom  33H    basis set group =>   4
Atom  34H    basis set group =>   4
Atom  35H    basis set group =>   4
Atom  36H    basis set group =>   4


           ************************************************************
           *        Program running with 4 parallel MPI-processes     *
           *              working on a common directory               *
           ************************************************************
------------------------------------------------------------------------------
                           ORCA GTO INTEGRAL CALCULATION
                           -- RI-GTO INTEGRALS CHOSEN --
------------------------------------------------------------------------------
------------------------------------------------------------------------------
                   ___                                                        
                  /   \      - P O W E R E D   B Y -                         
                 /     \                                                     
                 |  |  |   _    _      __       _____    __    __             
                 |  |  |  | |  | |    /  \     |  _  \  |  |  /  |          
                  \  \/   | |  | |   /    \    | | | |  |  | /  /          
                 / \  \   | |__| |  /  /\  \   | |_| |  |  |/  /          
                |  |  |   |  __  | /  /__\  \  |    /   |      \           
                |  |  |   | |  | | |   __   |  |    \   |  |\   \          
                \     /   | |  | | |  |  |  |  | |\  \  |  | \   \       
                 \___/    |_|  |_| |__|  |__|  |_| \__\ |__|  \__/        
                                                                              
                      - O R C A' S   B I G   F R I E N D -                    
                                      &                                       
                       - I N T E G R A L  F E E D E R -                       
                                                                              
 v1 FN, 2020, v2 2021                                                         
------------------------------------------------------------------------------


Reading SHARK input file optpbed3-b2plyp-test-599.SHARKINP.tmp ... ok
----------------------
SHARK INTEGRAL PACKAGE
----------------------

Number of atoms                             ...     37
Number of basis functions                   ...   1316
Number of shells                            ...    516
Maximum angular momentum                    ...      3
Integral batch strategy                     ... SHARK/LIBINT Hybrid
RI-J (if used) integral strategy            ... SPLIT-RIJ (Revised 2003 algorithm where possible)
Printlevel                                  ...      1
Contraction scheme used                     ... PARTIAL GENERAL contraction
Coulomb Range Separation                    ... NOT USED
Exchange Range Separation                   ... NOT USED
Finite Nucleus Model                        ... NOT USED
Auxiliary Coulomb fitting basis             ... AVAILABLE
   # of basis functions in Aux-J            ...   2139
   # of shells in Aux-J                     ...    685
   Maximum angular momentum in Aux-J        ...      4
Auxiliary J/K fitting basis                 ... NOT available
Auxiliary Correlation fitting basis         ... AVAILABLE
   # of basis functions in Aux-C            ...   2706
   # of shells in Aux-C                     ...    748
   Maximum angular momentum in Aux-C        ...      4
Auxiliary 'external' fitting basis          ... NOT available
Integral threshold                          ...     2.500000e-11
Primitive cut-off                           ...     2.500000e-12
Primitive pair pre-selection threshold      ...     2.500000e-12

Calculating pre-screening integrals         ... done (  0.3 sec) Dimension = 516
Calculating pre-screening integrals (ORCA)  ... done (  0.7 sec) Dimension = 390
Organizing shell pair data                  ... done (  1.4 sec)
Shell pair information
Total number of shell pairs                 ...    133386
Shell pairs after pre-screening             ...     76035
Total number of primitive shell pairs       ...    174456
Primitive shell pairs kept                  ...     89516
          la=0 lb=0:  17497 shell pairs
          la=1 lb=0:  19841 shell pairs
          la=1 lb=1:   4958 shell pairs
          la=2 lb=0:  12561 shell pairs
          la=2 lb=1:   6340 shell pairs
          la=2 lb=2:   2102 shell pairs
          la=3 lb=0:   6622 shell pairs
          la=3 lb=1:   3355 shell pairs
          la=3 lb=2:   2167 shell pairs
          la=3 lb=3:    592 shell pairs

Calculating one electron integrals          ... done (  0.3 sec)
Calculating RI/J V-Matrix + Cholesky decomp.... done (  0.4 sec)
Calculating RI/C V-Matrix + Cholesky decomp.... done (  0.6 sec)
Calculating Nuclear repulsion               ... done (  0.0 sec) ENN=   1480.219944694970 Eh

SHARK setup successfully completed in   5.0 seconds

Maximum memory used throughout the entire GTOINT-calculation: 126.4 MB


           ************************************************************
           *        Program running with 4 parallel MPI-processes     *
           *              working on a common directory               *
           ************************************************************
-------------------------------------------------------------------------------
                                 ORCA SCF
-------------------------------------------------------------------------------

------------
SCF SETTINGS
------------
Hamiltonian:
 Density Functional     Method          .... DFT(GTOs)
 Exchange Functional    Exchange        .... PBE
   PBE kappa parameter   XKappa         ....  0.804000
   PBE mue parameter    XMuePBE         ....  0.219520
 Correlation Functional Correlation     .... PBE
   PBE beta parameter  CBetaPBE         ....  0.066725
 LDA part of GGA corr.  LDAOpt          .... PW91-LDA
 Gradients option       PostSCFGGA      .... off
 Hybrid DFT is turned on
   Fraction HF Exchange ScalHFX         ....  0.250000
   Scaling of DF-GGA-X  ScalDFX         ....  0.750000
   Scaling of DF-GGA-C  ScalDFC         ....  1.000000
   Scaling of DF-LDA-C  ScalLDAC        ....  1.000000
   Perturbative correction              ....  0.000000
   Density functional embedding theory  .... OFF
   NL short-range parameter             ....  6.900000
 RI-approximation to the Coulomb term is turned on
   Number of AuxJ basis functions       .... 2139
   RIJ-COSX (HFX calculated with COS-X)).... on


General Settings:
 Integral files         IntName         .... optpbed3-b2plyp-test-599
 Hartree-Fock type      HFTyp           .... RHF
 Total Charge           Charge          ....    0
 Multiplicity           Mult            ....    1
 Number of Electrons    NEL             ....  150
 Basis Dimension        Dim             .... 1190
 Nuclear Repulsion      ENuc            ....   1480.2199446950 Eh

Convergence Acceleration:
 DIIS                   CNVDIIS         .... on
   Start iteration      DIISMaxIt       ....    12
   Startup error        DIISStart       ....  0.200000
   # of expansion vecs  DIISMaxEq       ....     5
   Bias factor          DIISBfac        ....   1.050
   Max. coefficient     DIISMaxC        ....  10.000
 Trust-Rad. Augm. Hess. CNVTRAH         .... auto
   Auto Start mean grad. ratio tolernc. ....  1.125000
   Auto Start start iteration           ....    20
   Auto Start num. interpolation iter.  ....    10
   Max. Number of Micro iterations      ....    16
   Max. Number of Macro iterations      .... Maxiter - #DIIS iter
   Number of Davidson start vectors     ....     2
   Converg. threshold I  (grad. norm)   ....   1.000e-05
   Converg. threshold II (energy diff.) ....   1.000e-08
   Grad. Scal. Fac. for Micro threshold ....   0.100
   Minimum threshold for Micro iter.    ....   0.010
   NR start threshold (gradient norm)   ....   0.001
   Initial trust radius                 ....   0.400
   Minimum AH scaling param. (alpha)    ....   1.000
   Maximum AH scaling param. (alpha)    .... 1000.000
   Orbital update algorithm             .... Taylor
   White noise on init. David. guess    .... on
   Maximum white noise                  ....   0.010
   Quad. conv. algorithm                .... NR
 SOSCF                  CNVSOSCF        .... on
   Start iteration      SOSCFMaxIt      ....   150
   Startup grad/error   SOSCFStart      ....  0.003300
 Level Shifting         CNVShift        .... on
   Level shift para.    LevelShift      ....    0.2500
   Turn off err/grad.   ShiftErr        ....    0.0010
 Zerner damping         CNVZerner       .... off
 Static damping         CNVDamp         .... on
   Fraction old density DampFac         ....    0.7000
   Max. Damping (<1)    DampMax         ....    0.9800
   Min. Damping (>=0)   DampMin         ....    0.0000
   Turn off err/grad.   DampErr         ....    0.1000
 Fernandez-Rico         CNVRico         .... off

SCF Procedure:
 Maximum # iterations   MaxIter         ....   125
 SCF integral mode      SCFMode         .... Direct
   Integral package                     .... SHARK and LIBINT hybrid scheme
 Reset frequency        DirectResetFreq ....    20
 Integral Threshold     Thresh          ....  2.500e-11 Eh
 Primitive CutOff       TCut            ....  2.500e-12 Eh

Convergence Tolerance:
 Convergence Check Mode ConvCheckMode   .... Total+1el-Energy
 Convergence forced     ConvForced      .... 0
 Energy Change          TolE            ....  1.000e-08 Eh
 1-El. energy change                    ....  1.000e-05 Eh
 Orbital Gradient       TolG            ....  1.000e-05
 Orbital Rotation angle TolX            ....  1.000e-05
 DIIS Error             TolErr          ....  5.000e-07


Diagonalization of the overlap matrix:
Smallest eigenvalue                        ... 2.129e-07
Time for diagonalization                   ...    0.356 sec
Threshold for overlap eigenvalues          ... 1.000e-08
Number of eigenvalues below threshold      ... 0
Time for construction of square roots      ...    0.241 sec
Total time needed                          ...    0.605 sec

Time for model grid setup =    0.877 sec

------------------------------
INITIAL GUESS: MODEL POTENTIAL
------------------------------
Loading Hartree-Fock densities                     ... done
Calculating cut-offs                               ... done
Initializing the effective Hamiltonian             ... done
Setting up the integral package (SHARK)            ... done
Starting the Coulomb interaction                   ... done (   3.0 sec)
Reading the grid                                   ... done
Mapping shells                                     ... done
Starting the XC term evaluation                    ... done (   2.3 sec)
  promolecular density results
     # of electrons  =    149.986733836
     EX              =   -124.216899342
     EC              =     -5.056264464
     EX+EC           =   -129.273163806
Transforming the Hamiltonian                       ... done (   0.2 sec)
Diagonalizing the Hamiltonian                      ... done (   0.3 sec)
Back transforming the eigenvectors                 ... done (   0.1 sec)
Now organizing SCF variables                       ... done
                      ------------------
                      INITIAL GUESS DONE (   6.8 sec)
                      ------------------
-------------------
DFT GRID GENERATION
-------------------

General Integration Accuracy     IntAcc      ... 4.388
Radial Grid Type                 RadialGrid  ... OptM3 with GC (2021)
Angular Grid (max. ang.)         AngularGrid ... 4 (Lebedev-302)
Angular grid pruning method      GridPruning ... 4 (adaptive)
Weight generation scheme         WeightScheme... Becke
Basis function cutoff            BFCut       ... 1.0000e-11
Integration weight cutoff        WCut        ... 1.0000e-14
Angular grids for H and He will be reduced by one unit
Partially contracted basis set               ... off
Rotationally invariant grid construction     ... off

Total number of grid points                  ...   182194
Total number of batches                      ...     2867
Average number of points per batch           ...       63
Average number of grid points per atom       ...     4924
Time for grid setup =    2.908 sec

--------------------
COSX GRID GENERATION
--------------------

GRIDX 1
-------
General Integration Accuracy     IntAcc      ... 3.816
Radial Grid Type                 RadialGrid  ... OptM3 with GC (2021)
Angular Grid (max. ang.)         AngularGrid ... 1 (Lebedev-50)
Angular grid pruning method      GridPruning ... 4 (adaptive)
Weight generation scheme         WeightScheme... Becke
Basis function cutoff            BFCut       ... 1.0000e-11
Integration weight cutoff        WCut        ... 1.0000e-14
Angular grids for H and He will be reduced by one unit
Partially contracted basis set               ... on
Rotationally invariant grid construction     ... off

Total number of grid points                  ...    23248
Total number of batches                      ...      387
Average number of points per batch           ...       60
Average number of grid points per atom       ...      628
UseSFitting                                  ... on

GRIDX 2
-------
General Integration Accuracy     IntAcc      ... 4.020
Radial Grid Type                 RadialGrid  ... OptM3 with GC (2021)
Angular Grid (max. ang.)         AngularGrid ... 2 (Lebedev-110)
Angular grid pruning method      GridPruning ... 4 (adaptive)
Weight generation scheme         WeightScheme... Becke
Basis function cutoff            BFCut       ... 1.0000e-11
Integration weight cutoff        WCut        ... 1.0000e-14
Angular grids for H and He will be reduced by one unit
Partially contracted basis set               ... on
Rotationally invariant grid construction     ... off

Total number of grid points                  ...    54983
Total number of batches                      ...      879
Average number of points per batch           ...       62
Average number of grid points per atom       ...     1486
UseSFitting                                  ... on

GRIDX 3
-------
General Integration Accuracy     IntAcc      ... 4.338
Radial Grid Type                 RadialGrid  ... OptM3 with GC (2021)
Angular Grid (max. ang.)         AngularGrid ... 3 (Lebedev-194)
Angular grid pruning method      GridPruning ... 4 (adaptive)
Weight generation scheme         WeightScheme... Becke
Basis function cutoff            BFCut       ... 1.0000e-11
Integration weight cutoff        WCut        ... 1.0000e-14
Angular grids for H and He will be reduced by one unit
Partially contracted basis set               ... on
Rotationally invariant grid construction     ... off

Total number of grid points                  ...   118550
Total number of batches                      ...     1867
Average number of points per batch           ...       63
Average number of grid points per atom       ...     3204
UseSFitting                                  ... on

Time for X-Grid setup             =    7.383 sec


--------------------
CPCM SOLVATION MODEL
--------------------
CPCM parameters:
  Epsilon                                         ...      32.6130
  Refrac                                          ...       1.3288
  Rsolv                                           ...       1.3000
  Surface type                                    ... GAUSSIAN VDW
  Epsilon function type                           ...         CPCM
Solvent:                                     ... METHANOL
SMD-CDS solvent descriptors:
  Soln                                       ...    1.3288
  Soln25                                     ...    1.3265
  Sola                                       ...    0.4300
  Solb                                       ...    0.4700
  Solg                                       ...   31.7700
  Solc                                       ...    0.0000
  Solh                                       ...    0.0000
Radii:
 Radius for C  used is    3.4960 Bohr (=   1.8500 Ang.)
 Radius for N  used is    3.5716 Bohr (=   1.8900 Ang.)
 Radius for O  used is    2.8724 Bohr (=   1.5200 Ang.)
 Radius for H  used is    2.2677 Bohr (=   1.2000 Ang.)
Calculating surface                               ...        done! (  0.0s)
GEPOL surface points                              ...         2162
GEPOL Volume                                      ...    1892.4718
GEPOL Surface-area                                ...    1100.8471
Calculating surface distance matrix               ...        done! (  0.1s)
Performing Cholesky decomposition & store         ...        done! (  0.3s)
Overall time for CPCM initialization              ...                 0.4s
 re-compute Schwartz prescreening matrix in partically contracted basis (1) ...done (   0.286 sec)
--------------
SCF ITERATIONS
--------------
ITER       Energy         Delta-E        Max-DP      RMS-DP      [F,P]     Damp
               ***  Starting incremental Fock matrix formation  ***
  0   -953.1975387218   0.000000000000 0.15833211  0.00146477  0.2122404 0.7000
  1   -953.4118058946  -0.214267172736 0.12461126  0.00114130  0.0977770 0.7000
                               ***Turning on DIIS***
  2   -953.5037616965  -0.091955801924 0.28591351  0.00236655  0.0381649 0.0000
  3   -953.6479411801  -0.144179483618 0.08596773  0.00059962  0.0449584 0.0000
  4   -953.6761701701  -0.028228990034 0.02398415  0.00020745  0.0161742 0.0000
  5   -953.6778082887  -0.001638118560 0.01107275  0.00009861  0.0060770 0.0000
                      *** Initiating the SOSCF procedure ***
                           *** Shutting down DIIS ***
                      *** Re-Reading the Fockian *** 
                      *** Removing any level shift *** 
ITER      Energy       Delta-E        Grad      Rot      Max-DP    RMS-DP
  6   -953.67798771  -0.0001794173  0.000320  0.000320  0.008801  0.000060
               *** Restarting incremental Fock matrix formation ***
  7   -953.67800375  -0.0000160484  0.000262  0.001658  0.035280  0.000585
  8   -953.67800803  -0.0000042768  0.000149  0.000571  0.011530  0.000192
  9   -953.67800989  -0.0000018565  0.000051  0.000217  0.012367  0.000199
 10   -953.67801024  -0.0000003509  0.000021  0.000074  0.012451  0.000078
 11   -953.67801030  -0.0000000576  0.000025  0.000054  0.008468  0.000064
 12   -953.67801032  -0.0000000205  0.000016  0.000036  0.019608  0.000099
 13   -953.67801028   0.0000000374  0.000012  0.000016  0.009884  0.000073
                  ***Gradient check signals convergence***
              ***Rediagonalizing the Fockian in SOSCF/NRSCF***

               *****************************************************
               *                     SUCCESS                       *
               *           SCF CONVERGED AFTER  14 CYCLES          *
               *****************************************************

Old exchange energy                            =    -31.640520182 Eh
New exchange energy                            =    -31.640480137 Eh
Exchange energy change after final integration =      0.000040045 Eh
Total energy after final integration           =   -953.677970225 Eh
Final COS-X integration done in                =   158.236 sec

SMD CDS free energy correction energy :                 3.05134     Kcal/mol
Total Energy after SMD CDS correction =              -953.673107608 Eh

----------------
TOTAL SCF ENERGY
----------------

Total Energy       :         -953.67310761 Eh          -25950.76457 eV

Components:
Nuclear Repulsion  :         1480.21994469 Eh           40278.83243 eV
Electronic Energy  :        -2433.89305230 Eh          -66229.59700 eV
One Electron Energy:        -4234.97822782 Eh         -115239.61625 eV
Two Electron Energy:         1801.08517552 Eh           49010.01925 eV
Max COSX asymmetry :            0.00005602 Eh               0.00152 eV
CPCM Dielectric    :           -0.04618035 Eh              -1.25663 eV
SMD CDS (Gcds)     :            0.00486262 Eh               0.13232 eV

Virial components:
Potential Energy   :        -1902.09347001 Eh          -51758.59468 eV
Kinetic Energy     :          948.42036240 Eh           25807.83011 eV
Virial Ratio       :            2.00553841


DFT components:
N(Alpha)           :       75.000016889001 electrons
N(Beta)            :       75.000016889001 electrons
N(Total)           :      150.000033778001 electrons
E(X)               :      -94.754101250752 Eh       
E(C)               :       -5.054480151955 Eh       
E(XC)              :      -99.808581402707 Eh       
DFET-embed. en.    :        0.000000000000 Eh       
CPCM Solvation Model Properties:
Surface-charge          :           -0.07259646
Charge-correction       :            0.00028641 Eh               0.00779 eV
Free-energy (cav+disp)  :            0.00486262 Eh               0.13232 eV

---------------
SCF CONVERGENCE
---------------

  Last Energy change         ...    9.0146e-09  Tolerance :   1.0000e-08
  Last MAX-Density change    ...    4.4409e-15  Tolerance :   1.0000e-07
  Last RMS-Density change    ...    1.8168e-17  Tolerance :   5.0000e-09
  Last Orbital Gradient      ...    2.2858e-06  Tolerance :   1.0000e-05
  Last Orbital Rotation      ...    1.3137e-05  Tolerance :   1.0000e-05

             **** THE GBW FILE WAS UPDATED (optpbed3-b2plyp-test-599.gbw) ****
             **** DENSITY optpbed3-b2plyp-test-599.scfp WAS UPDATED ****
             **** ENERGY FILE WAS UPDATED (optpbed3-b2plyp-test-599.en.tmp) ****
             **** THE GBW FILE WAS UPDATED (optpbed3-b2plyp-test-599.gbw) ****
             **** DENSITY optpbed3-b2plyp-test-599.scfp WAS UPDATED ****
----------------
ORBITAL ENERGIES
----------------

  NO   OCC          E(Eh)            E(eV) 
   0   2.0000     -19.254024      -523.9286 
   1   2.0000     -19.243482      -523.6418 
   2   2.0000     -19.240293      -523.5550 
   3   2.0000     -14.629686      -398.0940 
   4   2.0000     -14.412813      -392.1926 
   5   2.0000     -10.319161      -280.7986 
   6   2.0000     -10.282317      -279.7961 
   7   2.0000     -10.272321      -279.5241 
   8   2.0000     -10.258912      -279.1592 
   9   2.0000     -10.246879      -278.8318 
  10   2.0000     -10.241569      -278.6873 
  11   2.0000     -10.241563      -278.6871 
  12   2.0000     -10.237492      -278.5763 
  13   2.0000     -10.233575      -278.4697 
  14   2.0000     -10.231556      -278.4148 
  15   2.0000     -10.228939      -278.3436 
  16   2.0000     -10.228461      -278.3306 
  17   2.0000     -10.228038      -278.3191 
  18   2.0000     -10.224946      -278.2349 
  19   2.0000     -10.221693      -278.1464 
  20   2.0000     -10.219402      -278.0841 
  21   2.0000      -1.278111       -34.7792 
  22   2.0000      -1.114171       -30.3181 
  23   2.0000      -1.094310       -29.7777 
  24   2.0000      -0.985656       -26.8211 
  25   2.0000      -0.913479       -24.8570 
  26   2.0000      -0.886353       -24.1189 
  27   2.0000      -0.854739       -23.2586 
  28   2.0000      -0.813767       -22.1437 
  29   2.0000      -0.781812       -21.2742 
  30   2.0000      -0.778382       -21.1808 
  31   2.0000      -0.768418       -20.9097 
  32   2.0000      -0.740309       -20.1448 
  33   2.0000      -0.722774       -19.6677 
  34   2.0000      -0.681411       -18.5421 
  35   2.0000      -0.666852       -18.1460 
  36   2.0000      -0.631890       -17.1946 
  37   2.0000      -0.625498       -17.0207 
  38   2.0000      -0.601710       -16.3734 
  39   2.0000      -0.590118       -16.0579 
  40   2.0000      -0.577798       -15.7227 
  41   2.0000      -0.567201       -15.4343 
  42   2.0000      -0.564674       -15.3656 
  43   2.0000      -0.549180       -14.9440 
  44   2.0000      -0.540162       -14.6986 
  45   2.0000      -0.513958       -13.9855 
  46   2.0000      -0.503512       -13.7013 
  47   2.0000      -0.481543       -13.1034 
  48   2.0000      -0.480417       -13.0728 
  49   2.0000      -0.477549       -12.9948 
  50   2.0000      -0.461143       -12.5483 
  51   2.0000      -0.454976       -12.3805 
  52   2.0000      -0.448871       -12.2144 
  53   2.0000      -0.437674       -11.9097 
  54   2.0000      -0.432943       -11.7810 
  55   2.0000      -0.428298       -11.6546 
  56   2.0000      -0.412065       -11.2129 
  57   2.0000      -0.407386       -11.0855 
  58   2.0000      -0.404329       -11.0023 
  59   2.0000      -0.400930       -10.9099 
  60   2.0000      -0.388906       -10.5827 
  61   2.0000      -0.383379       -10.4323 
  62   2.0000      -0.381778       -10.3887 
  63   2.0000      -0.371006       -10.0956 
  64   2.0000      -0.365916        -9.9571 
  65   2.0000      -0.342185        -9.3113 
  66   2.0000      -0.339018        -9.2251 
  67   2.0000      -0.336259        -9.1501 
  68   2.0000      -0.334533        -9.1031 
  69   2.0000      -0.315202        -8.5771 
  70   2.0000      -0.306414        -8.3379 
  71   2.0000      -0.272797        -7.4232 
  72   2.0000      -0.260530        -7.0894 
  73   2.0000      -0.253516        -6.8985 
  74   2.0000      -0.195619        -5.3231 
  75   0.0000      -0.095462        -2.5976 
  76   0.0000      -0.040810        -1.1105 
  77   0.0000      -0.009325        -0.2538 
[...]
   (ab|v) reading and digestion   ...   499.83 sec
   Final sigma-completion         ...     0.01 sec
   Done building sigma-vectors             Size of expansion space: 40
   Lowest Energy          :     0.108913089466
   Maximum Energy change  :     0.007500491756 (vector 3)
   Maximum residual norm  :     0.001511119823

                       ****Iteration    8****
              <<< Entering MO-section for Build Sigma(Double) >>>
   Forming the XC and CPCM contribution:
   Time for densities:            0.283
   Time for XC-Integration:      16.558
   Time for LR-CPCM terms:       12.632
   Time for Sigma-Completion:     0.205
   Time for building 10 sigma-vectors
   Data Preparation Phase         ...     0.01 sec
   Transformed RI Coulomb         ...     0.92 sec
   Transformed RI-exchange        ...   540.68 sec
   (ab|v) reading and digestion   ...   498.38 sec
   Final sigma-completion         ...     0.01 sec
   Done building sigma-vectors             Size of expansion space: 50
   Lowest Energy          :     0.108913087693
   Maximum Energy change  :     0.002920929366 (vector 8)
   Maximum residual norm  :     0.000488559493

                       ****Iteration    9****
              <<< Entering MO-section for Build Sigma(Double) >>>
   Forming the XC and CPCM contribution:
   Time for densities:            0.353
   Time for XC-Integration:      20.091
   Time for LR-CPCM terms:       13.396
   Time for Sigma-Completion:     0.304
   Time for building 10 sigma-vectors
   Data Preparation Phase         ...     0.01 sec
   Transformed RI Coulomb         ...     0.89 sec
   Transformed RI-exchange        ...   659.57 sec
   (ab|v) reading and digestion   ...   628.71 sec
   Final sigma-completion         ...     0.01 sec
   Done building sigma-vectors             Size of expansion space: 60
   Lowest Energy          :     0.108913087456
   Maximum Energy change  :     0.000588316772 (vector 8)
   Maximum residual norm  :     0.000109089764

                       ****Iteration   10****
              <<< Entering MO-section for Build Sigma(Double) >>>
   Forming the XC and CPCM contribution:
   Time for densities:            0.342
   Time for XC-Integration:      20.319
   Time for LR-CPCM terms:       13.662
   Time for Sigma-Completion:     0.234
   Time for building 10 sigma-vectors
   Data Preparation Phase         ...     0.01 sec
   Transformed RI Coulomb         ...     1.17 sec
   Transformed RI-exchange        ...   752.95 sec
   (ab|v) reading and digestion   ...   725.36 sec
   Final sigma-completion         ...     0.02 sec
   Done building sigma-vectors             Size of expansion space: 70
   Lowest Energy          :     0.108913087444
   Maximum Energy change  :     0.000242156670 (vector 7)
   Maximum residual norm  :     0.000018619909
   Rebuilding the expansion space

                       ****Iteration   11****
              <<< Entering MO-section for Build Sigma(Double) >>>
   Forming the XC and CPCM contribution:
   Time for densities:            0.566
   Time for XC-Integration:      31.869
   Time for LR-CPCM terms:       19.680
   Time for Sigma-Completion:     0.409
   Time for building 20 sigma-vectors
   Data Preparation Phase         ...     0.02 sec
   Transformed RI Coulomb         ...     1.93 sec
   Transformed RI-exchange        ...  1420.52 sec
   (ab|v) reading and digestion   ...  1369.00 sec
   Final sigma-completion         ...     0.02 sec
   Done building sigma-vectors             Size of expansion space: 20
   Lowest Energy          :     0.108913087438
   Maximum Energy change  :     0.000027213645 (vector 7)
   Maximum residual norm  :     0.000003061005

                       ****Iteration   12****
              <<< Entering MO-section for Build Sigma(Double) >>>
   Forming the XC and CPCM contribution:
   Time for densities:            0.286
   Time for XC-Integration:      17.618
   Time for LR-CPCM terms:       12.457
   Time for Sigma-Completion:     0.223
   Time for building 10 sigma-vectors
   Data Preparation Phase         ...     0.01 sec
   Transformed RI Coulomb         ...     0.96 sec
   Transformed RI-exchange        ...   531.26 sec
   (ab|v) reading and digestion   ...   507.10 sec
   Final sigma-completion         ...     0.01 sec
   Done building sigma-vectors             Size of expansion space: 30
   Lowest Energy          :     0.108913087438
   Maximum Energy change  :     0.000007335010 (vector 7)
   Maximum residual norm  :     0.000000894672

      *** CONVERGENCE OF RESIDUAL NORM REACHED ***

Storing the converged CI vectors               ... optpbed3-b2plyp-test-599_job2.cis1

                 *** DAVIDSON DONE ***

Total time for solving the CIS problem:  9630.149sec

------------------
DOUBLES CORRECTION (Double precision version)
------------------

The (D) correction will be scaled by  0.2700
Doing v(i,a)*T(i,a) terms (RI)                    ... ok
Doing u(i,j,a,b) terms for state   0              ... ok
Doing u(i,j,a,b) terms for state   1              ... ok
Doing u(i,j,a,b) terms for state   2              ... ok
Doing u(i,j,a,b) terms for state   3              ... ok
Doing u(i,j,a,b) terms for state   4              ... ok
Doing u(i,j,a,b) terms for state   5              ... ok
Doing u(i,j,a,b) terms for state   6              ... ok
Doing u(i,j,a,b) terms for state   7              ... ok
Doing u(i,j,a,b) terms for state   8              ... ok
Doing u(i,j,a,b) terms for state   9              ... ok

Contributions to the (D) correction(s) (in eV)

STATE  Final   Init.   Total   v(ext)   v(int)  v(3)    u
       omega   omega     (D)                             
-----------------------------------------------------------------------------
   0   2.404   2.964  -0.560   0.782   1.007  -0.044  -2.305
   1   3.580   4.158  -0.577   0.834   0.926  -0.045  -2.292
   2   3.782   4.380  -0.598   0.895   0.842  -0.043  -2.291
   3   3.780   4.404  -0.624   0.688   0.945  -0.045  -2.212
   4   3.911   4.671  -0.760   0.798   0.914  -0.040  -2.433
   5   4.138   4.709  -0.571   0.580   0.962  -0.051  -2.062
   6   4.471   4.737  -0.266   0.042   0.983  -0.002  -1.289
   7   4.592   5.082  -0.490   0.988   0.784  -0.035  -2.227
   8   4.832   5.102  -0.270   0.033   0.995  -0.001  -1.297
   9   4.933   5.198  -0.265   0.035   0.994  -0.001  -1.293

(D)-timings
 V(i,a)*T(i,a) terms           ...   828.761 sec
 U(i,j,a,b) 3-internal         ...    19.279 sec
 U(i,j,a,b) 3-external         ...   425.826 sec
 U(i,j,a,b) pair terms         ...   439.173 sec
 Total measured time           ...  3591.618 sec

 Time for (ab|v) I/O           ...   110.625 sec


------------------------------------
TD-DFT/TDA EXCITED STATES (SINGLETS)
------------------------------------

the weight of the individual excitations are printed if larger than 1.0e-02

STATE  1:  E=   0.088340 au      2.404 eV    19388.4 cm**-1 <S**2> =   0.000000
    73a ->  75a  :     0.032852 (c=  0.18125133)
    74a ->  75a  :     0.895164 (c= -0.94613113)
    74a ->  76a  :     0.043074 (c=  0.20754197)

STATE  2:  E=   0.131577 au      3.580 eV    28877.8 cm**-1 <S**2> =   0.000000
    72a ->  75a  :     0.638021 (c= -0.79876211)
    73a ->  75a  :     0.274157 (c= -0.52359972)
    74a ->  82a  :     0.010828 (c= -0.10405835)

STATE  3:  E=   0.138973 au      3.782 eV    30501.1 cm**-1 <S**2> =   0.000000
    68a ->  75a  :     0.542564 (c= -0.73658944)
    68a ->  76a  :     0.115348 (c= -0.33962977)
    69a ->  75a  :     0.022643 (c= -0.15047637)
    74a ->  76a  :     0.182821 (c=  0.42757525)
    74a ->  83a  :     0.027308 (c= -0.16525157)

STATE  4:  E=   0.138930 au      3.780 eV    30491.6 cm**-1 <S**2> =   0.000000
    68a ->  75a  :     0.182344 (c= -0.42701743)
    68a ->  76a  :     0.038543 (c= -0.19632460)
    74a ->  75a  :     0.027701 (c= -0.16643701)
    74a ->  76a  :     0.536170 (c= -0.73223624)
    74a ->  82a  :     0.015502 (c= -0.12450806)
    74a ->  83a  :     0.102038 (c=  0.31943454)

STATE  5:  E=   0.143714 au      3.911 eV    31541.5 cm**-1 <S**2> =   0.000000
    70a ->  75a  :     0.053183 (c= -0.23061382)
    72a ->  75a  :     0.232400 (c=  0.48207919)
    73a ->  75a  :     0.516281 (c= -0.71852686)
    74a ->  75a  :     0.045037 (c= -0.21221968)
    74a ->  76a  :     0.014300 (c= -0.11958452)
    74a ->  81a  :     0.012317 (c=  0.11098150)
    74a ->  82a  :     0.025559 (c=  0.15987120)
    74a ->  83a  :     0.025543 (c= -0.15982103)

STATE  6:  E=   0.152070 au      4.138 eV    33375.5 cm**-1 <S**2> =   0.000000
    71a ->  75a  :     0.098732 (c= -0.31421589)
    71a ->  76a  :     0.058766 (c=  0.24241625)
    72a ->  75a  :     0.018349 (c=  0.13545708)
    73a ->  75a  :     0.058312 (c= -0.24147839)
    74a ->  76a  :     0.135407 (c=  0.36797715)
    74a ->  77a  :     0.010042 (c=  0.10021037)
    74a ->  81a  :     0.052272 (c= -0.22863086)
    74a ->  82a  :     0.116697 (c= -0.34160964)
    74a ->  83a  :     0.337741 (c=  0.58115466)

STATE  7:  E=   0.164301 au      4.471 eV    36059.8 cm**-1 <S**2> =   0.000000
    73a ->  77a  :     0.014363 (c= -0.11984485)
    74a ->  77a  :     0.752730 (c= -0.86760036)
    74a ->  78a  :     0.041792 (c= -0.20443096)
    74a ->  80a  :     0.057151 (c= -0.23906306)
    74a ->  81a  :     0.010387 (c= -0.10191659)
    74a ->  86a  :     0.037801 (c=  0.19442524)
    74a ->  87a  :     0.020854 (c= -0.14441007)
    74a ->  88a  :     0.014557 (c= -0.12065423)

STATE  8:  E=   0.168748 au      4.592 eV    37035.8 cm**-1 <S**2> =   0.000000
    57a ->  75a  :     0.012178 (c=  0.11035555)
    64a ->  75a  :     0.011049 (c=  0.10511419)
    65a ->  75a  :     0.745016 (c=  0.86314296)
    65a ->  76a  :     0.152340 (c=  0.39030752)

STATE  9:  E=   0.177560 au      4.832 eV    38969.9 cm**-1 <S**2> =   0.000000
    73a ->  77a  :     0.012503 (c= -0.11181656)
    73a ->  78a  :     0.011053 (c= -0.10513364)
    74a ->  77a  :     0.070618 (c= -0.26574100)
    74a ->  78a  :     0.689938 (c=  0.83062486)
    74a ->  80a  :     0.104207 (c=  0.32281154)
    74a ->  86a  :     0.010025 (c=  0.10012258)
    74a ->  89a  :     0.025439 (c= -0.15949490)

STATE 10:  E=   0.181274 au      4.933 eV    39785.1 cm**-1 <S**2> =   0.000000
    74a ->  79a  :     0.877420 (c=  0.93670708)
    74a ->  81a  :     0.027809 (c=  0.16675980)
    74a ->  85a  :     0.030798 (c=  0.17549406)


-----------------------------
TD-DFT/TDA-EXCITATION SPECTRA
-----------------------------

Center of mass = (  2.4580, -0.3708,  0.0388)
Calculating the Dipole integrals                  ... done
Transforming integrals                            ... done
Calculating the Linear Momentum integrals         ... done
Transforming integrals                            ... done
Calculating angular momentum integrals            ... done
Transforming integrals                            ... done

-----------------------------------------------------------------------------
         ABSORPTION SPECTRUM VIA TRANSITION ELECTRIC DIPOLE MOMENTS
-----------------------------------------------------------------------------
State   Energy    Wavelength  fosc         T2        TX        TY        TZ  
        (cm-1)      (nm)                 (au**2)    (au)      (au)      (au) 
-----------------------------------------------------------------------------
   1   19388.4    515.8   1.377292476  23.38621   4.77190  -0.58884   0.51811
   2   28877.8    346.3   0.075867892   0.86491  -0.60658  -0.25623  -0.65674
   3   30501.1    327.9   0.013385437   0.14448   0.34514  -0.12579  -0.09764
   4   30491.6    328.0   0.049346752   0.53279  -0.65131   0.25692   0.20634
   5   31541.5    317.0   0.119476297   1.24702  -1.09593   0.08799  -0.19547
   6   33375.5    299.6   0.071369770   0.70398   0.58848   0.15723   0.57702
   7   36059.8    277.3   0.022665363   0.20693   0.15587   0.39528  -0.16244
   8   37035.8    270.0   0.000351498   0.00312   0.00569   0.05315  -0.01633
   9   38969.9    256.6   0.008763218   0.07403   0.03522   0.23152  -0.13852
  10   39785.1    251.4   0.000266540   0.00221  -0.01249   0.03568  -0.02787

-----------------------------------------------------------------------------
         ABSORPTION SPECTRUM VIA TRANSITION VELOCITY DIPOLE MOMENTS
-----------------------------------------------------------------------------
State   Energy    Wavelength   fosc        P2         PX        PY        PZ  
        (cm-1)      (nm)                 (au**2)     (au)      (au)      (au) 
-----------------------------------------------------------------------------
   1   19388.4    515.8   1.053141843   0.13955  -0.36879   0.04938  -0.03331
   2   28877.8    346.3   0.009239553   0.00182   0.04211  -0.00536   0.00462
   3   30501.1    327.9   0.020358012   0.00424  -0.06498   0.00272  -0.00367
   4   30491.6    328.0   0.068173931   0.01421   0.11687  -0.01788   0.01511
   5   31541.5    317.0   0.112594091   0.02427   0.15397  -0.01993   0.01296
   6   33375.5    299.6   0.050582200   0.01154  -0.10438   0.02364  -0.00916
   7   36059.8    277.3   0.016365462   0.00403  -0.02418  -0.04996   0.03087
   8   37035.8    270.0   0.002756227   0.00070  -0.00347  -0.02418   0.01005
   9   38969.9    256.6   0.007932260   0.00211  -0.00612  -0.03886   0.02378
  10   39785.1    251.4   0.000182457   0.00005   0.00106  -0.00622   0.00312

-------------------------------------------------------------------
                             CD SPECTRUM
-------------------------------------------------------------------
State  Energy     Wavelength     R         MX        MY        MZ   
       (cm-1)       (nm)     (1e40*cgs)   (au)      (au)      (au)  
-------------------------------------------------------------------
   1   19388.4    515.8     -3.31852   0.01212   0.07878  -0.03568
   2   28877.8    346.3     -1.45363  -0.04199  -0.25212   0.14184
   3   30501.1    327.9    -48.43789  -0.24694   0.11049   0.03703
   4   30491.6    328.0     51.24220  -0.15147  -0.01543   0.06784
   5   31541.5    317.0    -11.73940   0.03155   0.01428  -0.04309
   6   33375.5    299.6     20.72351  -0.01627  -0.15961   0.13626
   7   36059.8    277.3    -19.34830  -0.02419  -0.23642  -0.34588
   8   37035.8    270.0      1.97007   0.02035   0.25830   0.59191
   9   38969.9    256.6     -1.39721   0.02159  -0.09827  -0.13737
  10   39785.1    251.4      0.76362  -0.05270   0.00815  -0.02407

-------------------------------------------------------------------
         CD SPECTRUM VIA TRANSITION VELOCITY DIPOLE MOMENTS        
-------------------------------------------------------------------
State  Energy     Wavelength     R         MX        MY        MZ   
       (cm-1)       (nm)     (1e40*cgs)   (au)      (au)      (au)  
-------------------------------------------------------------------
   1   19388.4    515.8      3.25247   0.01212   0.07878  -0.03568
   2   28877.8    346.3      0.84884  -0.04199  -0.25212   0.14184
   3   30501.1    327.9     54.99622  -0.24694   0.11049   0.03703
   4   30491.6    328.0    -55.66062  -0.15147  -0.01543   0.06784
   5   31541.5    317.0     13.17233   0.03155   0.01428  -0.04309
   6   33375.5    299.6    -10.30369  -0.01627  -0.15961   0.13626
   7   36059.8    277.3      4.93679  -0.02419  -0.23642  -0.34588
   8   37035.8    270.0     -1.03564   0.02035   0.25830   0.59191
   9   38969.9    256.6      1.11652   0.02159  -0.09827  -0.13737
  10   39785.1    251.4     -0.47219  -0.05270   0.00815  -0.02407

Total run time:    13230.227 sec

           *** ORCA-CIS/TD-DFT FINISHED WITHOUT ERROR ***

Maximum memory used throughout the entire CIS-calculation: 1675.4 MB

-----------------------
CIS/TD-DFT TOTAL ENERGY
-----------------------

    E(SCF)  =   -952.789555342 Eh
    DE(CIS) =      0.088340041 Eh (Root  1)
    ----------------------------- ---------
    E(tot)  =   -952.701215301 Eh



-------------------------------------------------------------------------------
                          DFT DISPERSION CORRECTION                            
                                                                               
                              DFTD3 V3.1  Rev 1                                
                          USING Becke-Johnson damping                          
-------------------------------------------------------------------------------
The B2PLYP functional is recognized
Active option DFTDOPT                   ...         4   

molecular C6(AA) [au] = 15556.864814 


            DFT-D V3
 parameters
 s6 scaling factor         :     0.6400 
 a1 scaling factor         :     0.3065 
 s8 scaling factor         :     0.9147 
 a2 scaling factor         :     5.0570 
 ad hoc parameters k1-k3   :    16.0000     1.3333    -4.0000 

 Edisp/kcal,au: -22.194348333733  -0.035368941639 
 E6   /kcal   : -12.548387819 
 E8   /kcal   :  -9.645960514 
 % E8         :  43.461336956 

-------------------------   ----------------
Dispersion correction           -0.035368942
-------------------------   ----------------


-------------------------   --------------------
FINAL SINGLE POINT ENERGY      -952.736584242594
-------------------------   --------------------


                            ***************************************
                            *     ORCA property calculations      *
                            ***************************************


  WARNING: The energy has been calculated at the MP2 level but the densities
           used in the property calculations are still SCF densities
           MP2 response densities have not been calculated 
           use %mp2 Density relaxed end
           or  %mp2 Density unrelaxed end

                                    ---------------------
                                    Active property flags
                                    ---------------------
   (+) Dipole Moment


------------------------------------------------------------------------------
                       ORCA ELECTRIC PROPERTIES CALCULATION
------------------------------------------------------------------------------

Dipole Moment Calculation                       ... on
Quadrupole Moment Calculation                   ... off
Polarizability Calculation                      ... off
GBWName                                         ... optpbed3-b2plyp-test-599_job2.gbw
Electron density                                ... optpbed3-b2plyp-test-599_job2.scfp
The origin for moment calculation is the CENTER OF MASS  = ( 2.458012, -0.370754  0.038791)

-------------
DIPOLE MOMENT
-------------
                                X             Y             Z
Electronic contribution:     36.59486      -5.63518       1.89904
Nuclear contribution   :    -43.40187       6.35894      -2.80330
                        -----------------------------------------
Total Dipole Moment    :     -6.80701       0.72376      -0.90426
                        -----------------------------------------
Magnitude (a.u.)       :      6.90484
Magnitude (Debye)      :     17.55072



--------------------
Rotational spectrum 
--------------------
 
Rotational constants in cm-1:     0.045423     0.002802     0.002643 
Rotational constants in MHz :  1361.749559    84.015230    79.220533 

 Dipole components along the rotational axes: 
x,y,z [a.u.] :    -6.893864    -0.388969     0.014801 
x,y,z [Debye]:   -17.522811    -0.988680     0.037622 

 

Timings for individual modules:

Sum of individual times         ...    16364.545 sec (= 272.742 min)
GTO integral calculation        ...        6.121 sec (=   0.102 min)   0.0 %
SCF iterations                  ...     1283.000 sec (=  21.383 min)   7.8 %
MP2 module                      ...     1843.368 sec (=  30.723 min)  11.3 %
CIS module                      ...    13232.055 sec (= 220.534 min)  80.9 %



                             ****ORCA TERMINATED NORMALLY****
TOTAL RUN TIME: 0 days 7 hours 31 minutes 22 seconds 265 msec
