
                                 *****************
                                 * O   R   C   A *
                                 *****************

                                            #,                                       
                                            ###                                      
                                            ####                                     
                                            #####                                    
                                            ######                                   
                                           ########,                                 
                                     ,,################,,,,,                         
                               ,,#################################,,                 
                          ,,##########################################,,             
                       ,#########################################, ''#####,          
                    ,#############################################,,   '####,        
                  ,##################################################,,,,####,       
                ,###########''''           ''''###############################       
              ,#####''   ,,,,##########,,,,          '''####'''          '####       
            ,##' ,,,,###########################,,,                        '##       
           ' ,,###''''                  '''############,,,                           
         ,,##''                                '''############,,,,        ,,,,,,###''
      ,#''                                            '''#######################'''  
     '                                                          ''''####''''         
             ,#######,   #######,   ,#######,      ##                                
            ,#'     '#,  ##    ##  ,#'     '#,    #''#        ######   ,####,        
            ##       ##  ##   ,#'  ##            #'  '#       #        #'  '#        
            ##       ##  #######   ##           ,######,      #####,   #    #        
            '#,     ,#'  ##    ##  '#,     ,#' ,#      #,         ##   #,  ,#        
             '#######'   ##     ##  '#######'  #'      '#     #####' # '####'        



                  #######################################################
                  #                        -***-                        #
                  #          Department of theory and spectroscopy      #
                  #    Directorship and core code : Frank Neese         #
                  #        Max Planck Institute fuer Kohlenforschung    #
                  #                Kaiser Wilhelm Platz 1               #
                  #                 D-45470 Muelheim/Ruhr               #
                  #                      Germany                        #
                  #                                                     #
                  #                  All rights reserved                #
                  #                        -***-                        #
                  #######################################################


                         Program Version 5.0.2 -  RELEASE  -


 With contributions from (in alphabetic order):
   Daniel Aravena         : Magnetic Suceptibility
   Michael Atanasov       : Ab Initio Ligand Field Theory (pilot matlab implementation)
   Alexander A. Auer      : GIAO ZORA, VPT2 properties, NMR spectrum
   Ute Becker             : Parallelization
   Giovanni Bistoni       : ED, misc. LED, open-shell LED, HFLD
   Martin Brehm           : Molecular dynamics
   Dmytro Bykov           : SCF Hessian
   Vijay G. Chilkuri      : MRCI spin determinant printing, contributions to CSF-ICE
   Dipayan Datta          : RHF DLPNO-CCSD density
   Achintya Kumar Dutta   : EOM-CC, STEOM-CC
   Dmitry Ganyushin       : Spin-Orbit,Spin-Spin,Magnetic field MRCI
   Miquel Garcia          : C-PCM and meta-GGA Hessian, CC/C-PCM, Gaussian charge scheme
   Yang Guo               : DLPNO-NEVPT2, F12-NEVPT2, CIM, IAO-localization
   Andreas Hansen         : Spin unrestricted coupled pair/coupled cluster methods
   Benjamin Helmich-Paris : MC-RPA, TRAH-SCF, COSX integrals
   Lee Huntington         : MR-EOM, pCC
   Robert Izsak           : Overlap fitted RIJCOSX, COSX-SCS-MP3, EOM
   Marcus Kettner         : VPT2
   Christian Kollmar      : KDIIS, OOCD, Brueckner-CCSD(T), CCSD density, CASPT2, CASPT2-K
   Simone Kossmann        : Meta GGA functionals, TD-DFT gradient, OOMP2, MP2 Hessian
   Martin Krupicka        : Initial AUTO-CI
   Lucas Lang             : DCDCAS
   Marvin Lechner         : AUTO-CI (C++ implementation), FIC-MRCC
   Dagmar Lenk            : GEPOL surface, SMD
   Dimitrios Liakos       : Extrapolation schemes; Compound Job, initial MDCI parallelization
   Dimitrios Manganas     : Further ROCIS development; embedding schemes
   Dimitrios Pantazis     : SARC Basis sets
   Anastasios Papadopoulos: AUTO-CI, single reference methods and gradients
   Taras Petrenko         : DFT Hessian,TD-DFT gradient, ASA, ECA, R-Raman, ABS, FL, XAS/XES, NRVS
   Peter Pinski           : DLPNO-MP2, DLPNO-MP2 Gradient
   Christoph Reimann      : Effective Core Potentials
   Marius Retegan         : Local ZFS, SOC
   Christoph Riplinger    : Optimizer, TS searches, QM/MM, DLPNO-CCSD(T), (RO)-DLPNO pert. Triples
   Tobias Risthaus        : Range-separated hybrids, TD-DFT gradient, RPA, STAB
   Michael Roemelt        : Original ROCIS implementation
   Masaaki Saitow         : Open-shell DLPNO-CCSD energy and density
   Barbara Sandhoefer     : DKH picture change effects
   Avijit Sen             : IP-ROCIS
   Kantharuban Sivalingam : CASSCF convergence, NEVPT2, FIC-MRCI
   Bernardo de Souza      : ESD, SOC TD-DFT
   Georgi Stoychev        : AutoAux, RI-MP2 NMR, DLPNO-MP2 response
   Willem Van den Heuvel  : Paramagnetic NMR
   Boris Wezisla          : Elementary symmetry handling
   Frank Wennmohs         : Technical directorship


 We gratefully acknowledge several colleagues who have allowed us to
 interface, adapt or use parts of their codes:
   Stefan Grimme, W. Hujo, H. Kruse, P. Pracht,  : VdW corrections, initial TS optimization,
                  C. Bannwarth, S. Ehlert          DFT functionals, gCP, sTDA/sTD-DF
   Ed Valeev, F. Pavosevic, A. Kumar             : LibInt (2-el integral package), F12 methods
   Garnet Chan, S. Sharma, J. Yang, R. Olivares  : DMRG
   Ulf Ekstrom                                   : XCFun DFT Library
   Mihaly Kallay                                 : mrcc  (arbitrary order and MRCC methods)
   Jiri Pittner, Ondrej Demel                    : Mk-CCSD
   Frank Weinhold                                : gennbo (NPA and NBO analysis)
   Christopher J. Cramer and Donald G. Truhlar   : smd solvation model
   Lars Goerigk                                  : TD-DFT with DH, B97 family of functionals
   V. Asgeirsson, H. Jonsson                     : NEB implementation
   FAccTs GmbH                                   : IRC, NEB, NEB-TS, DLPNO-Multilevel, CI-OPT
                                                   MM, QMMM, 2- and 3-layer-ONIOM, Crystal-QMMM,
                                                   LR-CPCM, SF, NACMEs, symmetry and pop. for TD-DFT,
                                                   nearIR, NL-DFT gradient (VV10), updates on ESD,
                                                   ML-optimized integration grids
   S Lehtola, MJT Oliveira, MAL Marques          : LibXC Library
   Liviu Ungur et al                             : ANISO software


 Your calculation uses the libint2 library for the computation of 2-el integrals
 For citations please refer to: http://libint.valeyev.net

 Your ORCA version has been built with support for libXC version: 5.1.0
 For citations please refer to: https://tddft.org/programs/libxc/

 This ORCA versions uses:
   CBLAS   interface :  Fast vector & matrix operations
   LAPACKE interface :  Fast linear algebra routines
   SCALAPACK package :  Parallel linear algebra routines
   Shared memory     :  Shared parallel matrices
   BLAS/LAPACK       :  OpenBLAS 0.3.15  USE64BITINT DYNAMIC_ARCH NO_AFFINITY Haswell SINGLE_THREADED
        Core in use  :  Haswell
   Copyright (c) 2011-2014, The OpenBLAS Project


Your calculation utilizes the atom-pairwise dispersion correction
with the Becke-Johnson damping scheme (D3BJ)
Cite in your paper:
S.Grimme, S.Ehrlich, L.Goerigk, J Comput Chem, (2011), 32, 1456–1465 
S.Grimme, J.Antony, S.Ehrlich and H.Krieg, J.Chem.Phys., 132, (2010), 154104 
   

Your calculation utilizes the SMD solvation module
Please cite in your paper:
A.V. Marenich, C.J. Cramer, D.G. Truhlar J. Phys. Chem. B, 113, (2009), 6378 

================================================================================

----- Orbital basis set information -----
Your calculation utilizes the basis: aug-cc-pVTZ 
    H, B-Ne : Obtained from the ccRepo (grant-hill.group.shef.ac.uk/ccrepo) Feb. 2017
              R. A. Kendall, T. H. Dunning, Jr., R. J. Harrison, J. Chem. Phys. 96, 6796 (1992)
         He : Obtained from the ccRepo (grant-hill.group.shef.ac.uk/ccrepo) Feb. 2017
              D. E. Woon, T. H. Dunning, Jr., J. Chem. Phys. 100, 2975 (1994)
  Li-Be, Na : Obtained from the ccRepo (grant-hill.group.shef.ac.uk/ccrepo) Feb. 2017
              B. P. Prascher, D. E. Woon, K. A. Peterson, T. H. Dunning, Jr., A. K. Wilson, Theor. Chem. Acc. 128, 69 (2011)
         Mg : Obtained from the Peterson Research Group Website (tyr0.chem.wsu.edu/~kipeters) Feb. 2017
              B. P. Prascher, D. E. Woon, K. A. Peterson, T. H. Dunning, Jr., A. K. Wilson, Theor. Chem. Acc. 128, 69 (2011)
      Al-Ar : Obtained from the ccRepo (grant-hill.group.shef.ac.uk/ccrepo) Feb. 2017
              D. E. Woon, T. H. Dunning, Jr., J. Chem. Phys. 98, 1358 (1993)
      Sc-Zn : Obtained from the ccRepo (grant-hill.group.shef.ac.uk/ccrepo) Feb. 2017
              N. B. Balabanov, K. A. Peterson, J. Chem. Phys. 123, 064107 (2005)
              N. B. Balabanov, K. A. Peterson, J. Chem. Phys. 125, 074110 (2006)
      Ga-Kr : Obtained from the ccRepo (grant-hill.group.shef.ac.uk/ccrepo) Feb. 2017
              A. K. Wilson, D. E. Woon, K. A. Peterson, T. H. Dunning, Jr., J. Chem. Phys. 110, 7667 (1999)
     Ag, Au : Obtained from the Peterson Research Group Website (tyr0.chem.wsu.edu/~kipeters) Feb. 2017
              K. A. Peterson, C. Puzzarini, Theor. Chem. Acc. 114, 283 (2005)

The basis set includes element-specific modifications.

Your calculation utilizes the basis: cc-pVTZ 
       H, B-Ne : Obtained from the ccRepo (grant-hill.group.shef.ac.uk/ccrepo) Feb. 2017
                 T. H. Dunning, Jr., J. Chem. Phys. 90, 1007 (1989)
            He : Obtained from the ccRepo (grant-hill.group.shef.ac.uk/ccrepo) Feb. 2017
                 D. E. Woon, T. H. Dunning, Jr., J. Chem. Phys. 100, 2975 (1994)
  Li-Be, Na-Mg : Obtained from the ccRepo (grant-hill.group.shef.ac.uk/ccrepo) Feb. 2017
                 B. P. Prascher, D. E. Woon, K. A. Peterson, T. H. Dunning, Jr., A. K. Wilson, Theor. Chem. Acc. 128, 69 (2011)
         Al-Ar : Obtained from the ccRepo (grant-hill.group.shef.ac.uk/ccrepo) Feb. 2017
                 D. E. Woon, T. H. Dunning, Jr., J. Chem. Phys. 98, 1358 (1993)
            Ca : Obtained from the Peterson Research Group Website (tyr0.chem.wsu.edu/~kipeters) Feb. 2017
                 J. Koput, K. A. Peterson, J. Phys. Chem. 106, 9595 (2002)
         Sc-Zn : Obtained from the ccRepo (grant-hill.group.shef.ac.uk/ccrepo) Feb. 2017
                 N. B. Balabanov, K. A. Peterson, J. Chem. Phys. 123, 064107 (2005)
                 N. B. Balabanov, K. A. Peterson, J. Chem. Phys. 125, 074110 (2006)
         Ga-Kr : Obtained from the ccRepo (grant-hill.group.shef.ac.uk/ccrepo) Feb. 2017
                 A. K. Wilson, D. E. Woon, K. A. Peterson, T. H. Dunning, Jr., J. Chem. Phys. 110, 7667 (1999)
             Y : Obtained from the ccRepo (grant-hill.group.shef.ac.uk/ccrepo) Feb. 2017
                 K. A. Peterson, D. Figgen, M. Dolg, H. Stoll, J. Chem. Phys. 126, 124101 (2007)
        Ag, Au : Obtained from the Peterson Research Group Website (tyr0.chem.wsu.edu/~kipeters) Feb. 2017
                 K. A. Peterson, C. Puzzarini, Theor. Chem. Acc. 114, 283 (2005)

----- AuxJ basis set information -----
Your calculation utilizes the auxiliary basis: aug-cc-pVTZ/JK 
  H, B-F, Al-Cl, Ga-Br : Obtained from the TURBOMOLE 7.0 basis set library

The basis set includes element-specific modifications.

Your calculation utilizes the auxiliary basis: cc-pVTZ/JK 
  H, B-F, Al-Cl, Ga-Br : Obtained from the TURBOMOLE 7.0 basis set library

----- AuxC basis set information -----
Your calculation utilizes the auxiliary basis: aug-cc-pVTZ/C 
  H-He, B-F, Al-Ar, Ga-Kr : Obtained from the EMSL Basis Set Exchange (bse.pnl.gov) Feb. 2017
                            F. Weigend, A. Kohn, C. Hattig, J. Chem. Phys. 116, 3175 (2002)
                   Be, Mg : Obtained from the TURBOMOLE 7.0 basis set library
                            C. Haettig, Phys. Chem. Chem. Phys. 7, 59 (2005)
                       Ne : Obtained from the EMSL Basis Set Exchange (bse.pnl.gov) Feb. 2017
                            C. Haettig, Phys. Chem. Chem. Phys. 7, 59 (2005)
                            F. Weigend, A. Kohn, C. Hattig, J. Chem. Phys. 116, 3175 (2002)
                    Sc-Zn : Obtained from the EMSL Basis Set Exchange (bse.pnl.gov) Feb. 2017
                            J. G. Hill, J. A. Platts, J. Chem. Phys. 128, 044104 (2008)

The basis set includes element-specific modifications.

Your calculation utilizes the auxiliary basis: cc-pVTZ/C 
  Obtained from the EMSL Basis Set Exchange (bse.pnl.gov) Feb. 2017
  H-He, B-F, Al-Ar, Ga-Kr : F. Weigend, A. Kohn, C. Hattig, J. Chem. Phys. 116, 3175 (2002)
             Li-Be, Na-Mg : C. Haettig, Phys. Chem. Chem. Phys. 7, 59 (2005)
                       Ne : C. Haettig, Phys. Chem. Chem. Phys. 7, 59 (2005)
                            F. Weigend, A. Kohn, C. Hattig, J. Chem. Phys. 116, 3175 (2002)
                    Sc-Zn : J. G. Hill, J. A. Platts, J. Chem. Phys. 128, 044104 (2008)

================================================================================
                                        WARNINGS
                       Please study these warnings very carefully!
================================================================================


WARNING: Geometry Optimization
  ===> : Switching off AutoStart
         For restart on a previous wavefunction, please use MOREAD

INFO   : the flag for use of the SHARK integral package has been found!



***************************************
The coordinates will be read from file: 
***************************************


Your calculation utilizes the atom-pairwise dispersion correction
with the Becke-Johnson damping scheme (D3BJ)
Cite in your paper:
S.Grimme, S.Ehrlich, L.Goerigk, J Comput Chem, (2011), 32, 1456–1465 
S.Grimme, J.Antony, S.Ehrlich and H.Krieg, J.Chem.Phys., 132, (2010), 154104 
   

Your calculation utilizes the SMD solvation module
Please cite in your paper:
A.V. Marenich, C.J. Cramer, D.G. Truhlar J. Phys. Chem. B, 113, (2009), 6378 

================================================================================

----- Orbital basis set information -----
Your calculation utilizes the basis: aug-cc-pVTZ 
    H, B-Ne : Obtained from the ccRepo (grant-hill.group.shef.ac.uk/ccrepo) Feb. 2017
              R. A. Kendall, T. H. Dunning, Jr., R. J. Harrison, J. Chem. Phys. 96, 6796 (1992)
         He : Obtained from the ccRepo (grant-hill.group.shef.ac.uk/ccrepo) Feb. 2017
              D. E. Woon, T. H. Dunning, Jr., J. Chem. Phys. 100, 2975 (1994)
  Li-Be, Na : Obtained from the ccRepo (grant-hill.group.shef.ac.uk/ccrepo) Feb. 2017
              B. P. Prascher, D. E. Woon, K. A. Peterson, T. H. Dunning, Jr., A. K. Wilson, Theor. Chem. Acc. 128, 69 (2011)
         Mg : Obtained from the Peterson Research Group Website (tyr0.chem.wsu.edu/~kipeters) Feb. 2017
              B. P. Prascher, D. E. Woon, K. A. Peterson, T. H. Dunning, Jr., A. K. Wilson, Theor. Chem. Acc. 128, 69 (2011)
      Al-Ar : Obtained from the ccRepo (grant-hill.group.shef.ac.uk/ccrepo) Feb. 2017
              D. E. Woon, T. H. Dunning, Jr., J. Chem. Phys. 98, 1358 (1993)
      Sc-Zn : Obtained from the ccRepo (grant-hill.group.shef.ac.uk/ccrepo) Feb. 2017
              N. B. Balabanov, K. A. Peterson, J. Chem. Phys. 123, 064107 (2005)
              N. B. Balabanov, K. A. Peterson, J. Chem. Phys. 125, 074110 (2006)
      Ga-Kr : Obtained from the ccRepo (grant-hill.group.shef.ac.uk/ccrepo) Feb. 2017
              A. K. Wilson, D. E. Woon, K. A. Peterson, T. H. Dunning, Jr., J. Chem. Phys. 110, 7667 (1999)
     Ag, Au : Obtained from the Peterson Research Group Website (tyr0.chem.wsu.edu/~kipeters) Feb. 2017
              K. A. Peterson, C. Puzzarini, Theor. Chem. Acc. 114, 283 (2005)

The basis set includes element-specific modifications.

Your calculation utilizes the basis: cc-pVTZ 
       H, B-Ne : Obtained from the ccRepo (grant-hill.group.shef.ac.uk/ccrepo) Feb. 2017
                 T. H. Dunning, Jr., J. Chem. Phys. 90, 1007 (1989)
            He : Obtained from the ccRepo (grant-hill.group.shef.ac.uk/ccrepo) Feb. 2017
                 D. E. Woon, T. H. Dunning, Jr., J. Chem. Phys. 100, 2975 (1994)
  Li-Be, Na-Mg : Obtained from the ccRepo (grant-hill.group.shef.ac.uk/ccrepo) Feb. 2017
                 B. P. Prascher, D. E. Woon, K. A. Peterson, T. H. Dunning, Jr., A. K. Wilson, Theor. Chem. Acc. 128, 69 (2011)
         Al-Ar : Obtained from the ccRepo (grant-hill.group.shef.ac.uk/ccrepo) Feb. 2017
                 D. E. Woon, T. H. Dunning, Jr., J. Chem. Phys. 98, 1358 (1993)
            Ca : Obtained from the Peterson Research Group Website (tyr0.chem.wsu.edu/~kipeters) Feb. 2017
                 J. Koput, K. A. Peterson, J. Phys. Chem. 106, 9595 (2002)
         Sc-Zn : Obtained from the ccRepo (grant-hill.group.shef.ac.uk/ccrepo) Feb. 2017
                 N. B. Balabanov, K. A. Peterson, J. Chem. Phys. 123, 064107 (2005)
                 N. B. Balabanov, K. A. Peterson, J. Chem. Phys. 125, 074110 (2006)
         Ga-Kr : Obtained from the ccRepo (grant-hill.group.shef.ac.uk/ccrepo) Feb. 2017
                 A. K. Wilson, D. E. Woon, K. A. Peterson, T. H. Dunning, Jr., J. Chem. Phys. 110, 7667 (1999)
             Y : Obtained from the ccRepo (grant-hill.group.shef.ac.uk/ccrepo) Feb. 2017
                 K. A. Peterson, D. Figgen, M. Dolg, H. Stoll, J. Chem. Phys. 126, 124101 (2007)
        Ag, Au : Obtained from the Peterson Research Group Website (tyr0.chem.wsu.edu/~kipeters) Feb. 2017
                 K. A. Peterson, C. Puzzarini, Theor. Chem. Acc. 114, 283 (2005)

----- AuxJ basis set information -----
Your calculation utilizes the auxiliary basis: aug-cc-pVTZ/JK 
  H, B-F, Al-Cl, Ga-Br : Obtained from the TURBOMOLE 7.0 basis set library

The basis set includes element-specific modifications.

Your calculation utilizes the auxiliary basis: cc-pVTZ/JK 
  H, B-F, Al-Cl, Ga-Br : Obtained from the TURBOMOLE 7.0 basis set library

----- AuxC basis set information -----
Your calculation utilizes the auxiliary basis: aug-cc-pVTZ/C 
  H-He, B-F, Al-Ar, Ga-Kr : Obtained from the EMSL Basis Set Exchange (bse.pnl.gov) Feb. 2017
                            F. Weigend, A. Kohn, C. Hattig, J. Chem. Phys. 116, 3175 (2002)
                   Be, Mg : Obtained from the TURBOMOLE 7.0 basis set library
                            C. Haettig, Phys. Chem. Chem. Phys. 7, 59 (2005)
                       Ne : Obtained from the EMSL Basis Set Exchange (bse.pnl.gov) Feb. 2017
                            C. Haettig, Phys. Chem. Chem. Phys. 7, 59 (2005)
                            F. Weigend, A. Kohn, C. Hattig, J. Chem. Phys. 116, 3175 (2002)
                    Sc-Zn : Obtained from the EMSL Basis Set Exchange (bse.pnl.gov) Feb. 2017
                            J. G. Hill, J. A. Platts, J. Chem. Phys. 128, 044104 (2008)

The basis set includes element-specific modifications.

Your calculation utilizes the auxiliary basis: cc-pVTZ/C 
  Obtained from the EMSL Basis Set Exchange (bse.pnl.gov) Feb. 2017
  H-He, B-F, Al-Ar, Ga-Kr : F. Weigend, A. Kohn, C. Hattig, J. Chem. Phys. 116, 3175 (2002)
             Li-Be, Na-Mg : C. Haettig, Phys. Chem. Chem. Phys. 7, 59 (2005)
                       Ne : C. Haettig, Phys. Chem. Chem. Phys. 7, 59 (2005)
                            F. Weigend, A. Kohn, C. Hattig, J. Chem. Phys. 116, 3175 (2002)
                    Sc-Zn : J. G. Hill, J. A. Platts, J. Chem. Phys. 128, 044104 (2008)

================================================================================
                                        WARNINGS
                       Please study these warnings very carefully!
================================================================================

INFO   : Checking CIS options ...
  ===> : (D) CORRECTION FOUND - SETTING MODE=3
  ===> : JK MODE FOUND - ACTIVATING RI-MP2 CODE
  ===> : MP2 AND CIS FOUND - CHECKING
WARNING: CIS(D) and MP2 runs must have the same orbital window
  ===> : adjusting orbital windows

WARNING: No MP2 level density has been requested!
         To caclulate MP2 level properties use
         %mp2 Density relaxed end
         or
         %mp2 Density unrelaxed end
         Otherwise for double-hybrid DFT only the energy is correct!

WARNING: The frozen-core approximation is turned on by default for 
         the MP2 part of double-hybrid DFT.

INFO   : the flag for use of the SHARK integral package has been found!

================================================================================
                                       INPUT FILE
================================================================================
NAME = optpbed3-b2plyp-test-191.inp
|  1> ! pbe0 d3bj aug-cc-PVTZ RIJCOSX Opt
|  2> %maxcore 4000
|  3> %basis
|  4>  AuxJ "aug-cc-PVTZ/JK"
|  5>  AuxC "aug-cc-PVTZ/C"
|  6>  newGTO H "cc-PVTZ" end
|  7>  newAuxJGTO H "cc-PVTZ/JK" end
|  8>  newAuxCGTO H "cc-PVTZ/C" end
|  9> end
| 10> %cpcm
| 11>  SMD true
| 12>  SMDsolvent "ethanol"
| 13> end
| 14> %pal nprocs 4 end
| 15> * xyz 0 1
| 16> C          7.22550        1.70300       -1.21380
| 17> O          6.44980        0.53420       -0.96740
| 18> C          5.28350        0.71640       -0.35670
| 19> O          4.85570        1.78340       -0.00010
| 20> C          4.56230       -0.59870       -0.13050
| 21> N          3.24940       -0.35400        0.41060
| 22> C          2.15350       -0.97880       -0.08960
| 23> O          2.23550       -1.88660       -0.88920
| 24> C          0.83500       -0.47580        0.46380
| 25> C         -0.11680       -1.65680        0.73370
| 26> N         -1.47410       -1.25830        0.98990
| 27> C         -2.30530       -0.73470        0.02210
| 28> C         -2.00620       -0.83220       -1.32390
| 29> C         -2.87470       -0.33590       -2.29870
| 30> C         -4.04680        0.27300       -1.95030
| 31> C         -4.40320        0.38920       -0.59200
| 32> C         -5.61550        1.00390       -0.21350
| 33> C         -5.97800        1.10960        1.09860
| 34> C         -5.13720        0.59520        2.09360
| 35> C         -3.95330       -0.00370        1.75830
| 36> C         -3.53980       -0.12260        0.41500
| 37> H          6.71120        2.35420       -1.92290
| 38> H          7.38880        2.25190       -0.28460
| 39> H          8.16890        1.35790       -1.62770
| 40> H          5.16500       -1.21070        0.55280
| 41> H          4.45840       -1.14960       -1.07070
| 42> H          3.15390        0.51300        0.92100
| 43> H          0.37970        0.16730       -0.29450
| 44> H          0.99040        0.11370        1.36830
| 45> H         -0.08640       -2.33130       -0.12460
| 46> H          0.23650       -2.21480        1.60490
| 47> H         -1.62460       -0.89390        1.91710
| 48> H         -1.09060       -1.29970       -1.64790
| 49> H         -2.59790       -0.43390       -3.33860
| 50> H         -4.71460        0.66680       -2.70200
| 51> H         -6.25780        1.38930       -0.99280
| 52> H         -6.90910        1.58150        1.37680
| 53> H         -5.43010        0.67090        3.13090
| 54> H         -3.34140       -0.40250        2.55530
| 55> *
| 56> 
| 57> 
| 58> $new_job
| 59> ! b2plyp aug-cc-PVTZ RIJCOSX SP
| 60> %maxcore 4000
| 61> %basis
| 62>  AuxJ "aug-cc-PVTZ/JK"
| 63>  AuxC "aug-cc-PVTZ/C"
| 64>  newGTO H "cc-PVTZ" end
| 65>  newAuxJGTO H "cc-PVTZ/JK" end
| 66>  newAuxCGTO H "cc-PVTZ/C" end
| 67> end
| 68> %cpcm
| 69>  SMD true
| 70>  SMDsolvent "ethanol"
| 71> end
| 72> %pal nprocs 4 end
| 73> %tddft
| 74>  nroots 10
| 75>  maxdim 7
| 76> end
| 77> * xyzfile 0 1
| 78> 
| 79>                          ****END OF INPUT****
================================================================================


                 $$$$$$$$$$$$$$$$$$$$$$$$$$$$$$$$$$$$$$$$$$$$$$ 
                 $ THERE ARE  2 JOBS TO BE PROCESSED THIS RUN $
                 $$$$$$$$$$$$$$$$$$$$$$$$$$$$$$$$$$$$$$$$$$$$$$ 




                 $$$$$$$$$$$$$$$$  JOB NUMBER  1 $$$$$$$$$$$$$$


                       *****************************
                       * Geometry Optimization Run *
                       *****************************

Geometry optimization settings:
Update method            Update   .... BFGS
Choice of coordinates    CoordSys .... Z-matrix Internals
Initial Hessian          InHess   .... Almoef's Model

Convergence Tolerances:
Energy Change            TolE     ....  5.0000e-06 Eh
Max. Gradient            TolMAXG  ....  3.0000e-04 Eh/bohr
RMS Gradient             TolRMSG  ....  1.0000e-04 Eh/bohr
Max. Displacement        TolMAXD  ....  4.0000e-03 bohr
RMS Displacement         TolRMSD  ....  2.0000e-03 bohr
Strict Convergence                ....  False
------------------------------------------------------------------------------
                        ORCA OPTIMIZATION COORDINATE SETUP
------------------------------------------------------------------------------

The optimization will be done in new redundant internal coordinates
Making redundant internal coordinates   ...  (new redundants) done
Evaluating the initial hessian          ...  (Almloef) done
Evaluating the coordinates              ...  done
Calculating the B-matrix                .... done
Calculating the G-matrix                .... done
Diagonalizing the G-matrix              .... done
Small eigenvalue found = 1.432e-03
Small eigenvalue found = 2.628e-03
Small eigenvalue found = 9.787e-03
Small eigenvalue found = 1.237e-02
Small eigenvalue found = 1.922e-02
Small eigenvalue found = 2.219e-02
The first mode is                       ....   86
The number of degrees of freedom        ....  111

    -----------------------------------------------------------------
                    Redundant Internal Coordinates


    -----------------------------------------------------------------
         Definition                    Initial Value    Approx d2E/dq
    -----------------------------------------------------------------
      1. B(O   1,C   0)                  1.4243         0.493419   
      2. B(C   2,O   1)                  1.3291         0.699999   
      3. B(O   3,C   2)                  1.2036         1.109830   
      4. B(C   4,C   2)                  1.5168         0.392088   
      5. B(N   5,C   4)                  1.4410         0.464053   
      6. B(C   6,N   5)                  1.3570         0.631615   
      7. B(O   7,C   6)                  1.2125         1.074104   
      8. B(C   8,C   6)                  1.5158         0.393554   
      9. B(C   9,C   8)                  1.5406         0.359272   
     10. B(N  10,C   9)                  1.4376         0.469815   
     11. B(C  11,N  10)                  1.3790         0.582638   
     12. B(C  12,C  11)                  1.3823         0.642782   
     13. B(C  13,C  12)                  1.3967         0.609550   
     14. B(C  14,C  13)                  1.3660         0.682380   
     15. B(C  15,C  14)                  1.4091         0.582505   
     16. B(C  16,C  15)                  1.4110         0.578507   
     17. B(C  17,C  16)                  1.3654         0.684012   
     18. B(C  18,C  17)                  1.4006         0.601016   
     19. B(C  19,C  18)                  1.3685         0.676206   
     20. B(C  20,C  19)                  1.4105         0.579423   
     21. B(C  20,C  15)                  1.4218         0.555957   
     22. B(C  20,C  11)                  1.4328         0.533816   
     23. B(H  21,C   0)                  1.0915         0.358111   
     24. B(H  22,C   0)                  1.0915         0.358122   
     25. B(H  23,C   0)                  1.0865         0.364804   
     26. B(H  24,C   4)                  1.0976         0.350206   
     27. B(H  25,C   4)                  1.0947         0.353999   
     28. B(H  26,N   5)                  1.0106         0.431751   
     29. B(H  27,C   8)                  1.0936         0.355409   
     30. B(H  28,C   8)                  1.0908         0.359083   
     31. B(H  29,C   9)                  1.0920         0.357410   
     32. B(H  30,C   9)                  1.0932         0.355839   
     33. B(H  31,N  10)                  1.0075         0.436636   
     34. B(H  32,C  12)                  1.0779         0.376476   
     35. B(H  33,C  13)                  1.0806         0.372804   
     36. B(H  34,C  14)                  1.0799         0.373773   
     37. B(H  35,C  16)                  1.0809         0.372312   
     38. B(H  36,C  17)                  1.0803         0.373173   
     39. B(H  37,C  18)                  1.0805         0.372869   
     40. B(H  38,C  19)                  1.0811         0.372135   
     41. A(O   1,C   0,H  21)          110.2041         0.337241   
     42. A(H  21,C   0,H  23)          110.5576         0.291180   
     43. A(O   1,C   0,H  23)          106.1504         0.338284   
     44. A(O   1,C   0,H  22)          110.2973         0.337243   
     45. A(H  21,C   0,H  22)          108.8760         0.290335   
     46. A(H  22,C   0,H  23)          110.7406         0.291181   
     47. A(C   0,O   1,C   2)          116.4188         0.420289   
     48. A(O   1,C   2,O   3)          124.7204         0.487004   
     49. A(O   3,C   2,C   4)          123.7399         0.440968   
     50. A(O   1,C   2,C   4)          111.5248         0.406103   
     51. A(H  24,C   4,H  25)          107.8313         0.288796   
     52. A(C   2,C   4,H  25)          110.6940         0.325991   
     53. A(C   2,C   4,N   5)          109.9973         0.377930   
     54. A(N   5,C   4,H  24)          111.1755         0.332584   
     55. A(C   2,C   4,H  24)          108.3720         0.325414   
     56. A(N   5,C   4,H  25)          108.7544         0.333178   
     57. A(C   4,N   5,C   6)          121.2783         0.408206   
     58. A(C   4,N   5,H  26)          114.9254         0.341426   
     59. A(C   6,N   5,H  26)          120.3203         0.359668   
     60. A(N   5,C   6,C   8)          114.5251         0.399072   
     61. A(O   7,C   6,C   8)          123.2316         0.438667   
     62. A(N   5,C   6,O   7)          122.2196         0.474981   
     63. A(H  27,C   8,H  28)          108.4512         0.290112   
     64. A(C   9,C   8,H  28)          110.9182         0.322099   
     65. A(C   9,C   8,H  27)          108.3646         0.321557   
     66. A(C   6,C   8,H  28)          110.9868         0.326958   
     67. A(C   6,C   8,H  27)          107.7061         0.326405   
     68. A(C   6,C   8,C   9)          110.3017         0.364164   
     69. A(C   8,C   9,H  29)          108.5773         0.321853   
     70. A(H  29,C   9,H  30)          107.5824         0.289955   
     71. A(C   8,C   9,H  30)          109.3428         0.321621   
     72. A(N  10,C   9,H  30)          107.7330         0.334149   
     73. A(N  10,C   9,H  29)          109.7284         0.334394   
     74. A(C   8,C   9,N  10)          113.7045         0.373062   
     75. A(C   9,N  10,H  31)          113.9091         0.342777   
     76. A(C   9,N  10,C  11)          123.3161         0.403304   
     77. A(C  11,N  10,H  31)          114.7389         0.355446   
     78. A(N  10,C  11,C  12)          121.7478         0.429213   
     79. A(C  12,C  11,C  20)          118.9193         0.425308   
     80. A(N  10,C  11,C  20)          119.2797         0.415206   
     81. A(C  13,C  12,H  32)          118.1978         0.354555   
     82. A(C  11,C  12,H  32)          120.4704         0.357765   
     83. A(C  11,C  12,C  13)          121.3316         0.435560   
     84. A(C  12,C  13,C  14)          120.9261         0.440281   
     85. A(C  14,C  13,H  33)          120.3766         0.360823   
     86. A(C  12,C  13,H  33)          118.6948         0.353967   
     87. A(C  15,C  14,H  34)          118.9821         0.351413   
     88. A(C  13,C  14,H  34)          121.0406         0.360982   
     89. A(C  13,C  14,C  15)          119.9767         0.436691   
     90. A(C  16,C  15,C  20)          119.2484         0.420418   
     91. A(C  14,C  15,C  20)          119.9645         0.420935   
     92. A(C  14,C  15,C  16)          120.7864         0.423936   
     93. A(C  17,C  16,H  35)          120.4957         0.360888   
     94. A(C  15,C  16,H  35)          118.1957         0.350772   
     95. A(C  15,C  16,C  17)          121.3082         0.436337   
     96. A(C  18,C  17,H  36)          119.6637         0.353182   
     97. A(C  16,C  17,H  36)          120.6724         0.361031   
     98. A(C  16,C  17,C  18)          119.6631         0.439351   
     99. A(C  17,C  18,C  19)          120.3997         0.438442   
    100. A(C  19,C  18,H  37)          120.0259         0.360275   
    101. A(C  17,C  18,H  37)          119.5742         0.353133   
    102. A(C  18,C  19,C  20)          121.5905         0.435560   
    103. A(C  20,C  19,H  38)          120.3368         0.350838   
    104. A(C  18,C  19,H  38)          118.0659         0.360154   
    105. A(C  15,C  20,C  19)          117.7845         0.420537   
    106. A(C  11,C  20,C  19)          123.3483         0.417501   
    107. A(C  11,C  20,C  15)          118.8665         0.414442   
    108. D(C   2,O   1,C   0,H  22)     54.8844         0.019232   
    109. D(C   2,O   1,C   0,H  21)    -65.3587         0.019232   
    110. D(C   2,O   1,C   0,H  23)    174.8979         0.019232   
    111. D(O   3,C   2,O   1,C   0)     -0.4480         0.036694   
    112. D(C   4,C   2,O   1,C   0)   -179.0845         0.036694   
    113. D(H  24,C   4,C   2,O   3)   -114.7156         0.011431   
    114. D(N   5,C   4,C   2,O   1)   -174.3339         0.011431   
    115. D(H  25,C   4,C   2,O   1)    -54.1216         0.011431   
    116. D(H  25,C   4,C   2,O   3)    127.2261         0.011431   
    117. D(N   5,C   4,C   2,O   3)      7.0138         0.011431   
    118. D(H  24,C   4,C   2,O   1)     63.9366         0.011431   
    119. D(C   6,N   5,C   4,H  25)     11.9040         0.018389   
    120. D(C   6,N   5,C   4,C   2)    133.2831         0.018389   
    121. D(H  26,N   5,C   4,C   2)    -25.7311         0.018389   
    122. D(C   6,N   5,C   4,H  24)   -106.6726         0.018389   
    123. D(H  26,N   5,C   4,H  24)     94.3132         0.018389   
    124. D(H  26,N   5,C   4,H  25)   -147.1102         0.018389   
    125. D(C   8,C   6,N   5,C   4)   -172.2545         0.032400   
    126. D(C   8,C   6,N   5,H  26)    -14.3556         0.032400   
    127. D(O   7,C   6,N   5,H  26)    167.3609         0.032400   
    128. D(O   7,C   6,N   5,C   4)      9.4620         0.032400   
    129. D(H  28,C   8,C   6,N   5)    -15.5850         0.011512   
    130. D(H  27,C   8,C   6,O   7)    -78.7461         0.011512   
    131. D(H  27,C   8,C   6,N   5)    102.9900         0.011512   
    132. D(C   9,C   8,C   6,O   7)     39.3365         0.011512   
    133. D(H  28,C   8,C   6,O   7)    162.6789         0.011512   
    134. D(C   9,C   8,C   6,N   5)   -138.9275         0.011512   
    135. D(H  29,C   9,C   8,C   6)    -45.1797         0.010359   
    136. D(N  10,C   9,C   8,H  28)     68.9922         0.010359   
    137. D(N  10,C   9,C   8,H  27)    -49.9481         0.010359   
    138. D(N  10,C   9,C   8,C   6)   -167.6254         0.010359   
    139. D(H  30,C   9,C   8,H  28)    -51.4503         0.010359   
    140. D(H  30,C   9,C   8,H  27)   -170.3906         0.010359   
    141. D(H  30,C   9,C   8,C   6)     71.9321         0.010359   
    142. D(H  29,C   9,C   8,H  28)   -168.5621         0.010359   
    143. D(H  29,C   9,C   8,H  27)     72.4976         0.010359   
    144. D(H  31,N  10,C   9,H  30)     44.2311         0.018859   
    145. D(H  31,N  10,C   9,H  29)    161.0774         0.018859   
    146. D(H  31,N  10,C   9,C   8)    -77.1137         0.018859   
    147. D(C  11,N  10,C   9,H  30)   -168.7147         0.018859   
    148. D(C  11,N  10,C   9,H  29)    -51.8684         0.018859   
    149. D(C  11,N  10,C   9,C   8)     69.9406         0.018859   
    150. D(C  20,C  11,N  10,H  31)    -20.8702         0.027243   
    151. D(C  12,C  11,N  10,H  31)    161.8129         0.027243   
    152. D(C  12,C  11,N  10,C   9)     15.0029         0.027243   
    153. D(C  20,C  11,N  10,C   9)   -167.6801         0.027243   
    154. D(H  32,C  12,C  11,C  20)   -179.1846         0.028723   
    155. D(H  32,C  12,C  11,N  10)     -1.8583         0.028723   
    156. D(C  13,C  12,C  11,C  20)      0.6354         0.028723   
    157. D(C  13,C  12,C  11,N  10)    177.9617         0.028723   
    158. D(H  33,C  13,C  12,H  32)     -0.2410         0.025659   
    159. D(H  33,C  13,C  12,C  11)    179.9351         0.025659   
    160. D(C  14,C  13,C  12,H  32)   -179.6670         0.025659   
    161. D(C  14,C  13,C  12,C  11)      0.5090         0.025659   
    162. D(H  34,C  14,C  13,H  33)     -0.0786         0.032658   
    163. D(H  34,C  14,C  13,C  12)    179.3378         0.032658   
    164. D(C  15,C  14,C  13,H  33)    179.6253         0.032658   
    165. D(C  15,C  14,C  13,C  12)     -0.9583         0.032658   
    166. D(C  20,C  15,C  14,H  34)    179.9680         0.023321   
    167. D(C  20,C  15,C  14,C  13)      0.2580         0.023321   
    168. D(C  16,C  15,C  14,H  34)      0.2961         0.023321   
    169. D(C  16,C  15,C  14,C  13)   -179.4139         0.023321   
    170. D(C  17,C  16,C  15,C  14)    179.3009         0.022988   
    171. D(H  35,C  16,C  15,C  20)    179.8451         0.022988   
    172. D(H  35,C  16,C  15,C  14)     -0.4807         0.022988   
    173. D(C  17,C  16,C  15,C  20)     -0.3734         0.022988   
    174. D(H  36,C  17,C  16,H  35)     -0.1673         0.032827   
    175. D(H  36,C  17,C  16,C  15)   -179.9438         0.032827   
    176. D(C  18,C  17,C  16,H  35)    179.5210         0.032827   
    177. D(C  18,C  17,C  16,C  15)     -0.2555         0.032827   
    178. D(H  37,C  18,C  17,H  36)      0.2947         0.024906   
    179. D(H  37,C  18,C  17,C  16)   -179.3967         0.024906   
    180. D(C  19,C  18,C  17,H  36)   -179.8959         0.024906   
    181. D(C  19,C  18,C  17,C  16)      0.4126         0.024906   
    182. D(H  38,C  19,C  18,H  37)      0.8257         0.032024   
    183. D(H  38,C  19,C  18,C  17)   -178.9828         0.032024   
    184. D(C  20,C  19,C  18,H  37)    179.8807         0.032024   
    185. D(C  20,C  19,C  18,C  17)      0.0722         0.032024   
    186. D(C  15,C  20,C  19,H  38)    178.3456         0.023064   
    187. D(C  15,C  20,C  19,C  18)     -0.6882         0.023064   
    188. D(C  11,C  20,C  19,H  38)     -1.3555         0.023064   
    189. D(C  11,C  20,C  19,C  18)    179.6107         0.023064   
    190. D(C  19,C  20,C  15,C  16)      0.8270         0.021161   
    191. D(C  19,C  20,C  15,C  14)   -178.8499         0.021161   
    192. D(C  11,C  20,C  15,C  16)   -179.4580         0.021161   
    193. D(C  11,C  20,C  15,C  14)      0.8650         0.021161   
    194. D(C  19,C  20,C  11,C  12)    178.4011         0.019458   
    195. D(C  19,C  20,C  11,N  10)      1.0077         0.019458   
    196. D(C  15,C  20,C  11,C  12)     -1.2970         0.019458   
    197. D(C  15,C  20,C  11,N  10)   -178.6904         0.019458   
    -----------------------------------------------------------------

Number of atoms                         .... 39
Number of degrees of freedom            .... 197

         *************************************************************
         *                GEOMETRY OPTIMIZATION CYCLE   1            *
         *************************************************************
---------------------------------
CARTESIAN COORDINATES (ANGSTROEM)
---------------------------------
  C      7.225500    1.703000   -1.213800
  O      6.449800    0.534200   -0.967400
  C      5.283500    0.716400   -0.356700
  O      4.855700    1.783400   -0.000100
  C      4.562300   -0.598700   -0.130500
  N      3.249400   -0.354000    0.410600
  C      2.153500   -0.978800   -0.089600
  O      2.235500   -1.886600   -0.889200
  C      0.835000   -0.475800    0.463800
  C     -0.116800   -1.656800    0.733700
  N     -1.474100   -1.258300    0.989900
  C     -2.305300   -0.734700    0.022100
  C     -2.006200   -0.832200   -1.323900
  C     -2.874700   -0.335900   -2.298700
  C     -4.046800    0.273000   -1.950300
  C     -4.403200    0.389200   -0.592000
  C     -5.615500    1.003900   -0.213500
  C     -5.978000    1.109600    1.098600
  C     -5.137200    0.595200    2.093600
  C     -3.953300   -0.003700    1.758300
  C     -3.539800   -0.122600    0.415000
  H      6.711200    2.354200   -1.922900
  H      7.388800    2.251900   -0.284600
  H      8.168900    1.357900   -1.627700
  H      5.165000   -1.210700    0.552800
  H      4.458400   -1.149600   -1.070700
  H      3.153900    0.513000    0.921000
  H      0.379700    0.167300   -0.294500
  H      0.990400    0.113700    1.368300
  H     -0.086400   -2.331300   -0.124600
  H      0.236500   -2.214800    1.604900
  H     -1.624600   -0.893900    1.917100
  H     -1.090600   -1.299700   -1.647900
  H     -2.597900   -0.433900   -3.338600
  H     -4.714600    0.666800   -2.702000
  H     -6.257800    1.389300   -0.992800
  H     -6.909100    1.581500    1.376800
  H     -5.430100    0.670900    3.130900
  H     -3.341400   -0.402500    2.555300

----------------------------
CARTESIAN COORDINATES (A.U.)
----------------------------
  NO LB      ZA    FRAG     MASS         X           Y           Z
   0 C     6.0000    0    12.011   13.654216    3.218204   -2.293750
   1 O     8.0000    0    15.999   12.188356    1.009492   -1.828121
   2 C     6.0000    0    12.011    9.984368    1.353800   -0.674065
   3 O     8.0000    0    15.999    9.175943    3.370138   -0.000189
   4 C     6.0000    0    12.011    8.621498   -1.131379   -0.246609
   5 N     7.0000    0    14.007    6.140476   -0.668963    0.775922
   6 C     6.0000    0    12.011    4.069525   -1.849664   -0.169319
   7 O     8.0000    0    15.999    4.224483   -3.565157   -1.680344
   8 C     6.0000    0    12.011    1.577921   -0.899132    0.876455
   9 C     6.0000    0    12.011   -0.220720   -3.130898    1.386492
  10 N     7.0000    0    14.007   -2.785645   -2.377842    1.870640
  11 C     6.0000    0    12.011   -4.356386   -1.388382    0.041763
  12 C     6.0000    0    12.011   -3.791169   -1.572630   -2.501808
  13 C     6.0000    0    12.011   -5.432396   -0.634759   -4.343913
  14 C     6.0000    0    12.011   -7.647344    0.515895   -3.685533
  15 C     6.0000    0    12.011   -8.320842    0.735481   -1.118718
  16 C     6.0000    0    12.011  -10.611757    1.897096   -0.403457
  17 C     6.0000    0    12.011  -11.296783    2.096840    2.076053
  18 C     6.0000    0    12.011   -9.707901    1.124765    3.956331
  19 C     6.0000    0    12.011   -7.470654   -0.006992    3.322705
  20 C     6.0000    0    12.011   -6.689253   -0.231680    0.784236
  21 H     1.0000    0     1.008   12.682330    4.448793   -3.633754
  22 H     1.0000    0     1.008   13.962808    4.255474   -0.537816
  23 H     1.0000    0     1.008   15.436984    2.566059   -3.075907
  24 H     1.0000    0     1.008    9.760435   -2.287891    1.044641
  25 H     1.0000    0     1.008    8.425155   -2.172429   -2.023330
  26 H     1.0000    0     1.008    5.960007    0.969430    1.740438
  27 H     1.0000    0     1.008    0.717529    0.316151   -0.556524
  28 H     1.0000    0     1.008    1.871585    0.214862    2.585712
  29 H     1.0000    0     1.008   -0.163272   -4.405519   -0.235460
  30 H     1.0000    0     1.008    0.446920   -4.185365    3.032821
  31 H     1.0000    0     1.008   -3.070049   -1.689226    3.622794
  32 H     1.0000    0     1.008   -2.060935   -2.456077   -3.114080
  33 H     1.0000    0     1.008   -4.909320   -0.819952   -6.309040
  34 H     1.0000    0     1.008   -8.909303    1.260069   -5.106040
  35 H     1.0000    0     1.008  -11.825528    2.625397   -1.876120
  36 H     1.0000    0     1.008  -13.056307    2.988602    2.601775
  37 H     1.0000    0     1.008  -10.261402    1.267817    5.916544
  38 H     1.0000    0     1.008   -6.314331   -0.760615    4.828817

--------------------------------
INTERNAL COORDINATES (ANGSTROEM)
--------------------------------
 C      0   0   0     0.000000000000     0.00000000     0.00000000
 O      1   0   0     1.424260120203     0.00000000     0.00000000
 C      2   1   0     1.329062459029   116.41880594     0.00000000
 O      3   2   1     1.203605167819   124.72042655   359.55197124
 C      3   2   1     1.516833507673   111.52475990   180.91547892
 N      5   3   2     1.440962771899   109.99725760   185.66608057
 C      6   5   3     1.357045279274   121.27825444   133.28309258
 O      7   6   5     1.212511855612   122.21963448     9.46202972
 C      7   6   5     1.515817538492   114.52514438   187.74554228
 C      9   7   6     1.540626577078   110.30172874   221.07253994
 N     10   9   7     1.437603554531   113.70451948   192.37458745
 C     11  10   9     1.379016765670   123.31610029    69.94055971
 C     12  11  10     1.382274596453   121.74779100    15.00291892
 C     13  12  11     1.396725091061   121.33159978   177.96174043
 C     14  13  12     1.366001530014   120.92609622     0.50899858
 C     15  14  13     1.409078525136   119.97665138   359.04171088
 C     16  15  14     1.410953447141   120.78635780   180.58613454
 C     17  16  15     1.365351657999   121.30821597   179.30085108
 C     18  17  16     1.400563101042   119.66313492   359.74446888
 C     19  18  17     1.368475980790   120.39967985     0.41261326
 C     20  19  18     1.410522722256   121.59051870     0.07219883
 H      1   2   3     1.091507553799   110.20412072   294.64133777
 H      1   2   3     1.091499308291   110.29734331    54.88437033
 H      1   2   3     1.086467109488   106.15039530   174.89786730
 H      5   3   2     1.097583791790   108.37198542    63.93663614
 H      5   3   2     1.094651570135   110.69398440   305.87836724
 H      6   5   3     1.010602498513   114.92537191   334.26888530
 H      9   7   6     1.093569654846   107.70609908   102.98995349
 H      9   7   6     1.090770214115   110.98683251   344.41495920
 H     10   9   7     1.092040887513   108.57732065   314.82025895
 H     10   9   7     1.093240289232   109.34278212    71.93208782
 H     11  10   9     1.007540296961   113.90912905   282.88634970
 H     13  12  11     1.077894062513   120.47039972   358.14173317
 H     14  13  12     1.080562006550   118.69480367   179.93505695
 H     15  14  13     1.079855624609   121.04062305   179.33782638
 H     17  16  15     1.080921338489   118.19571257   359.51933289
 H     18  17  16     1.080292580739   120.67242735   180.05616466
 H     19  18  17     1.080514780093   119.57415962   180.60325569
 H     20  19  18     1.081051363257   118.06593702   181.01723886

---------------------------
INTERNAL COORDINATES (A.U.)
---------------------------
 C      0   0   0     0.000000000000     0.00000000     0.00000000
 O      1   0   0     2.691461570649     0.00000000     0.00000000
 C      2   1   0     2.511564062441   116.41880594     0.00000000
 O      3   2   1     2.274484140550   124.72042655   359.55197124
 C      3   2   1     2.866399920257   111.52475990   180.91547892
 N      5   3   2     2.723025008066   109.99725760   185.66608057
 C      6   5   3     2.564443929159   121.27825444   133.28309258
 O      7   6   5     2.291315341240   122.21963448     9.46202972
 C      7   6   5     2.864480016745   114.52514438   187.74554228
 C      9   7   6     2.911362305319   110.30172874   221.07253994
 N     10   9   7     2.716677007215   113.70451948   192.37458745
 C     11  10   9     2.605964021203   123.31610029    69.94055971
 C     12  11  10     2.612120429173   121.74779100    15.00291892
 C     13  12  11     2.639427906482   121.33159978   177.96174043
 C     14  13  12     2.581368790243   120.92609622     0.50899858
 C     15  14  13     2.662772513697   119.97665138   359.04171088
 C     16  15  14     2.666315602809   120.78635780   180.58613454
 C     17  16  15     2.580140710113   121.30821597   179.30085108
 C     18  17  16     2.646680694245   119.66313492   359.74446888
 C     19  18  17     2.586044824543   120.39967985     0.41261326
 C     20  19  18     2.665501650737   121.59051870     0.07219883
 H      1   2   3     2.062650349786   110.20412072   294.64133777
 H      1   2   3     2.062634768035   110.29734331    54.88437033
 H      1   2   3     2.053125290446   106.15039530   174.89786730
 H      5   3   2     2.074132775514   108.37198542    63.93663614
 H      5   3   2     2.068591679623   110.69398440   305.87836724
 H      6   5   3     1.909761952445   114.92537191   334.26888530
 H      9   7   6     2.066547156026   107.70609908   102.98995349
 H      9   7   6     2.061256979716   110.98683251   344.41495920
 H     10   9   7     2.063658204444   108.57732065   314.82025895
 H     10   9   7     2.065924745217   109.34278212    71.93208782
 H     11  10   9     1.903975230146   113.90912905   282.88634970
 H     13  12  11     2.036924579529   120.47039972   358.14173317
 H     14  13  12     2.041966263100   118.69480367   179.93505695
 H     15  14  13     2.040631394686   121.04062305   179.33782638
 H     17  16  15     2.042645302055   118.19571257   359.51933289
 H     18  17  16     2.041457122104   120.67242735   180.05616466
 H     19  18  17     2.041877018030   119.57415962   180.60325569
 H     20  19  18     2.042891013258   118.06593702   181.01723886

---------------------
BASIS SET INFORMATION
---------------------
There are 4 groups of distinct atoms

 Group   1 Type C   : 19s6p3d2f contracted to 5s4p3d2f pattern {88111/3111/111/11}
 Group   2 Type O   : 19s6p3d2f contracted to 5s4p3d2f pattern {88111/3111/111/11}
 Group   3 Type N   : 19s6p3d2f contracted to 5s4p3d2f pattern {88111/3111/111/11}
 Group   4 Type H   : 5s2p1d contracted to 3s2p1d pattern {311/11/1}

Atom   0C    basis set group =>   1
Atom   1O    basis set group =>   2
Atom   2C    basis set group =>   1
Atom   3O    basis set group =>   2
Atom   4C    basis set group =>   1
Atom   5N    basis set group =>   3
Atom   6C    basis set group =>   1
Atom   7O    basis set group =>   2
Atom   8C    basis set group =>   1
Atom   9C    basis set group =>   1
Atom  10N    basis set group =>   3
Atom  11C    basis set group =>   1
Atom  12C    basis set group =>   1
Atom  13C    basis set group =>   1
Atom  14C    basis set group =>   1
Atom  15C    basis set group =>   1
Atom  16C    basis set group =>   1
Atom  17C    basis set group =>   1
Atom  18C    basis set group =>   1
Atom  19C    basis set group =>   1
Atom  20C    basis set group =>   1
Atom  21H    basis set group =>   4
Atom  22H    basis set group =>   4
Atom  23H    basis set group =>   4
Atom  24H    basis set group =>   4
Atom  25H    basis set group =>   4
Atom  26H    basis set group =>   4
Atom  27H    basis set group =>   4
Atom  28H    basis set group =>   4
Atom  29H    basis set group =>   4
Atom  30H    basis set group =>   4
Atom  31H    basis set group =>   4
Atom  32H    basis set group =>   4
Atom  33H    basis set group =>   4
Atom  34H    basis set group =>   4
Atom  35H    basis set group =>   4
Atom  36H    basis set group =>   4
Atom  37H    basis set group =>   4
Atom  38H    basis set group =>   4
---------------------------------
AUXILIARY/J BASIS SET INFORMATION
---------------------------------
There are 4 groups of distinct atoms

 Group   1 Type C   : 10s7p5d2f1g contracted to 10s7p5d2f1g pattern {1111111111/1111111/11111/11/1}
 Group   2 Type O   : 10s7p5d2f1g contracted to 10s7p5d2f1g pattern {1111111111/1111111/11111/11/1}
 Group   3 Type N   : 10s7p5d2f1g contracted to 10s7p5d2f1g pattern {1111111111/1111111/11111/11/1}
 Group   4 Type H   : 4s3p2d1f contracted to 4s3p2d1f pattern {1111/111/11/1}

Atom   0C    basis set group =>   1
Atom   1O    basis set group =>   2
Atom   2C    basis set group =>   1
Atom   3O    basis set group =>   2
Atom   4C    basis set group =>   1
Atom   5N    basis set group =>   3
Atom   6C    basis set group =>   1
Atom   7O    basis set group =>   2
Atom   8C    basis set group =>   1
Atom   9C    basis set group =>   1
Atom  10N    basis set group =>   3
Atom  11C    basis set group =>   1
Atom  12C    basis set group =>   1
Atom  13C    basis set group =>   1
Atom  14C    basis set group =>   1
Atom  15C    basis set group =>   1
Atom  16C    basis set group =>   1
Atom  17C    basis set group =>   1
Atom  18C    basis set group =>   1
Atom  19C    basis set group =>   1
Atom  20C    basis set group =>   1
Atom  21H    basis set group =>   4
Atom  22H    basis set group =>   4
Atom  23H    basis set group =>   4
Atom  24H    basis set group =>   4
Atom  25H    basis set group =>   4
Atom  26H    basis set group =>   4
Atom  27H    basis set group =>   4
Atom  28H    basis set group =>   4
Atom  29H    basis set group =>   4
Atom  30H    basis set group =>   4
Atom  31H    basis set group =>   4
Atom  32H    basis set group =>   4
Atom  33H    basis set group =>   4
Atom  34H    basis set group =>   4
Atom  35H    basis set group =>   4
Atom  36H    basis set group =>   4
Atom  37H    basis set group =>   4
Atom  38H    basis set group =>   4
---------------------------------
AUXILIARY/C BASIS SET INFORMATION
---------------------------------
There are 4 groups of distinct atoms

 Group   1 Type C   : 9s7p6d4f2g contracted to 9s7p6d4f2g pattern {111111111/1111111/111111/1111/11}
 Group   2 Type O   : 9s7p6d4f2g contracted to 9s7p6d4f2g pattern {111111111/1111111/111111/1111/11}
 Group   3 Type N   : 9s7p6d4f2g contracted to 9s7p6d4f2g pattern {111111111/1111111/111111/1111/11}
 Group   4 Type H   : 4s3p2d1f contracted to 4s3p2d1f pattern {1111/111/11/1}

Atom   0C    basis set group =>   1
Atom   1O    basis set group =>   2
Atom   2C    basis set group =>   1
Atom   3O    basis set group =>   2
Atom   4C    basis set group =>   1
Atom   5N    basis set group =>   3
Atom   6C    basis set group =>   1
Atom   7O    basis set group =>   2
Atom   8C    basis set group =>   1
Atom   9C    basis set group =>   1
Atom  10N    basis set group =>   3
Atom  11C    basis set group =>   1
Atom  12C    basis set group =>   1
Atom  13C    basis set group =>   1
Atom  14C    basis set group =>   1
Atom  15C    basis set group =>   1
Atom  16C    basis set group =>   1
Atom  17C    basis set group =>   1
Atom  18C    basis set group =>   1
Atom  19C    basis set group =>   1
Atom  20C    basis set group =>   1
Atom  21H    basis set group =>   4
Atom  22H    basis set group =>   4
Atom  23H    basis set group =>   4
Atom  24H    basis set group =>   4
Atom  25H    basis set group =>   4
Atom  26H    basis set group =>   4
Atom  27H    basis set group =>   4
Atom  28H    basis set group =>   4
Atom  29H    basis set group =>   4
Atom  30H    basis set group =>   4
Atom  31H    basis set group =>   4
Atom  32H    basis set group =>   4
Atom  33H    basis set group =>   4
Atom  34H    basis set group =>   4
Atom  35H    basis set group =>   4
Atom  36H    basis set group =>   4
Atom  37H    basis set group =>   4
Atom  38H    basis set group =>   4


           ************************************************************
           *        Program running with 4 parallel MPI-processes     *
           *              working on a common directory               *
           ************************************************************
------------------------------------------------------------------------------
                           ORCA GTO INTEGRAL CALCULATION
                           -- RI-GTO INTEGRALS CHOSEN --
------------------------------------------------------------------------------
------------------------------------------------------------------------------
                   ___                                                        
                  /   \      - P O W E R E D   B Y -                         
                 /     \                                                     
                 |  |  |   _    _      __       _____    __    __             
                 |  |  |  | |  | |    /  \     |  _  \  |  |  /  |          
                  \  \/   | |  | |   /    \    | | | |  |  | /  /          
                 / \  \   | |__| |  /  /\  \   | |_| |  |  |/  /          
                |  |  |   |  __  | /  /__\  \  |    /   |      \           
                |  |  |   | |  | | |   __   |  |    \   |  |\   \          
                \     /   | |  | | |  |  |  |  | |\  \  |  | \   \       
                 \___/    |_|  |_| |__|  |__|  |_| \__\ |__|  \__/        
                                                                              
                      - O R C A' S   B I G   F R I E N D -                    
                                      &                                       
                       - I N T E G R A L  F E E D E R -                       
                                                                              
 v1 FN, 2020, v2 2021                                                         
------------------------------------------------------------------------------


Reading SHARK input file optpbed3-b2plyp-test-191.SHARKINP.tmp ... ok
----------------------
SHARK INTEGRAL PACKAGE
----------------------

Number of atoms                             ...     39
Number of basis functions                   ...   1344
Number of shells                            ...    528
Maximum angular momentum                    ...      3
Integral batch strategy                     ... SHARK/LIBINT Hybrid
RI-J (if used) integral strategy            ... SPLIT-RIJ (Revised 2003 algorithm where possible)
Printlevel                                  ...      1
Contraction scheme used                     ... PARTIAL GENERAL contraction
Coulomb Range Separation                    ... NOT USED
Exchange Range Separation                   ... NOT USED
Finite Nucleus Model                        ... NOT USED
Auxiliary Coulomb fitting basis             ... AVAILABLE
   # of basis functions in Aux-J            ...   2199
   # of shells in Aux-J                     ...    705
   Maximum angular momentum in Aux-J        ...      4
Auxiliary J/K fitting basis                 ... NOT available
Auxiliary Correlation fitting basis         ... AVAILABLE
   # of basis functions in Aux-C            ...   2766
   # of shells in Aux-C                     ...    768
   Maximum angular momentum in Aux-C        ...      4
Auxiliary 'external' fitting basis          ... NOT available
Integral threshold                          ...     2.500000e-11
Primitive cut-off                           ...     2.500000e-12
Primitive pair pre-selection threshold      ...     2.500000e-12

Calculating pre-screening integrals         ... done (  0.3 sec) Dimension = 528
Calculating pre-screening integrals (ORCA)  ... done (  0.7 sec) Dimension = 402
Organizing shell pair data                  ... done (  1.5 sec)
Shell pair information
Total number of shell pairs                 ...    139656
Shell pairs after pre-screening             ...     80307
Total number of primitive shell pairs       ...    184038
Primitive shell pairs kept                  ...     94815
          la=0 lb=0:  18697 shell pairs
          la=1 lb=0:  20998 shell pairs
          la=1 lb=1:   5276 shell pairs
          la=2 lb=0:  13219 shell pairs
          la=2 lb=1:   6740 shell pairs
          la=2 lb=2:   2218 shell pairs
          la=3 lb=0:   6815 shell pairs
          la=3 lb=1:   3494 shell pairs
          la=3 lb=2:   2253 shell pairs
          la=3 lb=3:    597 shell pairs

Calculating one electron integrals          ... done (  0.3 sec)
Calculating RI/J V-Matrix + Cholesky decomp.... done (  0.6 sec)
Calculating RI/C V-Matrix + Cholesky decomp.... done (  0.8 sec)
Calculating Nuclear repulsion               ... done (  0.0 sec) ENN=   1526.751105310823 Eh

SHARK setup successfully completed in   6.2 seconds

Maximum memory used throughout the entire GTOINT-calculation: 132.5 MB


           ************************************************************
           *        Program running with 4 parallel MPI-processes     *
           *              working on a common directory               *
           ************************************************************
-------------------------------------------------------------------------------
                                 ORCA SCF
-------------------------------------------------------------------------------

------------
SCF SETTINGS
------------
Hamiltonian:
 Density Functional     Method          .... DFT(GTOs)
 Exchange Functional    Exchange        .... PBE
   PBE kappa parameter   XKappa         ....  0.804000
   PBE mue parameter    XMuePBE         ....  0.219520
 Correlation Functional Correlation     .... PBE
   PBE beta parameter  CBetaPBE         ....  0.066725
 LDA part of GGA corr.  LDAOpt          .... PW91-LDA
 Gradients option       PostSCFGGA      .... off
 Hybrid DFT is turned on
   Fraction HF Exchange ScalHFX         ....  0.250000
   Scaling of DF-GGA-X  ScalDFX         ....  0.750000
   Scaling of DF-GGA-C  ScalDFC         ....  1.000000
   Scaling of DF-LDA-C  ScalLDAC        ....  1.000000
   Perturbative correction              ....  0.000000
   Density functional embedding theory  .... OFF
   NL short-range parameter             ....  6.900000
 RI-approximation to the Coulomb term is turned on
   Number of AuxJ basis functions       .... 2199
   RIJ-COSX (HFX calculated with COS-X)).... on


General Settings:
 Integral files         IntName         .... optpbed3-b2plyp-test-191
 Hartree-Fock type      HFTyp           .... RHF
 Total Charge           Charge          ....    0
 Multiplicity           Mult            ....    1
 Number of Electrons    NEL             ....  152
 Basis Dimension        Dim             .... 1218
 Nuclear Repulsion      ENuc            ....   1526.7511053108 Eh

Convergence Acceleration:
 DIIS                   CNVDIIS         .... on
   Start iteration      DIISMaxIt       ....    12
   Startup error        DIISStart       ....  0.200000
   # of expansion vecs  DIISMaxEq       ....     5
   Bias factor          DIISBfac        ....   1.050
   Max. coefficient     DIISMaxC        ....  10.000
 Trust-Rad. Augm. Hess. CNVTRAH         .... auto
   Auto Start mean grad. ratio tolernc. ....  1.125000
   Auto Start start iteration           ....    20
   Auto Start num. interpolation iter.  ....    10
   Max. Number of Micro iterations      ....    16
   Max. Number of Macro iterations      .... Maxiter - #DIIS iter
   Number of Davidson start vectors     ....     2
   Converg. threshold I  (grad. norm)   ....   1.000e-05
   Converg. threshold II (energy diff.) ....   1.000e-08
   Grad. Scal. Fac. for Micro threshold ....   0.100
   Minimum threshold for Micro iter.    ....   0.010
   NR start threshold (gradient norm)   ....   0.001
   Initial trust radius                 ....   0.400
   Minimum AH scaling param. (alpha)    ....   1.000
   Maximum AH scaling param. (alpha)    .... 1000.000
   Orbital update algorithm             .... Taylor
   White noise on init. David. guess    .... on
   Maximum white noise                  ....   0.010
   Quad. conv. algorithm                .... NR
 SOSCF                  CNVSOSCF        .... on
   Start iteration      SOSCFMaxIt      ....   150
   Startup grad/error   SOSCFStart      ....  0.003300
 Level Shifting         CNVShift        .... on
   Level shift para.    LevelShift      ....    0.2500
   Turn off err/grad.   ShiftErr        ....    0.0010
 Zerner damping         CNVZerner       .... off
 Static damping         CNVDamp         .... on
   Fraction old density DampFac         ....    0.7000
   Max. Damping (<1)    DampMax         ....    0.9800
   Min. Damping (>=0)   DampMin         ....    0.0000
   Turn off err/grad.   DampErr         ....    0.1000
 Fernandez-Rico         CNVRico         .... off

SCF Procedure:
 Maximum # iterations   MaxIter         ....   125
 SCF integral mode      SCFMode         .... Direct
   Integral package                     .... SHARK and LIBINT hybrid scheme
 Reset frequency        DirectResetFreq ....    20
 Integral Threshold     Thresh          ....  2.500e-11 Eh
 Primitive CutOff       TCut            ....  2.500e-12 Eh

Convergence Tolerance:
 Convergence Check Mode ConvCheckMode   .... Total+1el-Energy
 Convergence forced     ConvForced      .... 0
 Energy Change          TolE            ....  1.000e-08 Eh
 1-El. energy change                    ....  1.000e-05 Eh
 Orbital Gradient       TolG            ....  1.000e-05
 Orbital Rotation angle TolX            ....  1.000e-05
 DIIS Error             TolErr          ....  5.000e-07


Diagonalization of the overlap matrix:
Smallest eigenvalue                        ... 4.676e-07
Time for diagonalization                   ...    0.407 sec
Threshold for overlap eigenvalues          ... 1.000e-08
Number of eigenvalues below threshold      ... 0
Time for construction of square roots      ...    0.291 sec
Total time needed                          ...    0.708 sec

Time for model grid setup =    1.364 sec

------------------------------
INITIAL GUESS: MODEL POTENTIAL
------------------------------
Loading Hartree-Fock densities                     ... done
Calculating cut-offs                               ... done
Initializing the effective Hamiltonian             ... done
Setting up the integral package (SHARK)            ... done
Starting the Coulomb interaction                   ... done (   3.6 sec)
Reading the grid                                   ... done
Mapping shells                                     ... done
Starting the XC term evaluation                    ... done (   2.8 sec)
  promolecular density results
     # of electrons  =    151.988811985
     EX              =   -124.803285565
     EC              =     -5.107692354
     EX+EC           =   -129.910977919
Transforming the Hamiltonian                       ... done (   0.3 sec)
Diagonalizing the Hamiltonian                      ... done (   0.4 sec)
Back transforming the eigenvectors                 ... done (   0.1 sec)
Now organizing SCF variables                       ... done
                      ------------------
                      INITIAL GUESS DONE (   8.6 sec)
                      ------------------
-------------------
DFT GRID GENERATION
-------------------

General Integration Accuracy     IntAcc      ... 4.388
Radial Grid Type                 RadialGrid  ... OptM3 with GC (2021)
Angular Grid (max. ang.)         AngularGrid ... 4 (Lebedev-302)
Angular grid pruning method      GridPruning ... 4 (adaptive)
Weight generation scheme         WeightScheme... Becke
Basis function cutoff            BFCut       ... 1.0000e-11
Integration weight cutoff        WCut        ... 1.0000e-14
Angular grids for H and He will be reduced by one unit
Partially contracted basis set               ... off
Rotationally invariant grid construction     ... off

Total number of grid points                  ...   188569
Total number of batches                      ...     2965
Average number of points per batch           ...       63
Average number of grid points per atom       ...     4835
Time for grid setup =    3.949 sec

--------------------
COSX GRID GENERATION
--------------------

GRIDX 1
-------
General Integration Accuracy     IntAcc      ... 3.816
Radial Grid Type                 RadialGrid  ... OptM3 with GC (2021)
Angular Grid (max. ang.)         AngularGrid ... 1 (Lebedev-50)
Angular grid pruning method      GridPruning ... 4 (adaptive)
Weight generation scheme         WeightScheme... Becke
Basis function cutoff            BFCut       ... 1.0000e-11
Integration weight cutoff        WCut        ... 1.0000e-14
Angular grids for H and He will be reduced by one unit
Partially contracted basis set               ... on
Rotationally invariant grid construction     ... off

Total number of grid points                  ...    24037
Total number of batches                      ...      397
Average number of points per batch           ...       60
Average number of grid points per atom       ...      616
UseSFitting                                  ... on

GRIDX 2
-------
General Integration Accuracy     IntAcc      ... 4.020
Radial Grid Type                 RadialGrid  ... OptM3 with GC (2021)
Angular Grid (max. ang.)         AngularGrid ... 2 (Lebedev-110)
Angular grid pruning method      GridPruning ... 4 (adaptive)
Weight generation scheme         WeightScheme... Becke
Basis function cutoff            BFCut       ... 1.0000e-11
Integration weight cutoff        WCut        ... 1.0000e-14
Angular grids for H and He will be reduced by one unit
Partially contracted basis set               ... on
Rotationally invariant grid construction     ... off

Total number of grid points                  ...    56365
Total number of batches                      ...      898
Average number of points per batch           ...       62
Average number of grid points per atom       ...     1445
UseSFitting                                  ... on

GRIDX 3
-------
General Integration Accuracy     IntAcc      ... 4.338
Radial Grid Type                 RadialGrid  ... OptM3 with GC (2021)
Angular Grid (max. ang.)         AngularGrid ... 3 (Lebedev-194)
Angular grid pruning method      GridPruning ... 4 (adaptive)
Weight generation scheme         WeightScheme... Becke
Basis function cutoff            BFCut       ... 1.0000e-11
Integration weight cutoff        WCut        ... 1.0000e-14
Angular grids for H and He will be reduced by one unit
Partially contracted basis set               ... on
Rotationally invariant grid construction     ... off

Total number of grid points                  ...   121431
Total number of batches                      ...     1920
Average number of points per batch           ...       63
Average number of grid points per atom       ...     3114
UseSFitting                                  ... on

Time for X-Grid setup             =   10.245 sec


--------------------
CPCM SOLVATION MODEL
--------------------
CPCM parameters:
  Epsilon                                         ...      24.8520
  Refrac                                          ...       1.3611
  Rsolv                                           ...       1.3000
  Surface type                                    ... GAUSSIAN VDW
  Epsilon function type                           ...         CPCM
Solvent:                                     ... ETHANOL
SMD-CDS solvent descriptors:
  Soln                                       ...    1.3611
  Soln25                                     ...    1.3593
  Sola                                       ...    0.3700
  Solb                                       ...    0.4800
  Solg                                       ...   31.6200
  Solc                                       ...    0.0000
  Solh                                       ...    0.0000
Radii:
 Radius for C  used is    3.4960 Bohr (=   1.8500 Ang.)
 Radius for O  used is    3.0765 Bohr (=   1.6280 Ang.)
 Radius for N  used is    3.5716 Bohr (=   1.8900 Ang.)
 Radius for H  used is    2.2677 Bohr (=   1.2000 Ang.)
Calculating surface                               ...        done! (  0.0s)
GEPOL surface points                              ...         2295
GEPOL Volume                                      ...    1960.9262
GEPOL Surface-area                                ...    1146.7923
Calculating surface distance matrix               ...        done! (  0.1s)
Performing Cholesky decomposition & store         ...        done! (  0.4s)
Overall time for CPCM initialization              ...                 0.5s
 re-compute Schwartz prescreening matrix in partically contracted basis (1) ...done (   0.276 sec)
--------------
SCF ITERATIONS
--------------
ITER       Energy         Delta-E        Max-DP      RMS-DP      [F,P]     Damp
               ***  Starting incremental Fock matrix formation  ***
  0   -954.5181847599   0.000000000000 0.17445151  0.00078016  0.2920665 0.7000
  1   -954.7481383072  -0.229953547302 0.14690626  0.00061439  0.1200314 0.7000
                               ***Turning on DIIS***
  2   -954.8455707808  -0.097432473630 0.33371186  0.00138174  0.0395839 0.0000
  3   -954.9981618105  -0.152591029712 0.03874077  0.00028317  0.0651983 0.0000
  4   -955.0288273676  -0.030665557031 0.01642244  0.00011815  0.0141148 0.0000
  5   -955.0303796801  -0.001552312492 0.00824110  0.00005165  0.0084567 0.0000
                      *** Initiating the SOSCF procedure ***
                           *** Shutting down DIIS ***
                      *** Re-Reading the Fockian *** 
                      *** Removing any level shift *** 
ITER      Energy       Delta-E        Grad      Rot      Max-DP    RMS-DP
  6   -955.03054974  -0.0001700595  0.000196  0.000196  0.005661  0.000025
               *** Restarting incremental Fock matrix formation ***
  7   -955.03058300  -0.0000332648  0.000141  0.000782  0.024784  0.000297
  8   -955.03058298   0.0000000254  0.000294  0.000360  0.004311  0.000058
  9   -955.03058672  -0.0000037431  0.000040  0.000070  0.004627  0.000064
 10   -955.03058669   0.0000000276  0.000034  0.000035  0.001777  0.000011
 11   -955.03058686  -0.0000001703  0.000005  0.000016  0.012282  0.000034
 12   -955.03058685   0.0000000116  0.000005  0.000011  0.005913  0.000018
                  ***Gradient check signals convergence***
              ***Rediagonalizing the Fockian in SOSCF/NRSCF***

               *****************************************************
               *                     SUCCESS                       *
               *           SCF CONVERGED AFTER  13 CYCLES          *
               *****************************************************

Old exchange energy                            =    -31.853189677 Eh
New exchange energy                            =    -31.853210184 Eh
Exchange energy change after final integration =     -0.000020508 Eh
Total energy after final integration           =   -955.030607382 Eh
Final COS-X integration done in                =   181.612 sec

SMD CDS free energy correction energy :                 0.87598     Kcal/mol
Total Energy after SMD CDS correction =              -955.029211415 Eh

----------------
TOTAL SCF ENERGY
----------------

Total Energy       :         -955.02921142 Eh          -25987.66603 eV

Components:
Nuclear Repulsion  :         1526.75110531 Eh           41545.00968 eV
Electronic Energy  :        -2481.78031673 Eh          -67532.67571 eV
One Electron Energy:        -4330.74047082 Eh         -117845.43936 eV
Two Electron Energy:         1848.96015410 Eh           50312.76364 eV
Max COSX asymmetry :            0.00003672 Eh               0.00100 eV
CPCM Dielectric    :           -0.03967501 Eh              -1.07961 eV
SMD CDS (Gcds)     :            0.00139597 Eh               0.03799 eV

Virial components:
Potential Energy   :        -1904.60473622 Eh          -51826.92970 eV
Kinetic Energy     :          949.57552480 Eh           25839.26367 eV
Virial Ratio       :            2.00574329


DFT components:
N(Alpha)           :       76.000033113399 electrons
N(Beta)            :       76.000033113399 electrons
N(Total)           :      152.000066226798 electrons
E(X)               :      -95.322750774604 Eh       
E(C)               :       -5.110320801202 Eh       
E(XC)              :     -100.433071575806 Eh       
DFET-embed. en.    :        0.000000000000 Eh       
CPCM Solvation Model Properties:
Surface-charge          :           -0.06713559
Charge-correction       :            0.00004264 Eh               0.00116 eV
Free-energy (cav+disp)  :            0.00139597 Eh               0.03799 eV

---------------
SCF CONVERGENCE
---------------

  Last Energy change         ...   -2.1782e-08  Tolerance :   1.0000e-08
  Last MAX-Density change    ...    3.9968e-15  Tolerance :   1.0000e-07
  Last RMS-Density change    ...    1.2356e-17  Tolerance :   5.0000e-09
  Last Orbital Gradient      ...    8.0585e-07  Tolerance :   1.0000e-05
  Last Orbital Rotation      ...    3.4669e-06  Tolerance :   1.0000e-05

             **** THE GBW FILE WAS UPDATED (optpbed3-b2plyp-test-191.gbw) ****
             **** DENSITY optpbed3-b2plyp-test-191.scfp WAS UPDATED ****
             **** ENERGY FILE WAS UPDATED (optpbed3-b2plyp-test-191.en.tmp) ****
             **** THE GBW FILE WAS UPDATED (optpbed3-b2plyp-test-191.gbw) ****
             **** DENSITY optpbed3-b2plyp-test-191.scfp WAS UPDATED ****
----------------
ORBITAL ENERGIES
----------------

  NO   OCC          E(Eh)            E(eV) 
   0   2.0000     -19.269545      -524.3510 
   1   2.0000     -19.213990      -522.8392 
   2   2.0000     -19.185933      -522.0758 
   3   2.0000     -14.413436      -392.2095 
   4   2.0000     -14.395320      -391.7166 
   5   2.0000     -10.367221      -282.1064 
   6   2.0000     -10.330688      -281.1123 
   7   2.0000     -10.270651      -279.4786 
   8   2.0000     -10.270614      -279.4776 
   9   2.0000     -10.269779      -279.4549 
  10   2.0000     -10.252767      -278.9920 
  11   2.0000     -10.237575      -278.5786 
  12   2.0000     -10.236332      -278.5448 
  13   2.0000     -10.228877      -278.3419 
  14   2.0000     -10.226174      -278.2684 
  15   2.0000     -10.225420      -278.2478 
  16   2.0000     -10.224837      -278.2320 
  17   2.0000     -10.224373      -278.2193 
  18   2.0000     -10.222902      -278.1793 
  19   2.0000     -10.213807      -277.9318 
  20   2.0000     -10.212367      -277.8926 
  21   2.0000      -1.156748       -31.4767 
  22   2.0000      -1.085940       -29.5499 
  23   2.0000      -1.068649       -29.0794 
  24   2.0000      -0.969648       -26.3855 
  25   2.0000      -0.958191       -26.0737 
  26   2.0000      -0.898179       -24.4407 
  27   2.0000      -0.846588       -23.0368 
  28   2.0000      -0.810906       -22.0659 
  29   2.0000      -0.793333       -21.5877 
  30   2.0000      -0.772851       -21.0303 
  31   2.0000      -0.765953       -20.8426 
  32   2.0000      -0.738849       -20.1051 
  33   2.0000      -0.720603       -19.6086 
  34   2.0000      -0.667078       -18.1521 
  35   2.0000      -0.643074       -17.4989 
  36   2.0000      -0.633819       -17.2471 
[...]
   (ab|v) reading and digestion   ...   786.01 sec
   Final sigma-completion         ...     0.01 sec
   Done building sigma-vectors             Size of expansion space: 40
   Lowest Energy          :     0.155376401243
   Maximum Energy change  :     0.000038703513 (vector 8)
   Maximum residual norm  :     0.000005175522

                       ****Iteration    8****
              <<< Entering MO-section for Build Sigma(Double) >>>
   Forming the XC and CPCM contribution:
   Time for densities:            0.364
   Time for XC-Integration:      24.422
   Time for LR-CPCM terms:       15.121
   Time for Sigma-Completion:     0.266
   Time for building 10 sigma-vectors
   Data Preparation Phase         ...     0.01 sec
   Transformed RI Coulomb         ...     1.32 sec
   Transformed RI-exchange        ...   815.94 sec
   (ab|v) reading and digestion   ...   780.56 sec
   Final sigma-completion         ...     0.01 sec
   Done building sigma-vectors             Size of expansion space: 50
   Lowest Energy          :     0.155376400856
   Maximum Energy change  :     0.000020242545 (vector 8)
   Maximum residual norm  :     0.000004335342

                       ****Iteration    9****
              <<< Entering MO-section for Build Sigma(Double) >>>
   Forming the XC and CPCM contribution:
   Time for densities:            0.380
   Time for XC-Integration:      25.407
   Time for LR-CPCM terms:       15.278
   Time for Sigma-Completion:     0.281
   Time for building 10 sigma-vectors
   Data Preparation Phase         ...     0.01 sec
   Transformed RI Coulomb         ...     1.31 sec
   Transformed RI-exchange        ...   823.88 sec
   (ab|v) reading and digestion   ...   790.34 sec
   Final sigma-completion         ...     0.01 sec
   Done building sigma-vectors             Size of expansion space: 60
   Lowest Energy          :     0.155376400822
   Maximum Energy change  :     0.000011006565 (vector 8)
   Maximum residual norm  :     0.000001752863

                       ****Iteration   10****
              <<< Entering MO-section for Build Sigma(Double) >>>
   Forming the XC and CPCM contribution:
   Time for densities:            0.377
   Time for XC-Integration:      25.660
   Time for LR-CPCM terms:       15.261
   Time for Sigma-Completion:     0.303
   Time for building 10 sigma-vectors
   Data Preparation Phase         ...     0.01 sec
   Transformed RI Coulomb         ...     1.33 sec
   Transformed RI-exchange        ...   823.76 sec
   (ab|v) reading and digestion   ...   790.52 sec
   Final sigma-completion         ...     0.01 sec
   Done building sigma-vectors             Size of expansion space: 70
   Lowest Energy          :     0.155376400820
   Maximum Energy change  :     0.000005305811 (vector 9)
   Maximum residual norm  :     0.000000583168

      *** CONVERGENCE OF RESIDUAL NORM REACHED ***

Storing the converged CI vectors               ... optpbed3-b2plyp-test-191_job2.cis1

                 *** DAVIDSON DONE ***

Total time for solving the CIS problem:  9817.140sec

------------------
DOUBLES CORRECTION (Double precision version)
------------------

The (D) correction will be scaled by  0.2700
Doing v(i,a)*T(i,a) terms (RI)                    ... ok
Doing u(i,j,a,b) terms for state   0              ... ok
Doing u(i,j,a,b) terms for state   1              ... ok
Doing u(i,j,a,b) terms for state   2              ... ok
Doing u(i,j,a,b) terms for state   3              ... ok
Doing u(i,j,a,b) terms for state   4              ... ok
Doing u(i,j,a,b) terms for state   5              ... ok
Doing u(i,j,a,b) terms for state   6              ... ok
Doing u(i,j,a,b) terms for state   7              ... ok
Doing u(i,j,a,b) terms for state   8              ... ok
Doing u(i,j,a,b) terms for state   9              ... ok

Contributions to the (D) correction(s) (in eV)

STATE  Final   Init.   Total   v(ext)   v(int)  v(3)    u
       omega   omega     (D)                             
-----------------------------------------------------------------------------
   0   3.836   4.228  -0.392   0.527   0.960  -0.062  -1.816
   1   4.116   4.532  -0.415   0.540   0.962  -0.045  -1.872
   2   4.653   4.857  -0.204   0.042   0.963  -0.002  -1.207
   3   4.980   5.224  -0.244   0.042   0.958  -0.002  -1.243
   4   5.149   5.399  -0.250   0.038   0.960  -0.002  -1.247
   5   5.236   5.480  -0.243   0.071   0.961  -0.005  -1.270
   6   5.312   5.655  -0.342   0.220   0.951  -0.029  -1.485
   7   5.429   5.719  -0.290   0.164   0.954  -0.023  -1.386
   8   5.376   5.786  -0.410   0.352   0.925  -0.051  -1.636
   9   5.569   5.846  -0.276   0.089   0.953  -0.008  -1.309

(D)-timings
 V(i,a)*T(i,a) terms           ...  1097.060 sec
 U(i,j,a,b) 3-internal         ...    22.200 sec
 U(i,j,a,b) 3-external         ...   637.255 sec
 U(i,j,a,b) pair terms         ...   514.519 sec
 Total measured time           ...  4816.520 sec

 Time for (ab|v) I/O           ...   134.137 sec


------------------------------------
TD-DFT/TDA EXCITED STATES (SINGLETS)
------------------------------------

the weight of the individual excitations are printed if larger than 1.0e-02

STATE  1:  E=   0.140984 au      3.836 eV    30942.3 cm**-1 <S**2> =   0.000000
    74a ->  80a  :     0.019221 (c=  0.13863890)
    74a ->  81a  :     0.014511 (c=  0.12046002)
    75a ->  76a  :     0.928186 (c= -0.96342433)

STATE  2:  E=   0.151276 au      4.116 eV    33201.3 cm**-1 <S**2> =   0.000000
    74a ->  76a  :     0.193564 (c= -0.43995854)
    75a ->  80a  :     0.431153 (c= -0.65662272)
    75a ->  81a  :     0.300687 (c= -0.54834973)
    75a ->  82a  :     0.015746 (c= -0.12548353)

STATE  3:  E=   0.170983 au      4.653 eV    37526.5 cm**-1 <S**2> =   0.000000
    75a ->  77a  :     0.403970 (c= -0.63558641)
    75a ->  78a  :     0.402946 (c= -0.63478061)
    75a ->  79a  :     0.017428 (c=  0.13201653)
    75a ->  83a  :     0.038715 (c= -0.19676024)
    75a ->  84a  :     0.014030 (c=  0.11844660)
    75a ->  85a  :     0.022448 (c=  0.14982804)
    75a ->  87a  :     0.030507 (c= -0.17466337)

STATE  4:  E=   0.183011 au      4.980 eV    40166.2 cm**-1 <S**2> =   0.000000
    75a ->  77a  :     0.025822 (c= -0.16069085)
    75a ->  79a  :     0.854996 (c= -0.92465983)
    75a ->  80a  :     0.023578 (c=  0.15355242)

STATE  5:  E=   0.189219 au      5.149 eV    41528.7 cm**-1 <S**2> =   0.000000
    73a ->  77a  :     0.010225 (c=  0.10111715)
    75a ->  77a  :     0.055545 (c= -0.23568040)
    75a ->  78a  :     0.183903 (c=  0.42883874)
    75a ->  79a  :     0.030739 (c=  0.17532547)
    75a ->  80a  :     0.253453 (c=  0.50344139)
    75a ->  81a  :     0.236946 (c= -0.48677112)
    75a ->  82a  :     0.016311 (c= -0.12771330)
    75a ->  83a  :     0.074562 (c= -0.27306117)
    75a ->  84a  :     0.035819 (c=  0.18926008)
    75a ->  85a  :     0.028754 (c= -0.16957045)
    75a ->  91a  :     0.010247 (c= -0.10122918)

STATE  6:  E=   0.192424 au      5.236 eV    42232.1 cm**-1 <S**2> =   0.000000
    75a ->  77a  :     0.056097 (c= -0.23684736)
    75a ->  78a  :     0.051031 (c=  0.22590067)
    75a ->  81a  :     0.023260 (c= -0.15251246)
    75a ->  82a  :     0.519155 (c=  0.72052430)
    75a ->  83a  :     0.047833 (c=  0.21870788)
    75a ->  85a  :     0.012356 (c=  0.11115668)
    75a ->  86a  :     0.141426 (c= -0.37606694)
    75a ->  87a  :     0.031732 (c= -0.17813561)
    75a ->  88a  :     0.045110 (c=  0.21239019)

STATE  7:  E=   0.195225 au      5.312 eV    42846.9 cm**-1 <S**2> =   0.000000
    73a ->  80a  :     0.015594 (c= -0.12487677)
    73a ->  81a  :     0.019387 (c= -0.13923649)
    74a ->  76a  :     0.136353 (c= -0.36926069)
    75a ->  77a  :     0.115921 (c=  0.34047128)
    75a ->  80a  :     0.050864 (c=  0.22552966)
    75a ->  81a  :     0.011105 (c=  0.10537802)
    75a ->  83a  :     0.022131 (c= -0.14876432)
    75a ->  84a  :     0.020176 (c=  0.14204255)
    75a ->  85a  :     0.057954 (c=  0.24073731)
    75a ->  87a  :     0.220623 (c= -0.46970480)
    75a ->  90a  :     0.194649 (c= -0.44119029)
    75a ->  93a  :     0.029450 (c= -0.17161027)
    75a ->  96a  :     0.010409 (c= -0.10202224)

STATE  8:  E=   0.199510 au      5.429 eV    43787.5 cm**-1 <S**2> =   0.000000
    73a ->  80a  :     0.023865 (c= -0.15448238)
    74a ->  76a  :     0.134434 (c= -0.36665294)
    75a ->  77a  :     0.059364 (c= -0.24364828)
    75a ->  80a  :     0.017001 (c=  0.13038891)
    75a ->  81a  :     0.030072 (c=  0.17341201)
    75a ->  82a  :     0.032741 (c= -0.18094441)
    75a ->  84a  :     0.097469 (c= -0.31219973)
    75a ->  85a  :     0.026772 (c= -0.16362210)
    75a ->  86a  :     0.073160 (c= -0.27048029)
    75a ->  87a  :     0.136431 (c=  0.36936529)
    75a ->  88a  :     0.226761 (c=  0.47619455)
    75a ->  89a  :     0.010942 (c=  0.10460492)
    75a ->  90a  :     0.013475 (c= -0.11608032)
    75a ->  93a  :     0.014873 (c= -0.12195504)

STATE  9:  E=   0.197546 au      5.376 eV    43356.3 cm**-1 <S**2> =   0.000000
    73a ->  76a  :     0.172153 (c= -0.41491310)
    73a ->  80a  :     0.019570 (c= -0.13989122)
    73a ->  81a  :     0.016147 (c= -0.12706968)
    74a ->  76a  :     0.231894 (c= -0.48155365)
    75a ->  77a  :     0.011151 (c= -0.10559897)
    75a ->  80a  :     0.012418 (c=  0.11143459)
    75a ->  81a  :     0.045530 (c=  0.21337743)
    75a ->  82a  :     0.033498 (c=  0.18302400)
    75a ->  83a  :     0.091991 (c=  0.30329953)
    75a ->  84a  :     0.028405 (c=  0.16853785)
    75a ->  85a  :     0.022367 (c= -0.14955590)
    75a ->  86a  :     0.021216 (c=  0.14565865)
    75a ->  88a  :     0.086119 (c= -0.29346115)
    75a ->  90a  :     0.061719 (c=  0.24843381)
    75a ->  93a  :     0.018365 (c=  0.13551914)

STATE 10:  E=   0.204674 au      5.569 eV    44920.8 cm**-1 <S**2> =   0.000000
    73a ->  76a  :     0.054989 (c= -0.23449814)
    74a ->  76a  :     0.013518 (c= -0.11626800)
    75a ->  77a  :     0.014669 (c=  0.12111495)
    75a ->  82a  :     0.077770 (c=  0.27887187)
    75a ->  83a  :     0.273332 (c= -0.52281169)
    75a ->  84a  :     0.144911 (c= -0.38067126)
    75a ->  85a  :     0.191728 (c=  0.43786699)
    75a ->  86a  :     0.023451 (c=  0.15313722)
    75a ->  87a  :     0.068235 (c=  0.26121907)
    75a ->  90a  :     0.024647 (c=  0.15699409)
    75a ->  93a  :     0.014504 (c=  0.12043459)
    75a ->  97a  :     0.010298 (c= -0.10147887)


-----------------------------
TD-DFT/TDA-EXCITATION SPECTRA
-----------------------------

Center of mass = (  0.0312, -0.0748, -0.2259)
Calculating the Dipole integrals                  ... done
Transforming integrals                            ... done
Calculating the Linear Momentum integrals         ... done
Transforming integrals                            ... done
Calculating angular momentum integrals            ... done
Transforming integrals                            ... done

-----------------------------------------------------------------------------
         ABSORPTION SPECTRUM VIA TRANSITION ELECTRIC DIPOLE MOMENTS
-----------------------------------------------------------------------------
State   Energy    Wavelength  fosc         T2        TX        TY        TZ  
        (cm-1)      (nm)                 (au**2)    (au)      (au)      (au) 
-----------------------------------------------------------------------------
   1   30942.3    323.2   0.216072975   2.29891   1.36802  -0.27459   0.59332
   2   33201.3    301.2   0.105635749   1.04745   0.53111  -0.39367  -0.78127
   3   37526.5    266.5   0.002476508   0.02173  -0.03912  -0.13731   0.03662
   4   40166.2    249.0   0.001063406   0.00872  -0.05178  -0.07181   0.02965
   5   41528.7    240.8   0.010311830   0.08175  -0.22766   0.16798   0.04122
   6   42232.1    236.8   0.035549459   0.27712   0.50729  -0.13129  -0.05036
   7   42846.9    233.4   0.197406582   1.51676  -0.22438   0.52033   1.09347
   8   43787.5    228.4   0.218785093   1.64491  -0.63841   0.45226   1.01627
   9   43356.3    230.6   0.418726502   3.17946  -1.26768   0.72077   1.02613
  10   44920.8    222.6   0.038427288   0.28162  -0.48136  -0.03525   0.22063

-----------------------------------------------------------------------------
         ABSORPTION SPECTRUM VIA TRANSITION VELOCITY DIPOLE MOMENTS
-----------------------------------------------------------------------------
State   Energy    Wavelength   fosc        P2         PX        PY        PZ  
        (cm-1)      (nm)                 (au**2)     (au)      (au)      (au) 
-----------------------------------------------------------------------------
   1   30942.3    323.2   0.048144022   0.01018  -0.09536   0.01087   0.03112
   2   33201.3    301.2   0.017520859   0.00398  -0.05295   0.02042   0.02748
   3   37526.5    266.5   0.003568962   0.00092   0.00527   0.02607  -0.01442
   4   40166.2    249.0   0.001439447   0.00040   0.00940   0.01494  -0.00914
   5   41528.7    240.8   0.005865565   0.00166   0.03366  -0.02173  -0.00772
   6   42232.1    236.8   0.023155363   0.00668  -0.07971   0.01051   0.01480
   7   42846.9    233.4   0.041934676   0.01228  -0.00582  -0.05111  -0.09815
   8   43787.5    228.4   0.053748855   0.01609   0.08032  -0.04833  -0.08543
   9   43356.3    230.6   0.189375871   0.05612   0.20920  -0.07254  -0.08419
  10   44920.8    222.6   0.030993917   0.00952   0.09112   0.02723  -0.02172

-------------------------------------------------------------------
                             CD SPECTRUM
-------------------------------------------------------------------
State  Energy     Wavelength     R         MX        MY        MZ   
       (cm-1)       (nm)     (1e40*cgs)   (au)      (au)      (au)  
-------------------------------------------------------------------
   1   30942.3    323.2     34.94521  -0.00824  -0.04301   0.12402
   2   33201.3    301.2    -17.08026  -0.12013  -0.42427   0.17849
   3   37526.5    266.5      1.49836   0.04942  -0.00446   0.12285
   4   40166.2    249.0     -3.14730   0.23103  -0.07645  -0.00686
   5   41528.7    240.8      5.89467   0.03911   0.11707   0.04228
   6   42232.1    236.8     -6.04817  -0.07122  -0.23815   0.15818
   7   42846.9    233.4     36.64485  -0.03209   0.30352  -0.07993
   8   43787.5    228.4    -10.80454  -0.05192   0.40114  -0.23368
   9   43356.3    230.6    -135.13517   0.21921   0.77786  -0.55492
  10   44920.8    222.6     -2.70508  -0.02322   0.34573  -0.02142

-------------------------------------------------------------------
         CD SPECTRUM VIA TRANSITION VELOCITY DIPOLE MOMENTS        
-------------------------------------------------------------------
State  Energy     Wavelength     R         MX        MY        MZ   
       (cm-1)       (nm)     (1e40*cgs)   (au)      (au)      (au)  
-------------------------------------------------------------------
   1   30942.3    323.2     13.97326  -0.00824  -0.04301   0.12402
   2   33201.3    301.2      8.11464  -0.12013  -0.42427   0.17849
   3   37526.5    266.5     -4.48629   0.04942  -0.00446   0.12285
   4   40166.2    249.0      2.81567   0.23103  -0.07645  -0.00686
   5   41528.7    240.8     -3.87201   0.03911   0.11707   0.04228
   6   42232.1    236.8     13.51033  -0.07122  -0.23815   0.15818
   7   42846.9    233.4    -18.06228  -0.03209   0.30352  -0.07993
   8   43787.5    228.4     -8.49500  -0.05192   0.40114  -0.23368
   9   43356.3    230.6     86.27705   0.21921   0.77786  -0.55492
  10   44920.8    222.6     17.88679  -0.02322   0.34573  -0.02142

Total run time:    14644.853 sec

           *** ORCA-CIS/TD-DFT FINISHED WITHOUT ERROR ***

Maximum memory used throughout the entire CIS-calculation: 1777.8 MB

-----------------------
CIS/TD-DFT TOTAL ENERGY
-----------------------

    E(SCF)  =   -954.158862738 Eh
    DE(CIS) =      0.140983686 Eh (Root  1)
    ----------------------------- ---------
    E(tot)  =   -954.017879052 Eh



-------------------------------------------------------------------------------
                          DFT DISPERSION CORRECTION                            
                                                                               
                              DFTD3 V3.1  Rev 1                                
                          USING Becke-Johnson damping                          
-------------------------------------------------------------------------------
The B2PLYP functional is recognized
Active option DFTDOPT                   ...         4   

molecular C6(AA) [au] = 16073.440728 


            DFT-D V3
 parameters
 s6 scaling factor         :     0.6400 
 a1 scaling factor         :     0.3065 
 s8 scaling factor         :     0.9147 
 a2 scaling factor         :     5.0570 
 ad hoc parameters k1-k3   :    16.0000     1.3333    -4.0000 

 Edisp/kcal,au: -22.247720214968  -0.035453995137 
 E6   /kcal   : -12.704080141 
 E8   /kcal   :  -9.543640074 
 % E8         :  42.897159715 

-------------------------   ----------------
Dispersion correction           -0.035453995
-------------------------   ----------------


-------------------------   --------------------
FINAL SINGLE POINT ENERGY      -954.053333046658
-------------------------   --------------------


                            ***************************************
                            *     ORCA property calculations      *
                            ***************************************


  WARNING: The energy has been calculated at the MP2 level but the densities
           used in the property calculations are still SCF densities
           MP2 response densities have not been calculated 
           use %mp2 Density relaxed end
           or  %mp2 Density unrelaxed end

                                    ---------------------
                                    Active property flags
                                    ---------------------
   (+) Dipole Moment


------------------------------------------------------------------------------
                       ORCA ELECTRIC PROPERTIES CALCULATION
------------------------------------------------------------------------------

Dipole Moment Calculation                       ... on
Quadrupole Moment Calculation                   ... off
Polarizability Calculation                      ... off
GBWName                                         ... optpbed3-b2plyp-test-191_job2.gbw
Electron density                                ... optpbed3-b2plyp-test-191_job2.scfp
The origin for moment calculation is the CENTER OF MASS  = ( 0.031179, -0.074849 -0.225865)

-------------
DIPOLE MOMENT
-------------
                                X             Y             Z
Electronic contribution:     -2.77250      -0.42571      -0.41215
Nuclear contribution   :      4.62372       1.66819       1.77080
                        -----------------------------------------
Total Dipole Moment    :      1.85121       1.24248       1.35865
                        -----------------------------------------
Magnitude (a.u.)       :      2.61088
Magnitude (Debye)      :      6.63632



--------------------
Rotational spectrum 
--------------------
 
Rotational constants in cm-1:     0.030183     0.003019     0.002848 
Rotational constants in MHz :   904.861699    90.510854    85.380068 

 Dipole components along the rotational axes: 
x,y,z [a.u.] :    -1.813191     1.867013     0.208047 
x,y,z [Debye]:    -4.608765     4.745571     0.528813 

 

Timings for individual modules:

Sum of individual times         ...    17768.799 sec (= 296.147 min)
GTO integral calculation        ...        6.171 sec (=   0.103 min)   0.0 %
SCF iterations                  ...     1159.112 sec (=  19.319 min)   6.5 %
MP2 module                      ...     1957.234 sec (=  32.621 min)  11.0 %
CIS module                      ...    14646.282 sec (= 244.105 min)  82.4 %



                             ****ORCA TERMINATED NORMALLY****
TOTAL RUN TIME: 0 days 17 hours 35 minutes 33 seconds 565 msec
