
                                 *****************
                                 * O   R   C   A *
                                 *****************

                                            #,                                       
                                            ###                                      
                                            ####                                     
                                            #####                                    
                                            ######                                   
                                           ########,                                 
                                     ,,################,,,,,                         
                               ,,#################################,,                 
                          ,,##########################################,,             
                       ,#########################################, ''#####,          
                    ,#############################################,,   '####,        
                  ,##################################################,,,,####,       
                ,###########''''           ''''###############################       
              ,#####''   ,,,,##########,,,,          '''####'''          '####       
            ,##' ,,,,###########################,,,                        '##       
           ' ,,###''''                  '''############,,,                           
         ,,##''                                '''############,,,,        ,,,,,,###''
      ,#''                                            '''#######################'''  
     '                                                          ''''####''''         
             ,#######,   #######,   ,#######,      ##                                
            ,#'     '#,  ##    ##  ,#'     '#,    #''#        ######   ,####,        
            ##       ##  ##   ,#'  ##            #'  '#       #        #'  '#        
            ##       ##  #######   ##           ,######,      #####,   #    #        
            '#,     ,#'  ##    ##  '#,     ,#' ,#      #,         ##   #,  ,#        
             '#######'   ##     ##  '#######'  #'      '#     #####' # '####'        



                  #######################################################
                  #                        -***-                        #
                  #          Department of theory and spectroscopy      #
                  #    Directorship and core code : Frank Neese         #
                  #        Max Planck Institute fuer Kohlenforschung    #
                  #                Kaiser Wilhelm Platz 1               #
                  #                 D-45470 Muelheim/Ruhr               #
                  #                      Germany                        #
                  #                                                     #
                  #                  All rights reserved                #
                  #                        -***-                        #
                  #######################################################


                         Program Version 5.0.2 -  RELEASE  -


 With contributions from (in alphabetic order):
   Daniel Aravena         : Magnetic Suceptibility
   Michael Atanasov       : Ab Initio Ligand Field Theory (pilot matlab implementation)
   Alexander A. Auer      : GIAO ZORA, VPT2 properties, NMR spectrum
   Ute Becker             : Parallelization
   Giovanni Bistoni       : ED, misc. LED, open-shell LED, HFLD
   Martin Brehm           : Molecular dynamics
   Dmytro Bykov           : SCF Hessian
   Vijay G. Chilkuri      : MRCI spin determinant printing, contributions to CSF-ICE
   Dipayan Datta          : RHF DLPNO-CCSD density
   Achintya Kumar Dutta   : EOM-CC, STEOM-CC
   Dmitry Ganyushin       : Spin-Orbit,Spin-Spin,Magnetic field MRCI
   Miquel Garcia          : C-PCM and meta-GGA Hessian, CC/C-PCM, Gaussian charge scheme
   Yang Guo               : DLPNO-NEVPT2, F12-NEVPT2, CIM, IAO-localization
   Andreas Hansen         : Spin unrestricted coupled pair/coupled cluster methods
   Benjamin Helmich-Paris : MC-RPA, TRAH-SCF, COSX integrals
   Lee Huntington         : MR-EOM, pCC
   Robert Izsak           : Overlap fitted RIJCOSX, COSX-SCS-MP3, EOM
   Marcus Kettner         : VPT2
   Christian Kollmar      : KDIIS, OOCD, Brueckner-CCSD(T), CCSD density, CASPT2, CASPT2-K
   Simone Kossmann        : Meta GGA functionals, TD-DFT gradient, OOMP2, MP2 Hessian
   Martin Krupicka        : Initial AUTO-CI
   Lucas Lang             : DCDCAS
   Marvin Lechner         : AUTO-CI (C++ implementation), FIC-MRCC
   Dagmar Lenk            : GEPOL surface, SMD
   Dimitrios Liakos       : Extrapolation schemes; Compound Job, initial MDCI parallelization
   Dimitrios Manganas     : Further ROCIS development; embedding schemes
   Dimitrios Pantazis     : SARC Basis sets
   Anastasios Papadopoulos: AUTO-CI, single reference methods and gradients
   Taras Petrenko         : DFT Hessian,TD-DFT gradient, ASA, ECA, R-Raman, ABS, FL, XAS/XES, NRVS
   Peter Pinski           : DLPNO-MP2, DLPNO-MP2 Gradient
   Christoph Reimann      : Effective Core Potentials
   Marius Retegan         : Local ZFS, SOC
   Christoph Riplinger    : Optimizer, TS searches, QM/MM, DLPNO-CCSD(T), (RO)-DLPNO pert. Triples
   Tobias Risthaus        : Range-separated hybrids, TD-DFT gradient, RPA, STAB
   Michael Roemelt        : Original ROCIS implementation
   Masaaki Saitow         : Open-shell DLPNO-CCSD energy and density
   Barbara Sandhoefer     : DKH picture change effects
   Avijit Sen             : IP-ROCIS
   Kantharuban Sivalingam : CASSCF convergence, NEVPT2, FIC-MRCI
   Bernardo de Souza      : ESD, SOC TD-DFT
   Georgi Stoychev        : AutoAux, RI-MP2 NMR, DLPNO-MP2 response
   Willem Van den Heuvel  : Paramagnetic NMR
   Boris Wezisla          : Elementary symmetry handling
   Frank Wennmohs         : Technical directorship


 We gratefully acknowledge several colleagues who have allowed us to
 interface, adapt or use parts of their codes:
   Stefan Grimme, W. Hujo, H. Kruse, P. Pracht,  : VdW corrections, initial TS optimization,
                  C. Bannwarth, S. Ehlert          DFT functionals, gCP, sTDA/sTD-DF
   Ed Valeev, F. Pavosevic, A. Kumar             : LibInt (2-el integral package), F12 methods
   Garnet Chan, S. Sharma, J. Yang, R. Olivares  : DMRG
   Ulf Ekstrom                                   : XCFun DFT Library
   Mihaly Kallay                                 : mrcc  (arbitrary order and MRCC methods)
   Jiri Pittner, Ondrej Demel                    : Mk-CCSD
   Frank Weinhold                                : gennbo (NPA and NBO analysis)
   Christopher J. Cramer and Donald G. Truhlar   : smd solvation model
   Lars Goerigk                                  : TD-DFT with DH, B97 family of functionals
   V. Asgeirsson, H. Jonsson                     : NEB implementation
   FAccTs GmbH                                   : IRC, NEB, NEB-TS, DLPNO-Multilevel, CI-OPT
                                                   MM, QMMM, 2- and 3-layer-ONIOM, Crystal-QMMM,
                                                   LR-CPCM, SF, NACMEs, symmetry and pop. for TD-DFT,
                                                   nearIR, NL-DFT gradient (VV10), updates on ESD,
                                                   ML-optimized integration grids
   S Lehtola, MJT Oliveira, MAL Marques          : LibXC Library
   Liviu Ungur et al                             : ANISO software


 Your calculation uses the libint2 library for the computation of 2-el integrals
 For citations please refer to: http://libint.valeyev.net

 Your ORCA version has been built with support for libXC version: 5.1.0
 For citations please refer to: https://tddft.org/programs/libxc/

 This ORCA versions uses:
   CBLAS   interface :  Fast vector & matrix operations
   LAPACKE interface :  Fast linear algebra routines
   SCALAPACK package :  Parallel linear algebra routines
   Shared memory     :  Shared parallel matrices
   BLAS/LAPACK       :  OpenBLAS 0.3.15  USE64BITINT DYNAMIC_ARCH NO_AFFINITY Haswell SINGLE_THREADED
        Core in use  :  Haswell
   Copyright (c) 2011-2014, The OpenBLAS Project


Your calculation utilizes the atom-pairwise dispersion correction
with the Becke-Johnson damping scheme (D3BJ)
Cite in your paper:
S.Grimme, S.Ehrlich, L.Goerigk, J Comput Chem, (2011), 32, 1456–1465 
S.Grimme, J.Antony, S.Ehrlich and H.Krieg, J.Chem.Phys., 132, (2010), 154104 
   

Your calculation utilizes the SMD solvation module
Please cite in your paper:
A.V. Marenich, C.J. Cramer, D.G. Truhlar J. Phys. Chem. B, 113, (2009), 6378 

================================================================================

----- Orbital basis set information -----
Your calculation utilizes the basis: aug-cc-pVTZ 
    H, B-Ne : Obtained from the ccRepo (grant-hill.group.shef.ac.uk/ccrepo) Feb. 2017
              R. A. Kendall, T. H. Dunning, Jr., R. J. Harrison, J. Chem. Phys. 96, 6796 (1992)
         He : Obtained from the ccRepo (grant-hill.group.shef.ac.uk/ccrepo) Feb. 2017
              D. E. Woon, T. H. Dunning, Jr., J. Chem. Phys. 100, 2975 (1994)
  Li-Be, Na : Obtained from the ccRepo (grant-hill.group.shef.ac.uk/ccrepo) Feb. 2017
              B. P. Prascher, D. E. Woon, K. A. Peterson, T. H. Dunning, Jr., A. K. Wilson, Theor. Chem. Acc. 128, 69 (2011)
         Mg : Obtained from the Peterson Research Group Website (tyr0.chem.wsu.edu/~kipeters) Feb. 2017
              B. P. Prascher, D. E. Woon, K. A. Peterson, T. H. Dunning, Jr., A. K. Wilson, Theor. Chem. Acc. 128, 69 (2011)
      Al-Ar : Obtained from the ccRepo (grant-hill.group.shef.ac.uk/ccrepo) Feb. 2017
              D. E. Woon, T. H. Dunning, Jr., J. Chem. Phys. 98, 1358 (1993)
      Sc-Zn : Obtained from the ccRepo (grant-hill.group.shef.ac.uk/ccrepo) Feb. 2017
              N. B. Balabanov, K. A. Peterson, J. Chem. Phys. 123, 064107 (2005)
              N. B. Balabanov, K. A. Peterson, J. Chem. Phys. 125, 074110 (2006)
      Ga-Kr : Obtained from the ccRepo (grant-hill.group.shef.ac.uk/ccrepo) Feb. 2017
              A. K. Wilson, D. E. Woon, K. A. Peterson, T. H. Dunning, Jr., J. Chem. Phys. 110, 7667 (1999)
     Ag, Au : Obtained from the Peterson Research Group Website (tyr0.chem.wsu.edu/~kipeters) Feb. 2017
              K. A. Peterson, C. Puzzarini, Theor. Chem. Acc. 114, 283 (2005)

The basis set includes element-specific modifications.

Your calculation utilizes the basis: cc-pVTZ 
       H, B-Ne : Obtained from the ccRepo (grant-hill.group.shef.ac.uk/ccrepo) Feb. 2017
                 T. H. Dunning, Jr., J. Chem. Phys. 90, 1007 (1989)
            He : Obtained from the ccRepo (grant-hill.group.shef.ac.uk/ccrepo) Feb. 2017
                 D. E. Woon, T. H. Dunning, Jr., J. Chem. Phys. 100, 2975 (1994)
  Li-Be, Na-Mg : Obtained from the ccRepo (grant-hill.group.shef.ac.uk/ccrepo) Feb. 2017
                 B. P. Prascher, D. E. Woon, K. A. Peterson, T. H. Dunning, Jr., A. K. Wilson, Theor. Chem. Acc. 128, 69 (2011)
         Al-Ar : Obtained from the ccRepo (grant-hill.group.shef.ac.uk/ccrepo) Feb. 2017
                 D. E. Woon, T. H. Dunning, Jr., J. Chem. Phys. 98, 1358 (1993)
            Ca : Obtained from the Peterson Research Group Website (tyr0.chem.wsu.edu/~kipeters) Feb. 2017
                 J. Koput, K. A. Peterson, J. Phys. Chem. 106, 9595 (2002)
         Sc-Zn : Obtained from the ccRepo (grant-hill.group.shef.ac.uk/ccrepo) Feb. 2017
                 N. B. Balabanov, K. A. Peterson, J. Chem. Phys. 123, 064107 (2005)
                 N. B. Balabanov, K. A. Peterson, J. Chem. Phys. 125, 074110 (2006)
         Ga-Kr : Obtained from the ccRepo (grant-hill.group.shef.ac.uk/ccrepo) Feb. 2017
                 A. K. Wilson, D. E. Woon, K. A. Peterson, T. H. Dunning, Jr., J. Chem. Phys. 110, 7667 (1999)
             Y : Obtained from the ccRepo (grant-hill.group.shef.ac.uk/ccrepo) Feb. 2017
                 K. A. Peterson, D. Figgen, M. Dolg, H. Stoll, J. Chem. Phys. 126, 124101 (2007)
        Ag, Au : Obtained from the Peterson Research Group Website (tyr0.chem.wsu.edu/~kipeters) Feb. 2017
                 K. A. Peterson, C. Puzzarini, Theor. Chem. Acc. 114, 283 (2005)

----- AuxJ basis set information -----
Your calculation utilizes the auxiliary basis: aug-cc-pVTZ/JK 
  H, B-F, Al-Cl, Ga-Br : Obtained from the TURBOMOLE 7.0 basis set library

The basis set includes element-specific modifications.

Your calculation utilizes the auxiliary basis: cc-pVTZ/JK 
  H, B-F, Al-Cl, Ga-Br : Obtained from the TURBOMOLE 7.0 basis set library

----- AuxC basis set information -----
Your calculation utilizes the auxiliary basis: aug-cc-pVTZ/C 
  H-He, B-F, Al-Ar, Ga-Kr : Obtained from the EMSL Basis Set Exchange (bse.pnl.gov) Feb. 2017
                            F. Weigend, A. Kohn, C. Hattig, J. Chem. Phys. 116, 3175 (2002)
                   Be, Mg : Obtained from the TURBOMOLE 7.0 basis set library
                            C. Haettig, Phys. Chem. Chem. Phys. 7, 59 (2005)
                       Ne : Obtained from the EMSL Basis Set Exchange (bse.pnl.gov) Feb. 2017
                            C. Haettig, Phys. Chem. Chem. Phys. 7, 59 (2005)
                            F. Weigend, A. Kohn, C. Hattig, J. Chem. Phys. 116, 3175 (2002)
                    Sc-Zn : Obtained from the EMSL Basis Set Exchange (bse.pnl.gov) Feb. 2017
                            J. G. Hill, J. A. Platts, J. Chem. Phys. 128, 044104 (2008)

The basis set includes element-specific modifications.

Your calculation utilizes the auxiliary basis: cc-pVTZ/C 
  Obtained from the EMSL Basis Set Exchange (bse.pnl.gov) Feb. 2017
  H-He, B-F, Al-Ar, Ga-Kr : F. Weigend, A. Kohn, C. Hattig, J. Chem. Phys. 116, 3175 (2002)
             Li-Be, Na-Mg : C. Haettig, Phys. Chem. Chem. Phys. 7, 59 (2005)
                       Ne : C. Haettig, Phys. Chem. Chem. Phys. 7, 59 (2005)
                            F. Weigend, A. Kohn, C. Hattig, J. Chem. Phys. 116, 3175 (2002)
                    Sc-Zn : J. G. Hill, J. A. Platts, J. Chem. Phys. 128, 044104 (2008)

================================================================================
                                        WARNINGS
                       Please study these warnings very carefully!
================================================================================


WARNING: Geometry Optimization
  ===> : Switching off AutoStart
         For restart on a previous wavefunction, please use MOREAD

INFO   : the flag for use of the SHARK integral package has been found!



***************************************
The coordinates will be read from file: 
***************************************


Your calculation utilizes the atom-pairwise dispersion correction
with the Becke-Johnson damping scheme (D3BJ)
Cite in your paper:
S.Grimme, S.Ehrlich, L.Goerigk, J Comput Chem, (2011), 32, 1456–1465 
S.Grimme, J.Antony, S.Ehrlich and H.Krieg, J.Chem.Phys., 132, (2010), 154104 
   

Your calculation utilizes the SMD solvation module
Please cite in your paper:
A.V. Marenich, C.J. Cramer, D.G. Truhlar J. Phys. Chem. B, 113, (2009), 6378 

================================================================================

----- Orbital basis set information -----
Your calculation utilizes the basis: aug-cc-pVTZ 
    H, B-Ne : Obtained from the ccRepo (grant-hill.group.shef.ac.uk/ccrepo) Feb. 2017
              R. A. Kendall, T. H. Dunning, Jr., R. J. Harrison, J. Chem. Phys. 96, 6796 (1992)
         He : Obtained from the ccRepo (grant-hill.group.shef.ac.uk/ccrepo) Feb. 2017
              D. E. Woon, T. H. Dunning, Jr., J. Chem. Phys. 100, 2975 (1994)
  Li-Be, Na : Obtained from the ccRepo (grant-hill.group.shef.ac.uk/ccrepo) Feb. 2017
              B. P. Prascher, D. E. Woon, K. A. Peterson, T. H. Dunning, Jr., A. K. Wilson, Theor. Chem. Acc. 128, 69 (2011)
         Mg : Obtained from the Peterson Research Group Website (tyr0.chem.wsu.edu/~kipeters) Feb. 2017
              B. P. Prascher, D. E. Woon, K. A. Peterson, T. H. Dunning, Jr., A. K. Wilson, Theor. Chem. Acc. 128, 69 (2011)
      Al-Ar : Obtained from the ccRepo (grant-hill.group.shef.ac.uk/ccrepo) Feb. 2017
              D. E. Woon, T. H. Dunning, Jr., J. Chem. Phys. 98, 1358 (1993)
      Sc-Zn : Obtained from the ccRepo (grant-hill.group.shef.ac.uk/ccrepo) Feb. 2017
              N. B. Balabanov, K. A. Peterson, J. Chem. Phys. 123, 064107 (2005)
              N. B. Balabanov, K. A. Peterson, J. Chem. Phys. 125, 074110 (2006)
      Ga-Kr : Obtained from the ccRepo (grant-hill.group.shef.ac.uk/ccrepo) Feb. 2017
              A. K. Wilson, D. E. Woon, K. A. Peterson, T. H. Dunning, Jr., J. Chem. Phys. 110, 7667 (1999)
     Ag, Au : Obtained from the Peterson Research Group Website (tyr0.chem.wsu.edu/~kipeters) Feb. 2017
              K. A. Peterson, C. Puzzarini, Theor. Chem. Acc. 114, 283 (2005)

The basis set includes element-specific modifications.

Your calculation utilizes the basis: cc-pVTZ 
       H, B-Ne : Obtained from the ccRepo (grant-hill.group.shef.ac.uk/ccrepo) Feb. 2017
                 T. H. Dunning, Jr., J. Chem. Phys. 90, 1007 (1989)
            He : Obtained from the ccRepo (grant-hill.group.shef.ac.uk/ccrepo) Feb. 2017
                 D. E. Woon, T. H. Dunning, Jr., J. Chem. Phys. 100, 2975 (1994)
  Li-Be, Na-Mg : Obtained from the ccRepo (grant-hill.group.shef.ac.uk/ccrepo) Feb. 2017
                 B. P. Prascher, D. E. Woon, K. A. Peterson, T. H. Dunning, Jr., A. K. Wilson, Theor. Chem. Acc. 128, 69 (2011)
         Al-Ar : Obtained from the ccRepo (grant-hill.group.shef.ac.uk/ccrepo) Feb. 2017
                 D. E. Woon, T. H. Dunning, Jr., J. Chem. Phys. 98, 1358 (1993)
            Ca : Obtained from the Peterson Research Group Website (tyr0.chem.wsu.edu/~kipeters) Feb. 2017
                 J. Koput, K. A. Peterson, J. Phys. Chem. 106, 9595 (2002)
         Sc-Zn : Obtained from the ccRepo (grant-hill.group.shef.ac.uk/ccrepo) Feb. 2017
                 N. B. Balabanov, K. A. Peterson, J. Chem. Phys. 123, 064107 (2005)
                 N. B. Balabanov, K. A. Peterson, J. Chem. Phys. 125, 074110 (2006)
         Ga-Kr : Obtained from the ccRepo (grant-hill.group.shef.ac.uk/ccrepo) Feb. 2017
                 A. K. Wilson, D. E. Woon, K. A. Peterson, T. H. Dunning, Jr., J. Chem. Phys. 110, 7667 (1999)
             Y : Obtained from the ccRepo (grant-hill.group.shef.ac.uk/ccrepo) Feb. 2017
                 K. A. Peterson, D. Figgen, M. Dolg, H. Stoll, J. Chem. Phys. 126, 124101 (2007)
        Ag, Au : Obtained from the Peterson Research Group Website (tyr0.chem.wsu.edu/~kipeters) Feb. 2017
                 K. A. Peterson, C. Puzzarini, Theor. Chem. Acc. 114, 283 (2005)

----- AuxJ basis set information -----
Your calculation utilizes the auxiliary basis: aug-cc-pVTZ/JK 
  H, B-F, Al-Cl, Ga-Br : Obtained from the TURBOMOLE 7.0 basis set library

The basis set includes element-specific modifications.

Your calculation utilizes the auxiliary basis: cc-pVTZ/JK 
  H, B-F, Al-Cl, Ga-Br : Obtained from the TURBOMOLE 7.0 basis set library

----- AuxC basis set information -----
Your calculation utilizes the auxiliary basis: aug-cc-pVTZ/C 
  H-He, B-F, Al-Ar, Ga-Kr : Obtained from the EMSL Basis Set Exchange (bse.pnl.gov) Feb. 2017
                            F. Weigend, A. Kohn, C. Hattig, J. Chem. Phys. 116, 3175 (2002)
                   Be, Mg : Obtained from the TURBOMOLE 7.0 basis set library
                            C. Haettig, Phys. Chem. Chem. Phys. 7, 59 (2005)
                       Ne : Obtained from the EMSL Basis Set Exchange (bse.pnl.gov) Feb. 2017
                            C. Haettig, Phys. Chem. Chem. Phys. 7, 59 (2005)
                            F. Weigend, A. Kohn, C. Hattig, J. Chem. Phys. 116, 3175 (2002)
                    Sc-Zn : Obtained from the EMSL Basis Set Exchange (bse.pnl.gov) Feb. 2017
                            J. G. Hill, J. A. Platts, J. Chem. Phys. 128, 044104 (2008)

The basis set includes element-specific modifications.

Your calculation utilizes the auxiliary basis: cc-pVTZ/C 
  Obtained from the EMSL Basis Set Exchange (bse.pnl.gov) Feb. 2017
  H-He, B-F, Al-Ar, Ga-Kr : F. Weigend, A. Kohn, C. Hattig, J. Chem. Phys. 116, 3175 (2002)
             Li-Be, Na-Mg : C. Haettig, Phys. Chem. Chem. Phys. 7, 59 (2005)
                       Ne : C. Haettig, Phys. Chem. Chem. Phys. 7, 59 (2005)
                            F. Weigend, A. Kohn, C. Hattig, J. Chem. Phys. 116, 3175 (2002)
                    Sc-Zn : J. G. Hill, J. A. Platts, J. Chem. Phys. 128, 044104 (2008)

================================================================================
                                        WARNINGS
                       Please study these warnings very carefully!
================================================================================

INFO   : Checking CIS options ...
  ===> : (D) CORRECTION FOUND - SETTING MODE=3
  ===> : JK MODE FOUND - ACTIVATING RI-MP2 CODE
  ===> : MP2 AND CIS FOUND - CHECKING
WARNING: CIS(D) and MP2 runs must have the same orbital window
  ===> : adjusting orbital windows

WARNING: No MP2 level density has been requested!
         To caclulate MP2 level properties use
         %mp2 Density relaxed end
         or
         %mp2 Density unrelaxed end
         Otherwise for double-hybrid DFT only the energy is correct!

WARNING: The frozen-core approximation is turned on by default for 
         the MP2 part of double-hybrid DFT.

INFO   : the flag for use of the SHARK integral package has been found!

================================================================================
                                       INPUT FILE
================================================================================
NAME = optpbed3-b2plyp-test-388.inp
|  1> ! pbe0 d3bj aug-cc-PVTZ RIJCOSX Opt
|  2> %maxcore 4000
|  3> %basis
|  4>  AuxJ "aug-cc-PVTZ/JK"
|  5>  AuxC "aug-cc-PVTZ/C"
|  6>  newGTO H "cc-PVTZ" end
|  7>  newAuxJGTO H "cc-PVTZ/JK" end
|  8>  newAuxCGTO H "cc-PVTZ/C" end
|  9> end
| 10> %cpcm
| 11>  SMD true
| 12>  SMDsolvent "acetonitrile"
| 13> end
| 14> %pal nprocs 4 end
| 15> * xyz 0 1
| 16> C          4.52310        0.59900        0.49150
| 17> N          3.74110       -0.02320       -0.54660
| 18> C          2.37260       -0.05660       -0.53580
| 19> C          1.68900       -0.47730       -1.68440
| 20> C          0.30900       -0.58420       -1.72110
| 21> C         -0.41660       -0.26130       -0.59010
| 22> C          0.26140        0.16600        0.56530
| 23> C          1.63170        0.27360        0.61180
| 24> C         -0.72790        0.45860        1.63710
| 25> O         -0.50650        0.85040        2.76060
| 26> C         -2.04450        0.16450        1.01610
| 27> C         -3.30910        0.26080        1.55750
| 28> C         -4.39720       -0.07620        0.75890
| 29> C         -4.20820       -0.49670       -0.54680
| 30> C         -2.93400       -0.59510       -1.09770
| 31> C         -1.84870       -0.26310       -0.31190
| 32> H          4.29350        1.66510        0.60660
| 33> H          4.34130        0.09970        1.44460
| 34> H          5.57770        0.49340        0.24720
| 35> H          4.16890       -0.07000       -1.45750
| 36> H          2.26500       -0.72590       -2.56540
| 37> H         -0.18250       -0.91190       -2.62500
| 38> H          2.11090        0.60860        1.51710
| 39> H         -3.44240        0.59010        2.57700
| 40> H         -5.39760       -0.00950        1.16000
| 41> H         -5.06630       -0.75370       -1.15130
| 42> H         -2.80350       -0.92480       -2.11770
| 43> *
| 44> 
| 45> 
| 46> $new_job
| 47> ! b2plyp aug-cc-PVTZ RIJCOSX SP
| 48> %maxcore 4000
| 49> %basis
| 50>  AuxJ "aug-cc-PVTZ/JK"
| 51>  AuxC "aug-cc-PVTZ/C"
| 52>  newGTO H "cc-PVTZ" end
| 53>  newAuxJGTO H "cc-PVTZ/JK" end
| 54>  newAuxCGTO H "cc-PVTZ/C" end
| 55> end
| 56> %cpcm
| 57>  SMD true
| 58>  SMDsolvent "acetonitrile"
| 59> end
| 60> %pal nprocs 4 end
| 61> %tddft
| 62>  nroots 10
| 63>  maxdim 7
| 64> end
| 65> * xyzfile 0 1
| 66> 
| 67>                          ****END OF INPUT****
================================================================================


                 $$$$$$$$$$$$$$$$$$$$$$$$$$$$$$$$$$$$$$$$$$$$$$ 
                 $ THERE ARE  2 JOBS TO BE PROCESSED THIS RUN $
                 $$$$$$$$$$$$$$$$$$$$$$$$$$$$$$$$$$$$$$$$$$$$$$ 




                 $$$$$$$$$$$$$$$$  JOB NUMBER  1 $$$$$$$$$$$$$$


                       *****************************
                       * Geometry Optimization Run *
                       *****************************

Geometry optimization settings:
Update method            Update   .... BFGS
Choice of coordinates    CoordSys .... Z-matrix Internals
Initial Hessian          InHess   .... Almoef's Model

Convergence Tolerances:
Energy Change            TolE     ....  5.0000e-06 Eh
Max. Gradient            TolMAXG  ....  3.0000e-04 Eh/bohr
RMS Gradient             TolRMSG  ....  1.0000e-04 Eh/bohr
Max. Displacement        TolMAXD  ....  4.0000e-03 bohr
RMS Displacement         TolRMSD  ....  2.0000e-03 bohr
Strict Convergence                ....  False
------------------------------------------------------------------------------
                        ORCA OPTIMIZATION COORDINATE SETUP
------------------------------------------------------------------------------

The optimization will be done in new redundant internal coordinates
Making redundant internal coordinates   ...  (new redundants) done
Evaluating the initial hessian          ...  (Almloef) done
Evaluating the coordinates              ...  done
Calculating the B-matrix                .... done
Calculating the G-matrix                .... done
Diagonalizing the G-matrix              .... done
Small eigenvalue found = 1.256e-02
The first mode is                       ....   72
The number of degrees of freedom        ....   75

    -----------------------------------------------------------------
                    Redundant Internal Coordinates


    -----------------------------------------------------------------
         Definition                    Initial Value    Approx d2E/dq
    -----------------------------------------------------------------
      1. B(N   1,C   0)                  1.4409         0.464092   
      2. B(C   2,N   1)                  1.3690         0.604588   
      3. B(C   3,C   2)                  1.4013         0.599440   
      4. B(C   4,C   3)                  1.3846         0.637266   
      5. B(C   5,C   4)                  1.3820         0.643434   
      6. B(C   6,C   5)                  1.4061         0.588836   
      7. B(C   7,C   6)                  1.3753         0.659454   
      8. B(C   7,C   2)                  1.4053         0.590584   
      9. B(C   8,C   6)                  1.4876         0.436469   
     10. B(O   9,C   8)                  1.2103         1.082948   
     11. B(C  10,C   8)                  1.4851         0.440541   
     12. B(C  11,C  10)                  1.3790         0.650596   
     13. B(C  12,C  11)                  1.3911         0.622167   
     14. B(C  13,C  12)                  1.3847         0.637081   
     15. B(C  14,C  13)                  1.3917         0.620964   
     16. B(C  15,C  14)                  1.3804         0.647157   
     17. B(C  15,C  10)                  1.4088         0.583067   
     18. B(C  15,C   5)                  1.4589         0.485129   
     19. B(H  16,C   0)                  1.0966         0.351473   
     20. B(H  17,C   0)                  1.0912         0.358496   
     21. B(H  18,C   0)                  1.0877         0.363202   
     22. B(H  19,N   1)                  1.0074         0.436791   
     23. B(H  20,C   3)                  1.0815         0.371461   
     24. B(H  21,C   4)                  1.0798         0.373832   
     25. B(H  22,C   7)                  1.0777         0.376752   
     26. B(H  23,C  11)                  1.0796         0.374091   
     27. B(H  24,C  12)                  1.0799         0.373746   
     28. B(H  25,C  13)                  1.0807         0.372683   
     29. B(H  26,C  14)                  1.0799         0.373745   
     30. A(N   1,C   0,H  18)          108.8120         0.334606   
     31. A(N   1,C   0,H  16)          112.4440         0.332788   
     32. A(H  16,C   0,H  17)          108.5588         0.289532   
     33. A(N   1,C   0,H  17)          109.9533         0.333882   
     34. A(H  17,C   0,H  18)          108.2579         0.291027   
     35. A(H  16,C   0,H  18)          108.7218         0.290125   
     36. A(C   0,N   1,H  19)          116.1677         0.342095   
     37. A(C   2,N   1,H  19)          115.4993         0.357707   
     38. A(C   0,N   1,C   2)          123.1871         0.405068   
     39. A(C   3,C   2,C   7)          118.8622         0.427695   
     40. A(N   1,C   2,C   7)          121.8531         0.425559   
     41. A(N   1,C   2,C   3)          119.2446         0.426695   
     42. A(C   2,C   3,C   4)          122.0810         0.433578   
     43. A(C   4,C   3,H  20)          119.4364         0.356428   
     44. A(C   2,C   3,H  20)          118.4825         0.352750   
     45. A(C   3,C   4,H  21)          119.9517         0.356814   
     46. A(C   5,C   4,H  21)          121.1301         0.357398   
     47. A(C   3,C   4,C   5)          118.9178         0.439146   
     48. A(C   4,C   5,C  15)          132.1578         0.418182   
     49. A(C   6,C   5,C  15)          108.4820         0.411641   
     50. A(C   4,C   5,C   6)          119.3598         0.432938   
     51. A(C   7,C   6,C   8)          128.5241         0.412195   
     52. A(C   5,C   6,C   8)          109.3366         0.404014   
     53. A(C   5,C   6,C   7)          122.1390         0.434857   
     54. A(C   6,C   7,H  22)          119.7197         0.359372   
     55. A(C   2,C   7,H  22)          121.6407         0.352706   
     56. A(C   2,C   7,C   6)          118.6394         0.435089   
     57. A(O   9,C   8,C  10)          127.9120         0.448374   
     58. A(C   6,C   8,C  10)          104.4384         0.383992   
     59. A(C   6,C   8,O   9)          127.6495         0.447620   
     60. A(C   8,C  10,C  11)          129.4196         0.411885   
     61. A(C  11,C  10,C  15)          121.2474         0.433033   
     62. A(C   8,C  10,C  15)          109.3329         0.403974   
     63. A(C  12,C  11,H  23)          121.2924         0.355406   
     64. A(C  10,C  11,H  23)          120.3493         0.358114   
     65. A(C  10,C  11,C  12)          118.3583         0.438124   
     66. A(C  13,C  12,H  24)          119.6990         0.356782   
     67. A(C  11,C  12,H  24)          119.7627         0.355350   
     68. A(C  11,C  12,C  13)          120.5382         0.436469   
     69. A(C  14,C  13,H  25)          119.2604         0.355062   
     70. A(C  12,C  13,H  25)          119.4267         0.356610   
     71. A(C  12,C  13,C  14)          121.3129         0.436317   
     72. A(C  15,C  14,H  26)          121.0710         0.357735   
     73. A(C  13,C  14,C  15)          118.5221         0.437553   
     74. A(C  13,C  14,H  26)          120.4070         0.355233   
     75. A(C  10,C  15,C  14)          120.0211         0.432620   
     76. A(C   5,C  15,C  14)          131.5690         0.418612   
     77. A(C   5,C  15,C  10)          108.4099         0.410923   
     78. D(H  19,N   1,C   0,H  17)   -144.7244         0.018392   
     79. D(H  19,N   1,C   0,H  18)    -26.3137         0.018392   
     80. D(C   2,N   1,C   0,H  16)    -59.2580         0.018392   
     81. D(C   2,N   1,C   0,H  17)     61.8277         0.018392   
     82. D(H  19,N   1,C   0,H  16)     94.1899         0.018392   
     83. D(C   2,N   1,C   0,H  18)   -179.7616         0.018392   
     84. D(C   3,C   2,N   1,C   0)    169.2903         0.029486   
     85. D(C   7,C   2,N   1,C   0)    -13.0403         0.029486   
     86. D(C   7,C   2,N   1,H  19)   -166.6494         0.029486   
     87. D(C   3,C   2,N   1,H  19)     15.6812         0.029486   
     88. D(H  20,C   3,C   2,C   7)    179.7466         0.024769   
     89. D(C   4,C   3,C   2,C   7)     -0.3467         0.024769   
     90. D(C   4,C   3,C   2,N   1)    177.3930         0.024769   
     91. D(H  20,C   3,C   2,N   1)     -2.5138         0.024769   
     92. D(C   5,C   4,C   3,C   2)      0.2200         0.028200   
     93. D(H  21,C   4,C   3,H  20)     -0.1044         0.028200   
     94. D(H  21,C   4,C   3,C   2)    179.9898         0.028200   
     95. D(C   5,C   4,C   3,H  20)   -179.8741         0.028200   
     96. D(C  15,C   5,C   4,H  21)     -0.0128         0.028786   
     97. D(C  15,C   5,C   4,C   3)    179.7541         0.028786   
     98. D(C   6,C   5,C   4,H  21)   -179.7699         0.028786   
     99. D(C   6,C   5,C   4,C   3)     -0.0030         0.028786   
    100. D(C   8,C   6,C   5,C  15)     -0.0930         0.023856   
    101. D(C   8,C   6,C   5,C   4)    179.7171         0.023856   
    102. D(C   7,C   6,C   5,C  15)   -179.8940         0.023856   
    103. D(C   7,C   6,C   5,C   4)     -0.0838         0.023856   
    104. D(H  22,C   7,C   2,C   3)   -179.5744         0.024005   
    105. D(H  22,C   7,C   2,N   1)      2.7475         0.024005   
    106. D(C   6,C   7,C   2,C   3)      0.2512         0.024005   
    107. D(C   2,C   7,C   6,C   5)     -0.0435         0.030342   
    108. D(C   6,C   7,C   2,N   1)   -177.4269         0.024005   
    109. D(H  22,C   7,C   6,C   8)      0.0257         0.030342   
    110. D(H  22,C   7,C   6,C   5)    179.7855         0.030342   
    111. D(C   2,C   7,C   6,C   8)   -179.8034         0.030342   
    112. D(C  10,C   8,C   6,C   7)    179.9117         0.013004   
    113. D(C  10,C   8,C   6,C   5)      0.1272         0.013004   
    114. D(O   9,C   8,C   6,C   7)      0.0326         0.013004   
    115. D(O   9,C   8,C   6,C   5)   -179.7519         0.013004   
    116. D(C  15,C  10,C   8,O   9)    179.7630         0.013242   
    117. D(C  15,C  10,C   8,C   6)     -0.1156         0.013242   
    118. D(C  11,C  10,C   8,O   9)     -0.1765         0.013242   
    119. D(C  11,C  10,C   8,C   6)    179.9448         0.013242   
    120. D(H  23,C  11,C  10,C  15)    179.9949         0.029475   
    121. D(H  23,C  11,C  10,C   8)     -0.0718         0.029475   
    122. D(C  12,C  11,C  10,C  15)      0.0199         0.029475   
    123. D(C  12,C  11,C  10,C   8)    179.9532         0.029475   
    124. D(H  24,C  12,C  11,H  23)     -0.0010         0.026797   
    125. D(H  24,C  12,C  11,C  10)    179.9738         0.026797   
    126. D(C  13,C  12,C  11,H  23)    179.9986         0.026797   
    127. D(C  13,C  12,C  11,C  10)     -0.0266         0.026797   
    128. D(H  25,C  13,C  12,H  24)      0.0213         0.028182   
    129. D(H  25,C  13,C  12,C  11)   -179.9783         0.028182   
    130. D(C  14,C  13,C  12,H  24)   -179.9922         0.028182   
    131. D(C  14,C  13,C  12,C  11)      0.0083         0.028182   
    132. D(H  26,C  14,C  13,H  25)     -0.0178         0.026687   
    133. D(H  26,C  14,C  13,C  12)    179.9956         0.026687   
    134. D(C  15,C  14,C  13,H  25)   -179.9961         0.026687   
    135. D(C  15,C  14,C  13,C  12)      0.0173         0.026687   
    136. D(C   5,C  15,C  10,C   8)      0.0638         0.023369   
    137. D(C  14,C  15,C   5,C   6)   -179.9774         0.016024   
    138. D(C  14,C  15,C   5,C   4)      0.2458         0.016024   
    139. D(C  10,C  15,C   5,C   6)      0.0184         0.016024   
    140. D(C  10,C  15,C   5,C   4)   -179.7585         0.016024   
    141. D(C  10,C  15,C  14,H  26)    179.9979         0.029143   
    142. D(C  10,C  15,C  14,C  13)     -0.0239         0.029143   
    143. D(C   5,C  15,C  14,H  26)     -0.0067         0.029143   
    144. D(C   5,C  15,C  14,C  13)    179.9714         0.029143   
    145. D(C  14,C  15,C  10,C  11)      0.0055         0.023369   
    146. D(C  14,C  15,C  10,C   8)   -179.9399         0.023369   
    147. D(C   5,C  15,C  10,C  11)   -179.9908         0.023369   
    -----------------------------------------------------------------

Number of atoms                         .... 27
Number of degrees of freedom            .... 147

         *************************************************************
         *                GEOMETRY OPTIMIZATION CYCLE   1            *
         *************************************************************
---------------------------------
CARTESIAN COORDINATES (ANGSTROEM)
---------------------------------
  C      4.523100    0.599000    0.491500
  N      3.741100   -0.023200   -0.546600
  C      2.372600   -0.056600   -0.535800
  C      1.689000   -0.477300   -1.684400
  C      0.309000   -0.584200   -1.721100
  C     -0.416600   -0.261300   -0.590100
  C      0.261400    0.166000    0.565300
  C      1.631700    0.273600    0.611800
  C     -0.727900    0.458600    1.637100
  O     -0.506500    0.850400    2.760600
  C     -2.044500    0.164500    1.016100
  C     -3.309100    0.260800    1.557500
  C     -4.397200   -0.076200    0.758900
  C     -4.208200   -0.496700   -0.546800
  C     -2.934000   -0.595100   -1.097700
  C     -1.848700   -0.263100   -0.311900
  H      4.293500    1.665100    0.606600
  H      4.341300    0.099700    1.444600
  H      5.577700    0.493400    0.247200
  H      4.168900   -0.070000   -1.457500
  H      2.265000   -0.725900   -2.565400
  H     -0.182500   -0.911900   -2.625000
  H      2.110900    0.608600    1.517100
  H     -3.442400    0.590100    2.577000
  H     -5.397600   -0.009500    1.160000
  H     -5.066300   -0.753700   -1.151300
  H     -2.803500   -0.924800   -2.117700

----------------------------
CARTESIAN COORDINATES (A.U.)
----------------------------
  NO LB      ZA    FRAG     MASS         X           Y           Z
   0 C     6.0000    0    12.011    8.547420    1.131946    0.928800
   1 N     7.0000    0    14.007    7.069654   -0.043842   -1.032924
   2 C     6.0000    0    12.011    4.483564   -0.106958   -1.012515
   3 C     6.0000    0    12.011    3.191747   -0.901966   -3.183055
   4 C     6.0000    0    12.011    0.583925   -1.103978   -3.252408
   5 C     6.0000    0    12.011   -0.787260   -0.493785   -1.115127
   6 C     6.0000    0    12.011    0.493974    0.313695    1.068262
   7 C     6.0000    0    12.011    3.083466    0.517029    1.156134
   8 C     6.0000    0    12.011   -1.375532    0.866628    3.093671
   9 O     8.0000    0    15.999   -0.957146    1.607023    5.216778
  10 C     6.0000    0    12.011   -3.863545    0.310860    1.920151
  11 C     6.0000    0    12.011   -6.253293    0.492841    2.943248
  12 C     6.0000    0    12.011   -8.309504   -0.143997    1.434113
  13 C     6.0000    0    12.011   -7.952346   -0.938627   -1.033302
  14 C     6.0000    0    12.011   -5.544456   -1.124576   -2.074352
  15 C     6.0000    0    12.011   -3.493537   -0.497187   -0.589406
  16 H     1.0000    0     1.008    8.113539    3.146583    1.146308
  17 H     1.0000    0     1.008    8.203868    0.188406    2.729898
  18 H     1.0000    0     1.008   10.540325    0.932391    0.467140
  19 H     1.0000    0     1.008    7.878079   -0.132281   -2.754276
  20 H     1.0000    0     1.008    4.280230   -1.371752   -4.847903
  21 H     1.0000    0     1.008   -0.344875   -1.723241   -4.960531
  22 H     1.0000    0     1.008    3.989023    1.150087    2.866904
  23 H     1.0000    0     1.008   -6.505193    1.115127    4.869824
  24 H     1.0000    0     1.008  -10.199986   -0.017952    2.192082
  25 H     1.0000    0     1.008   -9.573920   -1.424287   -2.175642
  26 H     1.0000    0     1.008   -5.297847   -1.747619   -4.001873

--------------------------------
INTERNAL COORDINATES (ANGSTROEM)
--------------------------------
 C      0   0   0     0.000000000000     0.00000000     0.00000000
 N      1   0   0     1.440940127139     0.00000000     0.00000000
 C      2   1   0     1.368950126922   123.18706643     0.00000000
 C      3   2   1     1.401277777602   119.24455851   169.29026661
 C      4   3   2     1.384620706186   122.08099003   177.39296117
 C      5   4   3     1.381998831403   118.91778939     0.22003845
 C      6   5   4     1.406135999824   119.35984205     0.00000000
 C      7   6   5     1.375304366313   122.13896550   359.91621654
 C      7   6   5     1.487643939254   109.33658471   179.71712767
 O      9   7   6     1.210279905642   127.64948444   180.24807685
 C      9   7   6     1.485116618317   104.43840374     0.12716602
 C     11   9   7     1.378985427769   129.41963060   179.94479628
 C     12  11   9     1.391147932464   118.35830043   179.95317986
 C     13  12  11     1.384699873619   120.53822550   359.97335689
 C     14  13  12     1.391674893788   121.31290213     0.00000000
 C     15  14  13     1.380428096642   118.52206627     0.00000000
 H      1   2   3     1.096600829837   112.44402892   300.74203710
 H      1   2   3     1.091215533247   109.95334588    61.82769243
 H      1   2   3     1.087664934619   108.81200686   180.23840889
 H      2   1   3     1.007443244059   116.16771174   153.44791127
 H      4   3   2     1.081544710125   118.48252100   357.48623462
 H      5   4   3     1.079812367960   119.95173406   179.98977705
 H      8   7   6     1.077694636713   119.71967738   179.78553318
 H     12  11   9     1.079623837269   120.34933967   359.92820781
 H     13  12  11     1.079875113150   119.76272643   179.97381840
 H     14  13  12     1.080650202424   119.42666158   180.02174611
 H     15  14  13     1.079876076224   120.40696687   179.99560912

---------------------------
INTERNAL COORDINATES (A.U.)
---------------------------
 C      0   0   0     0.000000000000     0.00000000     0.00000000
 N      1   0   0     2.722982215671     0.00000000     0.00000000
 C      2   1   0     2.586940830879   123.18706643     0.00000000
 C      3   2   1     2.648031237217   119.24455851   169.29026661
 C      4   3   2     2.616553934049   122.08099003   177.39296117
 C      5   4   3     2.611599308751   118.91778939     0.22003845
 C      6   5   4     2.657211946714   119.35984205     0.00000000
 C      7   6   5     2.598948603118   122.13896550   359.91621654
 C      7   6   5     2.811239629978   109.33658471   179.71712767
 O      9   7   6     2.287097567051   127.64948444   180.24807685
 C      9   7   6     2.806463685554   104.43840374     0.12716602
 C     11   9   7     2.605904801152   129.41963060   179.94479628
 C     12  11   9     2.628888604129   118.35830043   179.95317986
 C     13  12  11     2.616703538815   120.53822550   359.97335689
 C     14  13  12     2.629884416713   121.31290213     0.00000000
 C     15  14  13     2.608631050224   118.52206627     0.00000000
 H      1   2   3     2.072275246623   112.44402892   300.74203710
 H      1   2   3     2.062098510918   109.95334588    61.82769243
 H      1   2   3     2.055388851899   108.81200686   180.23840889
 H      2   1   3     1.903791826741   116.16771174   153.44791127
 H      4   3   2     2.043823303728   118.48252100   357.48623462
 H      5   4   3     2.040549651466   119.95173406   179.98977705
 H      8   7   6     2.036547719383   119.71967738   179.78553318
 H     12  11   9     2.040193380092   120.34933967   359.92820781
 H     13  12  11     2.040668222690   119.76272643   179.97381840
 H     14  13  12     2.042132929149   119.42666158   180.02174611
 H     15  14  13     2.040670042636   120.40696687   179.99560912

---------------------
BASIS SET INFORMATION
---------------------
There are 4 groups of distinct atoms

 Group   1 Type C   : 19s6p3d2f contracted to 5s4p3d2f pattern {88111/3111/111/11}
 Group   2 Type N   : 19s6p3d2f contracted to 5s4p3d2f pattern {88111/3111/111/11}
 Group   3 Type O   : 19s6p3d2f contracted to 5s4p3d2f pattern {88111/3111/111/11}
 Group   4 Type H   : 5s2p1d contracted to 3s2p1d pattern {311/11/1}

Atom   0C    basis set group =>   1
Atom   1N    basis set group =>   2
Atom   2C    basis set group =>   1
Atom   3C    basis set group =>   1
Atom   4C    basis set group =>   1
Atom   5C    basis set group =>   1
Atom   6C    basis set group =>   1
Atom   7C    basis set group =>   1
Atom   8C    basis set group =>   1
Atom   9O    basis set group =>   3
Atom  10C    basis set group =>   1
Atom  11C    basis set group =>   1
Atom  12C    basis set group =>   1
Atom  13C    basis set group =>   1
Atom  14C    basis set group =>   1
Atom  15C    basis set group =>   1
Atom  16H    basis set group =>   4
Atom  17H    basis set group =>   4
Atom  18H    basis set group =>   4
Atom  19H    basis set group =>   4
Atom  20H    basis set group =>   4
Atom  21H    basis set group =>   4
Atom  22H    basis set group =>   4
Atom  23H    basis set group =>   4
Atom  24H    basis set group =>   4
Atom  25H    basis set group =>   4
Atom  26H    basis set group =>   4
---------------------------------
AUXILIARY/J BASIS SET INFORMATION
---------------------------------
There are 4 groups of distinct atoms

 Group   1 Type C   : 10s7p5d2f1g contracted to 10s7p5d2f1g pattern {1111111111/1111111/11111/11/1}
 Group   2 Type N   : 10s7p5d2f1g contracted to 10s7p5d2f1g pattern {1111111111/1111111/11111/11/1}
 Group   3 Type O   : 10s7p5d2f1g contracted to 10s7p5d2f1g pattern {1111111111/1111111/11111/11/1}
 Group   4 Type H   : 4s3p2d1f contracted to 4s3p2d1f pattern {1111/111/11/1}

Atom   0C    basis set group =>   1
Atom   1N    basis set group =>   2
Atom   2C    basis set group =>   1
Atom   3C    basis set group =>   1
Atom   4C    basis set group =>   1
Atom   5C    basis set group =>   1
Atom   6C    basis set group =>   1
Atom   7C    basis set group =>   1
Atom   8C    basis set group =>   1
Atom   9O    basis set group =>   3
Atom  10C    basis set group =>   1
Atom  11C    basis set group =>   1
Atom  12C    basis set group =>   1
Atom  13C    basis set group =>   1
Atom  14C    basis set group =>   1
Atom  15C    basis set group =>   1
Atom  16H    basis set group =>   4
Atom  17H    basis set group =>   4
Atom  18H    basis set group =>   4
Atom  19H    basis set group =>   4
Atom  20H    basis set group =>   4
Atom  21H    basis set group =>   4
Atom  22H    basis set group =>   4
Atom  23H    basis set group =>   4
Atom  24H    basis set group =>   4
Atom  25H    basis set group =>   4
Atom  26H    basis set group =>   4
---------------------------------
AUXILIARY/C BASIS SET INFORMATION
---------------------------------
There are 4 groups of distinct atoms

 Group   1 Type C   : 9s7p6d4f2g contracted to 9s7p6d4f2g pattern {111111111/1111111/111111/1111/11}
 Group   2 Type N   : 9s7p6d4f2g contracted to 9s7p6d4f2g pattern {111111111/1111111/111111/1111/11}
 Group   3 Type O   : 9s7p6d4f2g contracted to 9s7p6d4f2g pattern {111111111/1111111/111111/1111/11}
 Group   4 Type H   : 4s3p2d1f contracted to 4s3p2d1f pattern {1111/111/11/1}

Atom   0C    basis set group =>   1
Atom   1N    basis set group =>   2
Atom   2C    basis set group =>   1
Atom   3C    basis set group =>   1
Atom   4C    basis set group =>   1
Atom   5C    basis set group =>   1
Atom   6C    basis set group =>   1
Atom   7C    basis set group =>   1
Atom   8C    basis set group =>   1
Atom   9O    basis set group =>   3
Atom  10C    basis set group =>   1
Atom  11C    basis set group =>   1
Atom  12C    basis set group =>   1
Atom  13C    basis set group =>   1
Atom  14C    basis set group =>   1
Atom  15C    basis set group =>   1
Atom  16H    basis set group =>   4
Atom  17H    basis set group =>   4
Atom  18H    basis set group =>   4
Atom  19H    basis set group =>   4
Atom  20H    basis set group =>   4
Atom  21H    basis set group =>   4
Atom  22H    basis set group =>   4
Atom  23H    basis set group =>   4
Atom  24H    basis set group =>   4
Atom  25H    basis set group =>   4
Atom  26H    basis set group =>   4


           ************************************************************
           *        Program running with 4 parallel MPI-processes     *
           *              working on a common directory               *
           ************************************************************
------------------------------------------------------------------------------
                           ORCA GTO INTEGRAL CALCULATION
                           -- RI-GTO INTEGRALS CHOSEN --
------------------------------------------------------------------------------
------------------------------------------------------------------------------
                   ___                                                        
                  /   \      - P O W E R E D   B Y -                         
                 /     \                                                     
                 |  |  |   _    _      __       _____    __    __             
                 |  |  |  | |  | |    /  \     |  _  \  |  |  /  |          
                  \  \/   | |  | |   /    \    | | | |  |  | /  /          
                 / \  \   | |__| |  /  /\  \   | |_| |  |  |/  /          
                |  |  |   |  __  | /  /__\  \  |    /   |      \           
                |  |  |   | |  | | |   __   |  |    \   |  |\   \          
                \     /   | |  | | |  |  |  |  | |\  \  |  | \   \       
                 \___/    |_|  |_| |__|  |__|  |_| \__\ |__|  \__/        
                                                                              
                      - O R C A' S   B I G   F R I E N D -                    
                                      &                                       
                       - I N T E G R A L  F E E D E R -                       
                                                                              
 v1 FN, 2020, v2 2021                                                         
------------------------------------------------------------------------------


Reading SHARK input file optpbed3-b2plyp-test-388.SHARKINP.tmp ... ok
----------------------
SHARK INTEGRAL PACKAGE
----------------------

Number of atoms                             ...     27
Number of basis functions                   ...    986
Number of shells                            ...    386
Maximum angular momentum                    ...      3
Integral batch strategy                     ... SHARK/LIBINT Hybrid
RI-J (if used) integral strategy            ... SPLIT-RIJ (Revised 2003 algorithm where possible)
Printlevel                                  ...      1
Contraction scheme used                     ... PARTIAL GENERAL contraction
Coulomb Range Separation                    ... NOT USED
Exchange Range Separation                   ... NOT USED
Finite Nucleus Model                        ... NOT USED
Auxiliary Coulomb fitting basis             ... AVAILABLE
   # of basis functions in Aux-J            ...   1594
   # of shells in Aux-J                     ...    510
   Maximum angular momentum in Aux-J        ...      4
Auxiliary J/K fitting basis                 ... NOT available
Auxiliary Correlation fitting basis         ... AVAILABLE
   # of basis functions in Aux-C            ...   2026
   # of shells in Aux-C                     ...    558
   Maximum angular momentum in Aux-C        ...      4
Auxiliary 'external' fitting basis          ... NOT available
Integral threshold                          ...     2.500000e-11
Primitive cut-off                           ...     2.500000e-12
Primitive pair pre-selection threshold      ...     2.500000e-12

Calculating pre-screening integrals         ... done (  0.2 sec) Dimension = 386
Calculating pre-screening integrals (ORCA)  ... done (  0.4 sec) Dimension = 290
Organizing shell pair data                  ... done (  0.8 sec)
Shell pair information
Total number of shell pairs                 ...     74691
Shell pairs after pre-screening             ...     52781
Total number of primitive shell pairs       ...     97101
Primitive shell pairs kept                  ...     62502
          la=0 lb=0:  12119 shell pairs
          la=1 lb=0:  13317 shell pairs
          la=1 lb=1:   3172 shell pairs
          la=2 lb=0:   8992 shell pairs
          la=2 lb=1:   4256 shell pairs
          la=2 lb=2:   1476 shell pairs
          la=3 lb=0:   5004 shell pairs
          la=3 lb=1:   2346 shell pairs
          la=3 lb=2:   1620 shell pairs
          la=3 lb=3:    479 shell pairs

Calculating one electron integrals          ... done (  0.1 sec)
Calculating RI/J V-Matrix + Cholesky decomp.... done (  0.2 sec)
Calculating RI/C V-Matrix + Cholesky decomp.... done (  0.3 sec)
Calculating Nuclear repulsion               ... done (  0.0 sec) ENN=    986.408299961060 Eh

SHARK setup successfully completed in   3.1 seconds

Maximum memory used throughout the entire GTOINT-calculation: 80.4 MB


           ************************************************************
           *        Program running with 4 parallel MPI-processes     *
           *              working on a common directory               *
           ************************************************************
-------------------------------------------------------------------------------
                                 ORCA SCF
-------------------------------------------------------------------------------

------------
SCF SETTINGS
------------
Hamiltonian:
 Density Functional     Method          .... DFT(GTOs)
 Exchange Functional    Exchange        .... PBE
   PBE kappa parameter   XKappa         ....  0.804000
   PBE mue parameter    XMuePBE         ....  0.219520
 Correlation Functional Correlation     .... PBE
   PBE beta parameter  CBetaPBE         ....  0.066725
 LDA part of GGA corr.  LDAOpt          .... PW91-LDA
 Gradients option       PostSCFGGA      .... off
 Hybrid DFT is turned on
   Fraction HF Exchange ScalHFX         ....  0.250000
   Scaling of DF-GGA-X  ScalDFX         ....  0.750000
   Scaling of DF-GGA-C  ScalDFC         ....  1.000000
   Scaling of DF-LDA-C  ScalLDAC        ....  1.000000
   Perturbative correction              ....  0.000000
   Density functional embedding theory  .... OFF
   NL short-range parameter             ....  6.900000
 RI-approximation to the Coulomb term is turned on
   Number of AuxJ basis functions       .... 1594
   RIJ-COSX (HFX calculated with COS-X)).... on


General Settings:
 Integral files         IntName         .... optpbed3-b2plyp-test-388
 Hartree-Fock type      HFTyp           .... RHF
 Total Charge           Charge          ....    0
 Multiplicity           Mult            ....    1
 Number of Electrons    NEL             ....  110
 Basis Dimension        Dim             ....  890
 Nuclear Repulsion      ENuc            ....    986.4082999611 Eh

Convergence Acceleration:
 DIIS                   CNVDIIS         .... on
   Start iteration      DIISMaxIt       ....    12
   Startup error        DIISStart       ....  0.200000
   # of expansion vecs  DIISMaxEq       ....     5
   Bias factor          DIISBfac        ....   1.050
   Max. coefficient     DIISMaxC        ....  10.000
 Trust-Rad. Augm. Hess. CNVTRAH         .... auto
   Auto Start mean grad. ratio tolernc. ....  1.125000
   Auto Start start iteration           ....    20
   Auto Start num. interpolation iter.  ....    10
   Max. Number of Micro iterations      ....    16
   Max. Number of Macro iterations      .... Maxiter - #DIIS iter
   Number of Davidson start vectors     ....     2
   Converg. threshold I  (grad. norm)   ....   1.000e-05
   Converg. threshold II (energy diff.) ....   1.000e-08
   Grad. Scal. Fac. for Micro threshold ....   0.100
   Minimum threshold for Micro iter.    ....   0.010
   NR start threshold (gradient norm)   ....   0.001
   Initial trust radius                 ....   0.400
   Minimum AH scaling param. (alpha)    ....   1.000
   Maximum AH scaling param. (alpha)    .... 1000.000
   Orbital update algorithm             .... Taylor
   White noise on init. David. guess    .... on
   Maximum white noise                  ....   0.010
   Quad. conv. algorithm                .... NR
 SOSCF                  CNVSOSCF        .... on
   Start iteration      SOSCFMaxIt      ....   150
   Startup grad/error   SOSCFStart      ....  0.003300
 Level Shifting         CNVShift        .... on
   Level shift para.    LevelShift      ....    0.2500
   Turn off err/grad.   ShiftErr        ....    0.0010
 Zerner damping         CNVZerner       .... off
 Static damping         CNVDamp         .... on
   Fraction old density DampFac         ....    0.7000
   Max. Damping (<1)    DampMax         ....    0.9800
   Min. Damping (>=0)   DampMin         ....    0.0000
   Turn off err/grad.   DampErr         ....    0.1000
 Fernandez-Rico         CNVRico         .... off

SCF Procedure:
 Maximum # iterations   MaxIter         ....   125
 SCF integral mode      SCFMode         .... Direct
   Integral package                     .... SHARK and LIBINT hybrid scheme
 Reset frequency        DirectResetFreq ....    20
 Integral Threshold     Thresh          ....  2.500e-11 Eh
 Primitive CutOff       TCut            ....  2.500e-12 Eh

Convergence Tolerance:
 Convergence Check Mode ConvCheckMode   .... Total+1el-Energy
 Convergence forced     ConvForced      .... 0
 Energy Change          TolE            ....  1.000e-08 Eh
 1-El. energy change                    ....  1.000e-05 Eh
 Orbital Gradient       TolG            ....  1.000e-05
 Orbital Rotation angle TolX            ....  1.000e-05
 DIIS Error             TolErr          ....  5.000e-07


Diagonalization of the overlap matrix:
Smallest eigenvalue                        ... 4.186e-07
Time for diagonalization                   ...    0.251 sec
Threshold for overlap eigenvalues          ... 1.000e-08
Number of eigenvalues below threshold      ... 0
Time for construction of square roots      ...    0.137 sec
Total time needed                          ...    0.394 sec

Time for model grid setup =    0.479 sec

------------------------------
INITIAL GUESS: MODEL POTENTIAL
------------------------------
Loading Hartree-Fock densities                     ... done
Calculating cut-offs                               ... done
Initializing the effective Hamiltonian             ... done
Setting up the integral package (SHARK)            ... done
Starting the Coulomb interaction                   ... done (   1.6 sec)
Reading the grid                                   ... done
Mapping shells                                     ... done
Starting the XC term evaluation                    ... done (   1.6 sec)
  promolecular density results
     # of electrons  =    109.996069591
     EX              =    -89.622735307
     EC              =     -3.693013178
     EX+EC           =    -93.315748485
Transforming the Hamiltonian                       ... done (   0.1 sec)
Diagonalizing the Hamiltonian                      ... done (   0.2 sec)
Back transforming the eigenvectors                 ... done (   0.0 sec)
Now organizing SCF variables                       ... done
                      ------------------
                      INITIAL GUESS DONE (   4.1 sec)
                      ------------------
-------------------
DFT GRID GENERATION
-------------------

General Integration Accuracy     IntAcc      ... 4.388
Radial Grid Type                 RadialGrid  ... OptM3 with GC (2021)
Angular Grid (max. ang.)         AngularGrid ... 4 (Lebedev-302)
Angular grid pruning method      GridPruning ... 4 (adaptive)
Weight generation scheme         WeightScheme... Becke
Basis function cutoff            BFCut       ... 1.0000e-11
Integration weight cutoff        WCut        ... 1.0000e-14
Angular grids for H and He will be reduced by one unit
Partially contracted basis set               ... off
Rotationally invariant grid construction     ... off

Total number of grid points                  ...   134872
Total number of batches                      ...     2121
Average number of points per batch           ...       63
Average number of grid points per atom       ...     4995
Time for grid setup =    1.703 sec

--------------------
COSX GRID GENERATION
--------------------

GRIDX 1
-------
General Integration Accuracy     IntAcc      ... 3.816
Radial Grid Type                 RadialGrid  ... OptM3 with GC (2021)
Angular Grid (max. ang.)         AngularGrid ... 1 (Lebedev-50)
Angular grid pruning method      GridPruning ... 4 (adaptive)
Weight generation scheme         WeightScheme... Becke
Basis function cutoff            BFCut       ... 1.0000e-11
Integration weight cutoff        WCut        ... 1.0000e-14
Angular grids for H and He will be reduced by one unit
Partially contracted basis set               ... on
Rotationally invariant grid construction     ... off

Total number of grid points                  ...    17215
Total number of batches                      ...      284
Average number of points per batch           ...       60
Average number of grid points per atom       ...      638
UseSFitting                                  ... on

GRIDX 2
-------
General Integration Accuracy     IntAcc      ... 4.020
Radial Grid Type                 RadialGrid  ... OptM3 with GC (2021)
Angular Grid (max. ang.)         AngularGrid ... 2 (Lebedev-110)
Angular grid pruning method      GridPruning ... 4 (adaptive)
Weight generation scheme         WeightScheme... Becke
Basis function cutoff            BFCut       ... 1.0000e-11
Integration weight cutoff        WCut        ... 1.0000e-14
Angular grids for H and He will be reduced by one unit
Partially contracted basis set               ... on
Rotationally invariant grid construction     ... off

Total number of grid points                  ...    41005
Total number of batches                      ...      653
Average number of points per batch           ...       62
Average number of grid points per atom       ...     1519
UseSFitting                                  ... on

GRIDX 3
-------
General Integration Accuracy     IntAcc      ... 4.338
Radial Grid Type                 RadialGrid  ... OptM3 with GC (2021)
Angular Grid (max. ang.)         AngularGrid ... 3 (Lebedev-194)
Angular grid pruning method      GridPruning ... 4 (adaptive)
Weight generation scheme         WeightScheme... Becke
Basis function cutoff            BFCut       ... 1.0000e-11
Integration weight cutoff        WCut        ... 1.0000e-14
Angular grids for H and He will be reduced by one unit
Partially contracted basis set               ... on
Rotationally invariant grid construction     ... off

Total number of grid points                  ...    88489
Total number of batches                      ...     1398
Average number of points per batch           ...       63
Average number of grid points per atom       ...     3277
UseSFitting                                  ... on

Time for X-Grid setup             =    3.985 sec


--------------------
CPCM SOLVATION MODEL
--------------------
CPCM parameters:
  Epsilon                                         ...      35.6880
  Refrac                                          ...       1.3442
  Rsolv                                           ...       1.3000
  Surface type                                    ... GAUSSIAN VDW
  Epsilon function type                           ...         CPCM
Solvent:                                     ... ACETONITRILE
SMD-CDS solvent descriptors:
  Soln                                       ...    1.3442
  Soln25                                     ...    1.3416
  Sola                                       ...    0.0700
  Solb                                       ...    0.3200
  Solg                                       ...   41.2500
  Solc                                       ...    0.0000
  Solh                                       ...    0.0000
Radii:
 Radius for C  used is    3.4960 Bohr (=   1.8500 Ang.)
 Radius for N  used is    3.5716 Bohr (=   1.8900 Ang.)
 Radius for O  used is    4.0969 Bohr (=   2.1680 Ang.)
 Radius for H  used is    2.2677 Bohr (=   1.2000 Ang.)
Calculating surface                               ...        done! (  0.0s)
GEPOL surface points                              ...         1545
GEPOL Volume                                      ...    1543.7502
GEPOL Surface-area                                ...     865.9990
Calculating surface distance matrix               ...        done! (  0.0s)
Performing Cholesky decomposition & store         ...        done! (  0.1s)
Overall time for CPCM initialization              ...                 0.2s
 re-compute Schwartz prescreening matrix in partically contracted basis (1) ...done (   0.190 sec)
--------------
SCF ITERATIONS
--------------
ITER       Energy         Delta-E        Max-DP      RMS-DP      [F,P]     Damp
               ***  Starting incremental Fock matrix formation  ***
  0   -669.2335388794   0.000000000000 0.27991328  0.00158075  0.2583406 0.7000
  1   -669.3781384345  -0.144599555042 0.21042004  0.00121712  0.1097548 0.7000
                               ***Turning on DIIS***
  2   -669.4433118927  -0.065173458204 0.43031303  0.00271508  0.0378398 0.0000
  3   -669.5449293264  -0.101617433672 0.06598824  0.00050912  0.0530430 0.0000
  4   -669.5640940968  -0.019164770456 0.04103213  0.00021551  0.0153001 0.0000
  5   -669.5651442680  -0.001050171193 0.01132802  0.00008161  0.0099969 0.0000
                      *** Initiating the SOSCF procedure ***
                           *** Shutting down DIIS ***
                      *** Re-Reading the Fockian *** 
                      *** Removing any level shift *** 
ITER      Energy       Delta-E        Grad      Rot      Max-DP    RMS-DP
  6   -669.56527419  -0.0001299219  0.000292  0.000292  0.005274  0.000058
               *** Restarting incremental Fock matrix formation ***
  7   -669.56529255  -0.0000183552  0.000180  0.001545  0.023677  0.000362
  8   -669.56529418  -0.0000016341  0.000202  0.000889  0.010405  0.000134
  9   -669.56529573  -0.0000015557  0.000057  0.000228  0.008124  0.000121
 10   -669.56529590  -0.0000001640  0.000045  0.000119  0.003154  0.000037
 11   -669.56529598  -0.0000000775  0.000026  0.000122  0.004074  0.000048
 12   -669.56529602  -0.0000000457  0.000007  0.000016  0.008171  0.000051
 13   -669.56529604  -0.0000000218  0.000005  0.000011  0.004911  0.000056
                  ***Gradient check signals convergence***
              ***Rediagonalizing the Fockian in SOSCF/NRSCF***

               *****************************************************
               *                     SUCCESS                       *
               *           SCF CONVERGED AFTER  14 CYCLES          *
               *****************************************************

Old exchange energy                            =    -22.862226473 Eh
New exchange energy                            =    -22.862243980 Eh
Exchange energy change after final integration =     -0.000017507 Eh
Total energy after final integration           =   -669.565313529 Eh
Final COS-X integration done in                =    91.917 sec

SMD CDS free energy correction energy :                -3.84211     Kcal/mol
Total Energy after SMD CDS correction =              -669.571436320 Eh

----------------
TOTAL SCF ENERGY
----------------

Total Energy       :         -669.57143632 Eh          -18219.96507 eV

Components:
Nuclear Repulsion  :          986.40829996 Eh           26841.53444 eV
Electronic Energy  :        -1655.97973628 Eh          -45061.49951 eV
One Electron Energy:        -2865.04783037 Eh          -77961.91497 eV
Two Electron Energy:         1209.06809409 Eh           32900.41546 eV
Max COSX asymmetry :            0.00003956 Eh               0.00108 eV
CPCM Dielectric    :           -0.02125238 Eh              -0.57831 eV
SMD CDS (Gcds)     :           -0.00612279 Eh              -0.16661 eV

Virial components:
Potential Energy   :        -1335.41799354 Eh          -36338.57102 eV
Kinetic Energy     :          665.84655722 Eh           18118.60595 eV
Virial Ratio       :            2.00559420


DFT components:
N(Alpha)           :       54.999978605942 electrons
N(Beta)            :       54.999978605942 electrons
N(Total)           :      109.999957211883 electrons
E(X)               :      -68.409631073062 Eh       
E(C)               :       -3.697658373378 Eh       
E(XC)              :      -72.107289446440 Eh       
DFET-embed. en.    :        0.000000000000 Eh       
CPCM Solvation Model Properties:
Surface-charge          :           -0.04904602
Charge-correction       :            0.00029988 Eh               0.00816 eV
Free-energy (cav+disp)  :           -0.00612279 Eh              -0.16661 eV

---------------
SCF CONVERGENCE
---------------

  Last Energy change         ...    2.2130e-08  Tolerance :   1.0000e-08
  Last MAX-Density change    ...    5.9952e-15  Tolerance :   1.0000e-07
  Last RMS-Density change    ...    1.8423e-17  Tolerance :   5.0000e-09
  Last Orbital Gradient      ...    1.4827e-06  Tolerance :   1.0000e-05
  Last Orbital Rotation      ...    5.7422e-06  Tolerance :   1.0000e-05

             **** THE GBW FILE WAS UPDATED (optpbed3-b2plyp-test-388.gbw) ****
             **** DENSITY optpbed3-b2plyp-test-388.scfp WAS UPDATED ****
             **** ENERGY FILE WAS UPDATED (optpbed3-b2plyp-test-388.en.tmp) ****
             **** THE GBW FILE WAS UPDATED (optpbed3-b2plyp-test-388.gbw) ****
             **** DENSITY optpbed3-b2plyp-test-388.scfp WAS UPDATED ****
----------------
ORBITAL ENERGIES
----------------

  NO   OCC          E(Eh)            E(eV) 
   0   2.0000     -19.208291      -522.6842 
   1   2.0000     -14.396805      -391.7570 
   2   2.0000     -10.317825      -280.7623 
   3   2.0000     -10.274519      -279.5839 
   4   2.0000     -10.245860      -278.8040 
   5   2.0000     -10.240713      -278.6640 
   6   2.0000     -10.237993      -278.5900 
   7   2.0000     -10.235878      -278.5324 
   8   2.0000     -10.234863      -278.5048 
   9   2.0000     -10.233657      -278.4720 
  10   2.0000     -10.232900      -278.4514 
  11   2.0000     -10.232884      -278.4509 
  12   2.0000     -10.231364      -278.4096 
  13   2.0000     -10.230702      -278.3916 
  14   2.0000     -10.228633      -278.3353 
  15   2.0000     -10.228372      -278.3282 
  16   2.0000      -1.081381       -29.4259 
  17   2.0000      -0.968084       -26.3429 
  18   2.0000      -0.920696       -25.0534 
  19   2.0000      -0.876990       -23.8641 
  20   2.0000      -0.824338       -22.4314 
  21   2.0000      -0.791259       -21.5313 
  22   2.0000      -0.777186       -21.1483 
  23   2.0000      -0.750934       -20.4339 
  24   2.0000      -0.705944       -19.2097 
  25   2.0000      -0.685313       -18.6483 
  26   2.0000      -0.641307       -17.4508 
  27   2.0000      -0.621916       -16.9232 
  28   2.0000      -0.597650       -16.2629 
  29   2.0000      -0.585664       -15.9367 
  30   2.0000      -0.539462       -14.6795 
  31   2.0000      -0.529049       -14.3962 
  32   2.0000      -0.512214       -13.9381 
  33   2.0000      -0.480209       -13.0671 
  34   2.0000      -0.476254       -12.9595 
  35   2.0000      -0.467358       -12.7175 
  36   2.0000      -0.458287       -12.4706 
  37   2.0000      -0.451068       -12.2742 
  38   2.0000      -0.450013       -12.2455 
  39   2.0000      -0.447306       -12.1718 
  40   2.0000      -0.444075       -12.0839 
  41   2.0000      -0.428052       -11.6479 
  42   2.0000      -0.401518       -10.9259 
  43   2.0000      -0.393113       -10.6972 
  44   2.0000      -0.389629       -10.6024 
  45   2.0000      -0.385550       -10.4913 
  46   2.0000      -0.377149       -10.2627 
  47   2.0000      -0.359099        -9.7716 
  48   2.0000      -0.353329        -9.6146 
  49   2.0000      -0.330665        -8.9978 
  50   2.0000      -0.281983        -7.6732 
  51   2.0000      -0.274877        -7.4798 
  52   2.0000      -0.273910        -7.4535 
  53   2.0000      -0.271921        -7.3993 
  54   2.0000      -0.203074        -5.5259 
  55   0.0000      -0.087126        -2.3708 
  56   0.0000      -0.032216        -0.8766 
  57   0.0000      -0.001668        -0.0454 
  58   0.0000       0.007852         0.2137 
  59   0.0000       0.013428         0.3654 
  60   0.0000       0.018767         0.5107 
  61   0.0000       0.027992         0.7617 
  62   0.0000       0.030543         0.8311 
  63   0.0000       0.031265         0.8508 
  64   0.0000       0.038662         1.0520 
  65   0.0000       0.040376         1.0987 
  66   0.0000       0.047422         1.2904 
  67   0.0000       0.049063         1.3351 
  68   0.0000       0.049847         1.3564 
  69   0.0000       0.058054         1.5797 
  70   0.0000       0.059986         1.6323 
  71   0.0000       0.062937         1.7126 
  72   0.0000       0.071926         1.9572 
  73   0.0000       0.074023         2.0143 
  74   0.0000       0.075743         2.0611 
  75   0.0000       0.083781         2.2798 
  76   0.0000       0.085759         2.3336 
  77   0.0000       0.090489         2.4623 
  78   0.0000       0.100343         2.7305 
  79   0.0000       0.102549         2.7905 
  80   0.0000       0.107689         2.9304 
  81   0.0000       0.110011         2.9935 
  82   0.0000       0.111511         3.0344 
  83   0.0000       0.119036         3.2391 
  84   0.0000       0.120635         3.2826 
  85   0.0000       0.125611         3.4181 
  86   0.0000       0.127574         3.4715 
  87   0.0000       0.131547         3.5796 
  88   0.0000       0.134684         3.6649 
  89   0.0000       0.136923         3.7259 
  90   0.0000       0.138469         3.7679 
  91   0.0000       0.139949         3.8082 
  92   0.0000       0.145778         3.9668 
  93   0.0000       0.147999         4.0273 
  94   0.0000       0.150487         4.0949 
  95   0.0000       0.152189         4.1413 
  96   0.0000       0.156457         4.2574 
  97   0.0000       0.157859         4.2956 
  98   0.0000       0.161543         4.3958 
  99   0.0000       0.163158         4.4397 
 100   0.0000       0.164691         4.4815 
 101   0.0000       0.168567         4.5869 
 102   0.0000       0.169712         4.6181 
 103   0.0000       0.174500         4.7484 
 104   0.0000       0.178972         4.8701 
 105   0.0000       0.183912         5.0045 
 106   0.0000       0.186710         5.0806 
 107   0.0000       0.187863         5.1120 
 108   0.0000       0.189932         5.1683 
 109   0.0000       0.193886         5.2759 
 110   0.0000       0.194178         5.2838 
 111   0.0000       0.199247         5.4218 
 112   0.0000       0.203738         5.5440 
 113   0.0000       0.204126         5.5545 
 114   0.0000       0.206284         5.6133 
 115   0.0000       0.209201         5.6927 
 116   0.0000       0.210727         5.7342 
 117   0.0000       0.216932         5.9030 
 118   0.0000       0.222555         6.0560 
 119   0.0000       0.225775         6.1437 
 120   0.0000       0.228996         6.2313 
 121   0.0000       0.231878         6.3097 
 122   0.0000       0.233919         6.3653 
 123   0.0000       0.236974         6.4484 
 124   0.0000       0.241535         6.5725 
 125   0.0000       0.246137         6.6977 
 126   0.0000       0.247852         6.7444 
 127   0.0000       0.251399         6.8409 
 128   0.0000       0.254914         6.9366 
 129   0.0000       0.255892         6.9632 
 130   0.0000       0.261128         7.1057 
 131   0.0000       0.263254         7.1635 
 132   0.0000       0.267746         7.2857 
 133   0.0000       0.271134         7.3779 
 134   0.0000       0.273468         7.4414 
 135   0.0000       0.275893         7.5074 
 136   0.0000       0.278878         7.5887 
 137   0.0000       0.283092         7.7033 
 138   0.0000       0.285727         7.7750 
 139   0.0000       0.293602         7.9893 
 140   0.0000       0.299479         8.1492 
 141   0.0000       0.301863         8.2141 
 142   0.0000       0.304770         8.2932 
 143   0.0000       0.306816         8.3489 
 144   0.0000       0.309778         8.4295 
 145   0.0000       0.316000         8.5988 
 146   0.0000       0.317835         8.6487 
 147   0.0000       0.324230         8.8227 
 148   0.0000       0.331242         9.0135 
 149   0.0000       0.332966         9.0605 
 150   0.0000       0.337396         9.1810 
 151   0.0000       0.339652         9.2424 
 152   0.0000       0.342966         9.3326 
 153   0.0000       0.347174         9.4471 
 154   0.0000       0.347913         9.4672 
 155   0.0000       0.352199         9.5838 
 156   0.0000       0.357524         9.7287 
 157   0.0000       0.358246         9.7484 
 158   0.0000       0.365768         9.9531 
 159   0.0000       0.367822        10.0090 
 160   0.0000       0.371357        10.1051 
 161   0.0000       0.377398        10.2695 
 162   0.0000       0.383133        10.4256 
 163   0.0000       0.388176        10.5628 
 164   0.0000       0.392390        10.6775 
 165   0.0000       0.393211        10.6998 
 166   0.0000       0.397563        10.8182 
 167   0.0000       0.400074        10.8866 
 168   0.0000       0.403707        10.9854 
 169   0.0000       0.406460        11.0604 
 170   0.0000       0.410727        11.1765 
 171   0.0000       0.414065        11.2673 
 172   0.0000       0.415048        11.2940 
 173   0.0000       0.417319        11.3558 
 174   0.0000       0.420259        11.4358 
 175   0.0000       0.422120        11.4865 
 176   0.0000       0.423954        11.5364 
 177   0.0000       0.427562        11.6346 
 178   0.0000       0.431763        11.7489 
 179   0.0000       0.434548        11.8246 
 180   0.0000       0.436827        11.8867 
 181   0.0000       0.442529        12.0418 
 182   0.0000       0.443043        12.0558 
 183   0.0000       0.445424        12.1206 
 184   0.0000       0.455452        12.3935 
 185   0.0000       0.459266        12.4973 
 186   0.0000       0.462648        12.5893 
 187   0.0000       0.465388        12.6639 
 188   0.0000       0.471562        12.8319 
 189   0.0000       0.473881        12.8950 
 190   0.0000       0.478239        13.0136 
 191   0.0000       0.483441        13.1551 
 192   0.0000       0.487395        13.2627 
 193   0.0000       0.491133        13.3644 
 194   0.0000       0.496895        13.5212 
 195   0.0000       0.501807        13.6549 
 196   0.0000       0.509235        13.8570 
 197   0.0000       0.514312        13.9951 
 198   0.0000       0.514378        13.9969 
 199   0.0000       0.516117        14.0443 
 200   0.0000       0.518007        14.0957 
 201   0.0000       0.521888        14.2013 
 202   0.0000       0.530440        14.4340 
 203   0.0000       0.534826        14.5533 
 204   0.0000       0.542809        14.7706 
 205   0.0000       0.545073        14.8322 
 206   0.0000       0.545923        14.8553 
 207   0.0000       0.548495        14.9253 
 208   0.0000       0.553382        15.0583 
 209   0.0000       0.559357        15.2209 
 210   0.0000       0.565991        15.4014 
 211   0.0000       0.578778        15.7493 
 212   0.0000       0.583058        15.8658 
 213   0.0000       0.592838        16.1319 
 214   0.0000       0.599023        16.3002 
 215   0.0000       0.606424        16.5016 
 216   0.0000       0.613072        16.6825 
 217   0.0000       0.616211        16.7680 
 218   0.0000       0.624998        17.0071 
 219   0.0000       0.631361        17.1802 
 220   0.0000       0.638718        17.3804 
 221   0.0000       0.643845        17.5199 
 222   0.0000       0.651893        17.7389 
[...]
   Lowest Energy          :     0.115534130996
   Maximum Energy change  :     0.213042853672 (vector 9)
   Maximum residual norm  :     0.008192158675

                       ****Iteration    1****
              <<< Entering MO-section for Build Sigma(Double) >>>
   Forming the XC and CPCM contribution:
   Time for densities:            0.145
   Time for XC-Integration:      11.832
   Time for LR-CPCM terms:        6.816
   Time for Sigma-Completion:     0.112
   Time for building 10 sigma-vectors
   Data Preparation Phase         ...     0.01 sec
   Transformed RI Coulomb         ...     0.37 sec
   Transformed RI-exchange        ...    82.01 sec
   (ab|v) reading and digestion   ...    71.45 sec
   Final sigma-completion         ...     0.00 sec
   Done building sigma-vectors             Size of expansion space: 40
   Lowest Energy          :     0.107121156069
   Maximum Energy change  :     0.017897812423 (vector 1)
   Maximum residual norm  :     0.000757176599

                       ****Iteration    2****
              <<< Entering MO-section for Build Sigma(Double) >>>
   Forming the XC and CPCM contribution:
   Time for densities:            0.143
   Time for XC-Integration:      11.861
   Time for LR-CPCM terms:        6.798
   Time for Sigma-Completion:     0.114
   Time for building 10 sigma-vectors
   Data Preparation Phase         ...     0.01 sec
   Transformed RI Coulomb         ...     0.37 sec
   Transformed RI-exchange        ...    82.83 sec
   (ab|v) reading and digestion   ...    70.26 sec
   Final sigma-completion         ...     0.00 sec
   Done building sigma-vectors             Size of expansion space: 50
   Lowest Energy          :     0.106369062475
   Maximum Energy change  :     0.001733653736 (vector 9)
   Maximum residual norm  :     0.000243816734

                       ****Iteration    3****
              <<< Entering MO-section for Build Sigma(Double) >>>
   Forming the XC and CPCM contribution:
   Time for densities:            0.145
   Time for XC-Integration:      12.164
   Time for LR-CPCM terms:        6.852
   Time for Sigma-Completion:     0.110
   Time for building 10 sigma-vectors
   Data Preparation Phase         ...     0.01 sec
   Transformed RI Coulomb         ...     0.37 sec
   Transformed RI-exchange        ...    83.70 sec
   (ab|v) reading and digestion   ...    73.01 sec
   Final sigma-completion         ...     0.00 sec
   Done building sigma-vectors             Size of expansion space: 60
   Lowest Energy          :     0.106352984683
   Maximum Energy change  :     0.000544921784 (vector 9)
   Maximum residual norm  :     0.000029375663

                       ****Iteration    4****
              <<< Entering MO-section for Build Sigma(Double) >>>
   Forming the XC and CPCM contribution:
   Time for densities:            0.140
   Time for XC-Integration:      12.315
   Time for LR-CPCM terms:        6.838
   Time for Sigma-Completion:     0.107
   Time for building 10 sigma-vectors
   Data Preparation Phase         ...     0.00 sec
   Transformed RI Coulomb         ...     0.37 sec
   Transformed RI-exchange        ...    82.27 sec
   (ab|v) reading and digestion   ...    73.59 sec
   Final sigma-completion         ...     0.00 sec
   Done building sigma-vectors             Size of expansion space: 70
   Lowest Energy          :     0.106351967347
   Maximum Energy change  :     0.000052538963 (vector 9)
   Maximum residual norm  :     0.000003126861
   Rebuilding the expansion space

                       ****Iteration    5****
              <<< Entering MO-section for Build Sigma(Double) >>>
   Forming the XC and CPCM contribution:
   Time for densities:            0.288
   Time for XC-Integration:      24.458
   Time for LR-CPCM terms:       10.935
   Time for Sigma-Completion:     0.216
   Time for building 20 sigma-vectors
   Data Preparation Phase         ...     0.01 sec
   Transformed RI Coulomb         ...     0.62 sec
   Transformed RI-exchange        ...   396.56 sec
   (ab|v) reading and digestion   ...   382.86 sec
   Final sigma-completion         ...     0.01 sec
   Done building sigma-vectors             Size of expansion space: 20
   Lowest Energy          :     0.106351934724
   Maximum Energy change  :     0.000003942630 (vector 9)
   Maximum residual norm  :     0.000000322581

      *** CONVERGENCE OF RESIDUAL NORM REACHED ***

Storing the converged CI vectors               ... optpbed3-b2plyp-test-388_job2.cis1

                 *** DAVIDSON DONE ***

Total time for solving the CIS problem:   914.396sec

------------------
DOUBLES CORRECTION (Double precision version)
------------------

The (D) correction will be scaled by  0.2700
Doing v(i,a)*T(i,a) terms (RI)                    ... ok
Doing u(i,j,a,b) terms for state   0              ... ok
Doing u(i,j,a,b) terms for state   1              ... ok
Doing u(i,j,a,b) terms for state   2              ... ok
Doing u(i,j,a,b) terms for state   3              ... ok
Doing u(i,j,a,b) terms for state   4              ... ok
Doing u(i,j,a,b) terms for state   5              ... ok
Doing u(i,j,a,b) terms for state   6              ... ok
Doing u(i,j,a,b) terms for state   7              ... ok
Doing u(i,j,a,b) terms for state   8              ... ok
Doing u(i,j,a,b) terms for state   9              ... ok

Contributions to the (D) correction(s) (in eV)

STATE  Final   Init.   Total   v(ext)   v(int)  v(3)    u
       omega   omega     (D)                             
-----------------------------------------------------------------------------
   0   2.462   2.894  -0.432   0.656   1.001  -0.040  -2.048
   1   3.355   3.882  -0.527   0.687   0.796  -0.030  -1.980
   2   3.950   4.330  -0.380   0.558   0.965  -0.039  -1.864
   3   4.272   4.839  -0.568   0.592   0.911  -0.041  -2.029
   4   4.660   4.913  -0.253   0.081   0.964  -0.006  -1.293
   5   4.483   5.030  -0.547   0.572   0.920  -0.061  -1.979
   6   4.592   5.295  -0.703   0.605   0.904  -0.047  -2.165
   7   5.053   5.318  -0.264   0.053   0.979  -0.003  -1.294
   8   5.177   5.459  -0.282   0.040   0.975  -0.002  -1.294
   9   4.919   5.515  -0.596   0.431   0.959  -0.036  -1.949

(D)-timings
 V(i,a)*T(i,a) terms           ...   166.880 sec
 U(i,j,a,b) 3-internal         ...     5.221 sec
 U(i,j,a,b) 3-external         ...   108.273 sec
 U(i,j,a,b) pair terms         ...    97.441 sec
 Total measured time           ...   803.770 sec

 Time for (ab|v) I/O           ...    42.153 sec


------------------------------------
TD-DFT/TDA EXCITED STATES (SINGLETS)
------------------------------------

the weight of the individual excitations are printed if larger than 1.0e-02

STATE  1:  E=   0.090492 au      2.462 eV    19860.7 cm**-1 <S**2> =   0.000000
    52a ->  55a  :     0.014188 (c=  0.11911439)
    54a ->  55a  :     0.949929 (c=  0.97464281)

STATE  2:  E=   0.123303 au      3.355 eV    27061.8 cm**-1 <S**2> =   0.000000
    50a ->  55a  :     0.903290 (c=  0.95041589)
    50a ->  75a  :     0.015728 (c= -0.12541039)
    50a ->  77a  :     0.012264 (c= -0.11074356)

STATE  3:  E=   0.145174 au      3.950 eV    31862.0 cm**-1 <S**2> =   0.000000
    51a ->  55a  :     0.010517 (c=  0.10255419)
    53a ->  55a  :     0.276909 (c= -0.52622100)
    54a ->  56a  :     0.638150 (c=  0.79884269)
    54a ->  62a  :     0.013602 (c= -0.11662550)

STATE  4:  E=   0.156983 au      4.272 eV    34453.8 cm**-1 <S**2> =   0.000000
    51a ->  55a  :     0.171586 (c= -0.41422998)
    51a ->  56a  :     0.044259 (c= -0.21037726)
    52a ->  55a  :     0.449294 (c= -0.67029381)
    52a ->  56a  :     0.011364 (c=  0.10660059)
    53a ->  56a  :     0.014131 (c= -0.11887205)
    54a ->  56a  :     0.020203 (c=  0.14213745)
    54a ->  62a  :     0.201241 (c=  0.44859939)
    54a ->  63a  :     0.026873 (c= -0.16393082)

STATE  5:  E=   0.171260 au      4.660 eV    37587.2 cm**-1 <S**2> =   0.000000
    53a ->  55a  :     0.054848 (c=  0.23419665)
    54a ->  56a  :     0.026589 (c=  0.16306153)
    54a ->  57a  :     0.661510 (c= -0.81333289)
    54a ->  58a  :     0.074014 (c=  0.27205492)
    54a ->  59a  :     0.016032 (c= -0.12661865)
    54a ->  60a  :     0.034587 (c=  0.18597454)
    54a ->  64a  :     0.068493 (c=  0.26171113)

STATE  6:  E=   0.164762 au      4.483 eV    36161.0 cm**-1 <S**2> =   0.000000
    51a ->  55a  :     0.066211 (c=  0.25731477)
    52a ->  55a  :     0.011282 (c= -0.10621469)
    53a ->  55a  :     0.555913 (c=  0.74559544)
    54a ->  56a  :     0.197304 (c=  0.44418932)
    54a ->  57a  :     0.068153 (c=  0.26106176)
    54a ->  62a  :     0.016507 (c= -0.12847854)

STATE  7:  E=   0.168762 au      4.592 eV    37039.0 cm**-1 <S**2> =   0.000000
    51a ->  55a  :     0.405347 (c=  0.63666879)
    52a ->  55a  :     0.357587 (c= -0.59798554)
    52a ->  56a  :     0.010234 (c= -0.10116086)
    53a ->  55a  :     0.040610 (c= -0.20152011)
    54a ->  56a  :     0.058271 (c= -0.24139300)
    54a ->  58a  :     0.012994 (c= -0.11399234)
    54a ->  62a  :     0.021959 (c= -0.14818672)
    54a ->  63a  :     0.023164 (c=  0.15219829)

STATE  8:  E=   0.185706 au      5.053 eV    40757.9 cm**-1 <S**2> =   0.000000
    52a ->  55a  :     0.011608 (c=  0.10774006)
    52a ->  57a  :     0.022566 (c= -0.15022099)
    54a ->  57a  :     0.041305 (c= -0.20323716)
    54a ->  58a  :     0.606121 (c= -0.77853778)
    54a ->  59a  :     0.018770 (c=  0.13700518)
    54a ->  60a  :     0.065661 (c=  0.25624458)
    54a ->  61a  :     0.115050 (c= -0.33918981)
    54a ->  64a  :     0.020812 (c=  0.14426212)
    54a ->  65a  :     0.028795 (c= -0.16969213)

STATE  9:  E=   0.190254 au      5.177 eV    41755.9 cm**-1 <S**2> =   0.000000
    54a ->  58a  :     0.070854 (c=  0.26618426)
    54a ->  59a  :     0.774473 (c=  0.88004159)
    54a ->  61a  :     0.065036 (c= -0.25502193)
    54a ->  64a  :     0.022422 (c=  0.14974142)

STATE 10:  E=   0.180785 au      4.919 eV    39677.6 cm**-1 <S**2> =   0.000000
    51a ->  55a  :     0.156021 (c= -0.39499553)
    51a ->  56a  :     0.024545 (c=  0.15666978)
    52a ->  55a  :     0.082566 (c= -0.28734216)
    54a ->  59a  :     0.012981 (c=  0.11393410)
    54a ->  62a  :     0.603675 (c= -0.77696508)
    54a ->  63a  :     0.010245 (c= -0.10121514)
    54a ->  69a  :     0.010490 (c=  0.10242224)
    54a ->  77a  :     0.012742 (c= -0.11287982)


-----------------------------
TD-DFT/TDA-EXCITATION SPECTRA
-----------------------------

Center of mass = ( -0.5320,  0.0248,  0.3187)
Calculating the Dipole integrals                  ... done
Transforming integrals                            ... done
Calculating the Linear Momentum integrals         ... done
Transforming integrals                            ... done
Calculating angular momentum integrals            ... done
Transforming integrals                            ... done

-----------------------------------------------------------------------------
         ABSORPTION SPECTRUM VIA TRANSITION ELECTRIC DIPOLE MOMENTS
-----------------------------------------------------------------------------
State   Energy    Wavelength  fosc         T2        TX        TY        TZ  
        (cm-1)      (nm)                 (au**2)    (au)      (au)      (au) 
-----------------------------------------------------------------------------
   1   19860.7    503.5   0.026207782   0.43442  -0.62531  -0.10147  -0.18197
   2   27061.8    369.5   0.000001900   0.00002   0.00156   0.00163   0.00425
   3   31862.0    313.9   0.132495032   1.36900  -1.12112   0.02515   0.33385
   4   34453.8    290.2   0.057354562   0.54803  -0.62095  -0.15677  -0.37131
   5   37587.2    266.0   0.090567706   0.79325  -0.85884  -0.21621   0.09434
   6   36161.0    276.5   1.110779137  10.11260  -3.17557  -0.14186   0.09069
   7   37039.0    270.0   0.364265431   3.23768   1.37686  -0.25642  -1.12968
   8   40757.9    245.4   0.021469945   0.17342  -0.38153   0.09600   0.13651
   9   41755.9    239.5   0.009645814   0.07605   0.14655  -0.21839  -0.08293
  10   39677.6    252.0   0.092759502   0.76964   0.14980   0.23166   0.83279

-----------------------------------------------------------------------------
         ABSORPTION SPECTRUM VIA TRANSITION VELOCITY DIPOLE MOMENTS
-----------------------------------------------------------------------------
State   Energy    Wavelength   fosc        P2         PX        PY        PZ  
        (cm-1)      (nm)                 (au**2)     (au)      (au)      (au) 
-----------------------------------------------------------------------------
   1   19860.7    503.5   0.002607170   0.00035   0.00901  -0.00135  -0.01646
   2   27061.8    369.5   0.000000826   0.00000  -0.00027  -0.00012   0.00026
   3   31862.0    313.9   0.059983848   0.01306   0.11250   0.01833   0.00835
   4   34453.8    290.2   0.026362297   0.00621   0.07611   0.00062  -0.02037
   5   37587.2    266.0   0.042557533   0.01093   0.10089   0.02167  -0.01686
   6   36161.0    276.5   0.516860061   0.12774   0.35623   0.02146  -0.01936
   7   37039.0    270.0   0.135034085   0.03418  -0.17627   0.00304   0.05572
   8   40757.9    245.4   0.006441366   0.00179   0.04200  -0.00393  -0.00381
   9   41755.9    239.5   0.005717078   0.00163  -0.01855   0.03582  -0.00214
  10   39677.6    252.0   0.004402634   0.00119  -0.00526  -0.00312  -0.03401

-------------------------------------------------------------------
                             CD SPECTRUM
-------------------------------------------------------------------
State  Energy     Wavelength     R         MX        MY        MZ   
       (cm-1)       (nm)     (1e40*cgs)   (au)      (au)      (au)  
-------------------------------------------------------------------
   1   19860.7    503.5      4.01946  -0.04224   0.50841  -0.18522
   2   27061.8    369.5     -0.76888  -0.06250  -0.10196  -0.32203
   3   31862.0    313.9    -12.86195  -0.01247   0.40104  -0.15381
   4   34453.8    290.2      7.09139   0.00995  -0.37823   0.10254
   5   37587.2    266.0    -22.59955   0.06137  -0.04950  -0.06288
   6   36161.0    276.5      6.34559  -0.00133  -0.05987   0.00836
   7   37039.0    270.0     -2.79006  -0.00477  -0.23314   0.05235
   8   40757.9    245.4     -0.35708  -0.07740  -0.03722  -0.19568
   9   41755.9    239.5     17.06235   0.08173  -0.05357  -0.15090
  10   39677.6    252.0    -25.35025  -0.00138   0.23090  -0.12855

-------------------------------------------------------------------
         CD SPECTRUM VIA TRANSITION VELOCITY DIPOLE MOMENTS        
-------------------------------------------------------------------
State  Energy     Wavelength     R         MX        MY        MZ   
       (cm-1)       (nm)     (1e40*cgs)   (au)      (au)      (au)  
-------------------------------------------------------------------
   1   19860.7    503.5     10.32530  -0.04224   0.50841  -0.18522
   2   27061.8    369.5     -0.20281  -0.06250  -0.10196  -0.32203
   3   31862.0    313.9     15.14007  -0.01247   0.40104  -0.15381
   4   34453.8    290.2     -4.70315   0.00995  -0.37823   0.10254
   5   37587.2    266.0     17.00877   0.06137  -0.04950  -0.06288
   6   36161.0    276.5     -5.49047  -0.00133  -0.05987   0.00836
   7   37039.0    270.0      8.51643  -0.00477  -0.23314   0.05235
   8   40757.9    245.4     -5.99117  -0.07740  -0.03722  -0.19568
   9   41755.9    239.5     -7.71135   0.08173  -0.05357  -0.15090
  10   39677.6    252.0      9.54264  -0.00138   0.23090  -0.12855

Total run time:     1726.293 sec

           *** ORCA-CIS/TD-DFT FINISHED WITHOUT ERROR ***

Maximum memory used throughout the entire CIS-calculation: 760.5 MB

-----------------------
CIS/TD-DFT TOTAL ENERGY
-----------------------

    E(SCF)  =   -668.931480204 Eh
    DE(CIS) =      0.090491949 Eh (Root  1)
    ----------------------------- ---------
    E(tot)  =   -668.840988255 Eh



-------------------------------------------------------------------------------
                          DFT DISPERSION CORRECTION                            
                                                                               
                              DFTD3 V3.1  Rev 1                                
                          USING Becke-Johnson damping                          
-------------------------------------------------------------------------------
The B2PLYP functional is recognized
Active option DFTDOPT                   ...         4   

molecular C6(AA) [au] = 9158.470240 


            DFT-D V3
 parameters
 s6 scaling factor         :     0.6400 
 a1 scaling factor         :     0.3065 
 s8 scaling factor         :     0.9147 
 a2 scaling factor         :     5.0570 
 ad hoc parameters k1-k3   :    16.0000     1.3333    -4.0000 

 Edisp/kcal,au: -17.312509090426  -0.027589236433 
 E6   /kcal   :  -9.602766394 
 E8   /kcal   :  -7.709742696 
 % E8         :  44.532786413 

-------------------------   ----------------
Dispersion correction           -0.027589236
-------------------------   ----------------


-------------------------   --------------------
FINAL SINGLE POINT ENERGY      -668.868577491727
-------------------------   --------------------


                            ***************************************
                            *     ORCA property calculations      *
                            ***************************************


  WARNING: The energy has been calculated at the MP2 level but the densities
           used in the property calculations are still SCF densities
           MP2 response densities have not been calculated 
           use %mp2 Density relaxed end
           or  %mp2 Density unrelaxed end

                                    ---------------------
                                    Active property flags
                                    ---------------------
   (+) Dipole Moment


------------------------------------------------------------------------------
                       ORCA ELECTRIC PROPERTIES CALCULATION
------------------------------------------------------------------------------

Dipole Moment Calculation                       ... on
Quadrupole Moment Calculation                   ... off
Polarizability Calculation                      ... off
GBWName                                         ... optpbed3-b2plyp-test-388_job2.gbw
Electron density                                ... optpbed3-b2plyp-test-388_job2.scfp
The origin for moment calculation is the CENTER OF MASS  = (-0.531980,  0.024841  0.318652)

-------------
DIPOLE MOMENT
-------------
                                X             Y             Z
Electronic contribution:     -7.44670      -0.29478       1.81514
Nuclear contribution   :      8.41377      -0.07108      -3.87488
                        -----------------------------------------
Total Dipole Moment    :      0.96707      -0.36586      -2.05973
                        -----------------------------------------
Magnitude (a.u.)       :      2.30469
Magnitude (Debye)      :      5.85805



--------------------
Rotational spectrum 
--------------------
 
Rotational constants in cm-1:     0.045553     0.010956     0.008850 
Rotational constants in MHz :  1365.638629   328.441605   265.306006 

 Dipole components along the rotational axes: 
x,y,z [a.u.] :     1.152524     1.980130     0.249705 
x,y,z [Debye]:     2.929484     5.033091     0.634699 

 

Timings for individual modules:

Sum of individual times         ...     2786.288 sec (=  46.438 min)
GTO integral calculation        ...        4.215 sec (=   0.070 min)   0.2 %
SCF iterations                  ...      638.901 sec (=  10.648 min)  22.9 %
MP2 module                      ...      416.274 sec (=   6.938 min)  14.9 %
CIS module                      ...     1726.898 sec (=  28.782 min)  62.0 %



                             ****ORCA TERMINATED NORMALLY****
TOTAL RUN TIME: 0 days 2 hours 3 minutes 34 seconds 669 msec
