
                                 *****************
                                 * O   R   C   A *
                                 *****************

                                            #,                                       
                                            ###                                      
                                            ####                                     
                                            #####                                    
                                            ######                                   
                                           ########,                                 
                                     ,,################,,,,,                         
                               ,,#################################,,                 
                          ,,##########################################,,             
                       ,#########################################, ''#####,          
                    ,#############################################,,   '####,        
                  ,##################################################,,,,####,       
                ,###########''''           ''''###############################       
              ,#####''   ,,,,##########,,,,          '''####'''          '####       
            ,##' ,,,,###########################,,,                        '##       
           ' ,,###''''                  '''############,,,                           
         ,,##''                                '''############,,,,        ,,,,,,###''
      ,#''                                            '''#######################'''  
     '                                                          ''''####''''         
             ,#######,   #######,   ,#######,      ##                                
            ,#'     '#,  ##    ##  ,#'     '#,    #''#        ######   ,####,        
            ##       ##  ##   ,#'  ##            #'  '#       #        #'  '#        
            ##       ##  #######   ##           ,######,      #####,   #    #        
            '#,     ,#'  ##    ##  '#,     ,#' ,#      #,         ##   #,  ,#        
             '#######'   ##     ##  '#######'  #'      '#     #####' # '####'        



                  #######################################################
                  #                        -***-                        #
                  #          Department of theory and spectroscopy      #
                  #    Directorship and core code : Frank Neese         #
                  #        Max Planck Institute fuer Kohlenforschung    #
                  #                Kaiser Wilhelm Platz 1               #
                  #                 D-45470 Muelheim/Ruhr               #
                  #                      Germany                        #
                  #                                                     #
                  #                  All rights reserved                #
                  #                        -***-                        #
                  #######################################################


                         Program Version 5.0.2 -  RELEASE  -


 With contributions from (in alphabetic order):
   Daniel Aravena         : Magnetic Suceptibility
   Michael Atanasov       : Ab Initio Ligand Field Theory (pilot matlab implementation)
   Alexander A. Auer      : GIAO ZORA, VPT2 properties, NMR spectrum
   Ute Becker             : Parallelization
   Giovanni Bistoni       : ED, misc. LED, open-shell LED, HFLD
   Martin Brehm           : Molecular dynamics
   Dmytro Bykov           : SCF Hessian
   Vijay G. Chilkuri      : MRCI spin determinant printing, contributions to CSF-ICE
   Dipayan Datta          : RHF DLPNO-CCSD density
   Achintya Kumar Dutta   : EOM-CC, STEOM-CC
   Dmitry Ganyushin       : Spin-Orbit,Spin-Spin,Magnetic field MRCI
   Miquel Garcia          : C-PCM and meta-GGA Hessian, CC/C-PCM, Gaussian charge scheme
   Yang Guo               : DLPNO-NEVPT2, F12-NEVPT2, CIM, IAO-localization
   Andreas Hansen         : Spin unrestricted coupled pair/coupled cluster methods
   Benjamin Helmich-Paris : MC-RPA, TRAH-SCF, COSX integrals
   Lee Huntington         : MR-EOM, pCC
   Robert Izsak           : Overlap fitted RIJCOSX, COSX-SCS-MP3, EOM
   Marcus Kettner         : VPT2
   Christian Kollmar      : KDIIS, OOCD, Brueckner-CCSD(T), CCSD density, CASPT2, CASPT2-K
   Simone Kossmann        : Meta GGA functionals, TD-DFT gradient, OOMP2, MP2 Hessian
   Martin Krupicka        : Initial AUTO-CI
   Lucas Lang             : DCDCAS
   Marvin Lechner         : AUTO-CI (C++ implementation), FIC-MRCC
   Dagmar Lenk            : GEPOL surface, SMD
   Dimitrios Liakos       : Extrapolation schemes; Compound Job, initial MDCI parallelization
   Dimitrios Manganas     : Further ROCIS development; embedding schemes
   Dimitrios Pantazis     : SARC Basis sets
   Anastasios Papadopoulos: AUTO-CI, single reference methods and gradients
   Taras Petrenko         : DFT Hessian,TD-DFT gradient, ASA, ECA, R-Raman, ABS, FL, XAS/XES, NRVS
   Peter Pinski           : DLPNO-MP2, DLPNO-MP2 Gradient
   Christoph Reimann      : Effective Core Potentials
   Marius Retegan         : Local ZFS, SOC
   Christoph Riplinger    : Optimizer, TS searches, QM/MM, DLPNO-CCSD(T), (RO)-DLPNO pert. Triples
   Tobias Risthaus        : Range-separated hybrids, TD-DFT gradient, RPA, STAB
   Michael Roemelt        : Original ROCIS implementation
   Masaaki Saitow         : Open-shell DLPNO-CCSD energy and density
   Barbara Sandhoefer     : DKH picture change effects
   Avijit Sen             : IP-ROCIS
   Kantharuban Sivalingam : CASSCF convergence, NEVPT2, FIC-MRCI
   Bernardo de Souza      : ESD, SOC TD-DFT
   Georgi Stoychev        : AutoAux, RI-MP2 NMR, DLPNO-MP2 response
   Willem Van den Heuvel  : Paramagnetic NMR
   Boris Wezisla          : Elementary symmetry handling
   Frank Wennmohs         : Technical directorship


 We gratefully acknowledge several colleagues who have allowed us to
 interface, adapt or use parts of their codes:
   Stefan Grimme, W. Hujo, H. Kruse, P. Pracht,  : VdW corrections, initial TS optimization,
                  C. Bannwarth, S. Ehlert          DFT functionals, gCP, sTDA/sTD-DF
   Ed Valeev, F. Pavosevic, A. Kumar             : LibInt (2-el integral package), F12 methods
   Garnet Chan, S. Sharma, J. Yang, R. Olivares  : DMRG
   Ulf Ekstrom                                   : XCFun DFT Library
   Mihaly Kallay                                 : mrcc  (arbitrary order and MRCC methods)
   Jiri Pittner, Ondrej Demel                    : Mk-CCSD
   Frank Weinhold                                : gennbo (NPA and NBO analysis)
   Christopher J. Cramer and Donald G. Truhlar   : smd solvation model
   Lars Goerigk                                  : TD-DFT with DH, B97 family of functionals
   V. Asgeirsson, H. Jonsson                     : NEB implementation
   FAccTs GmbH                                   : IRC, NEB, NEB-TS, DLPNO-Multilevel, CI-OPT
                                                   MM, QMMM, 2- and 3-layer-ONIOM, Crystal-QMMM,
                                                   LR-CPCM, SF, NACMEs, symmetry and pop. for TD-DFT,
                                                   nearIR, NL-DFT gradient (VV10), updates on ESD,
                                                   ML-optimized integration grids
   S Lehtola, MJT Oliveira, MAL Marques          : LibXC Library
   Liviu Ungur et al                             : ANISO software


 Your calculation uses the libint2 library for the computation of 2-el integrals
 For citations please refer to: http://libint.valeyev.net

 Your ORCA version has been built with support for libXC version: 5.1.0
 For citations please refer to: https://tddft.org/programs/libxc/

 This ORCA versions uses:
   CBLAS   interface :  Fast vector & matrix operations
   LAPACKE interface :  Fast linear algebra routines
   SCALAPACK package :  Parallel linear algebra routines
   Shared memory     :  Shared parallel matrices
   BLAS/LAPACK       :  OpenBLAS 0.3.15  USE64BITINT DYNAMIC_ARCH NO_AFFINITY Haswell SINGLE_THREADED
        Core in use  :  Haswell
   Copyright (c) 2011-2014, The OpenBLAS Project


Your calculation utilizes the atom-pairwise dispersion correction
with the Becke-Johnson damping scheme (D3BJ)
Cite in your paper:
S.Grimme, S.Ehrlich, L.Goerigk, J Comput Chem, (2011), 32, 1456–1465 
S.Grimme, J.Antony, S.Ehrlich and H.Krieg, J.Chem.Phys., 132, (2010), 154104 
   

Your calculation utilizes the SMD solvation module
Please cite in your paper:
A.V. Marenich, C.J. Cramer, D.G. Truhlar J. Phys. Chem. B, 113, (2009), 6378 

================================================================================

----- Orbital basis set information -----
Your calculation utilizes the basis: aug-cc-pVTZ 
    H, B-Ne : Obtained from the ccRepo (grant-hill.group.shef.ac.uk/ccrepo) Feb. 2017
              R. A. Kendall, T. H. Dunning, Jr., R. J. Harrison, J. Chem. Phys. 96, 6796 (1992)
         He : Obtained from the ccRepo (grant-hill.group.shef.ac.uk/ccrepo) Feb. 2017
              D. E. Woon, T. H. Dunning, Jr., J. Chem. Phys. 100, 2975 (1994)
  Li-Be, Na : Obtained from the ccRepo (grant-hill.group.shef.ac.uk/ccrepo) Feb. 2017
              B. P. Prascher, D. E. Woon, K. A. Peterson, T. H. Dunning, Jr., A. K. Wilson, Theor. Chem. Acc. 128, 69 (2011)
         Mg : Obtained from the Peterson Research Group Website (tyr0.chem.wsu.edu/~kipeters) Feb. 2017
              B. P. Prascher, D. E. Woon, K. A. Peterson, T. H. Dunning, Jr., A. K. Wilson, Theor. Chem. Acc. 128, 69 (2011)
      Al-Ar : Obtained from the ccRepo (grant-hill.group.shef.ac.uk/ccrepo) Feb. 2017
              D. E. Woon, T. H. Dunning, Jr., J. Chem. Phys. 98, 1358 (1993)
      Sc-Zn : Obtained from the ccRepo (grant-hill.group.shef.ac.uk/ccrepo) Feb. 2017
              N. B. Balabanov, K. A. Peterson, J. Chem. Phys. 123, 064107 (2005)
              N. B. Balabanov, K. A. Peterson, J. Chem. Phys. 125, 074110 (2006)
      Ga-Kr : Obtained from the ccRepo (grant-hill.group.shef.ac.uk/ccrepo) Feb. 2017
              A. K. Wilson, D. E. Woon, K. A. Peterson, T. H. Dunning, Jr., J. Chem. Phys. 110, 7667 (1999)
     Ag, Au : Obtained from the Peterson Research Group Website (tyr0.chem.wsu.edu/~kipeters) Feb. 2017
              K. A. Peterson, C. Puzzarini, Theor. Chem. Acc. 114, 283 (2005)

The basis set includes element-specific modifications.

Your calculation utilizes the basis: cc-pVTZ 
       H, B-Ne : Obtained from the ccRepo (grant-hill.group.shef.ac.uk/ccrepo) Feb. 2017
                 T. H. Dunning, Jr., J. Chem. Phys. 90, 1007 (1989)
            He : Obtained from the ccRepo (grant-hill.group.shef.ac.uk/ccrepo) Feb. 2017
                 D. E. Woon, T. H. Dunning, Jr., J. Chem. Phys. 100, 2975 (1994)
  Li-Be, Na-Mg : Obtained from the ccRepo (grant-hill.group.shef.ac.uk/ccrepo) Feb. 2017
                 B. P. Prascher, D. E. Woon, K. A. Peterson, T. H. Dunning, Jr., A. K. Wilson, Theor. Chem. Acc. 128, 69 (2011)
         Al-Ar : Obtained from the ccRepo (grant-hill.group.shef.ac.uk/ccrepo) Feb. 2017
                 D. E. Woon, T. H. Dunning, Jr., J. Chem. Phys. 98, 1358 (1993)
            Ca : Obtained from the Peterson Research Group Website (tyr0.chem.wsu.edu/~kipeters) Feb. 2017
                 J. Koput, K. A. Peterson, J. Phys. Chem. 106, 9595 (2002)
         Sc-Zn : Obtained from the ccRepo (grant-hill.group.shef.ac.uk/ccrepo) Feb. 2017
                 N. B. Balabanov, K. A. Peterson, J. Chem. Phys. 123, 064107 (2005)
                 N. B. Balabanov, K. A. Peterson, J. Chem. Phys. 125, 074110 (2006)
         Ga-Kr : Obtained from the ccRepo (grant-hill.group.shef.ac.uk/ccrepo) Feb. 2017
                 A. K. Wilson, D. E. Woon, K. A. Peterson, T. H. Dunning, Jr., J. Chem. Phys. 110, 7667 (1999)
             Y : Obtained from the ccRepo (grant-hill.group.shef.ac.uk/ccrepo) Feb. 2017
                 K. A. Peterson, D. Figgen, M. Dolg, H. Stoll, J. Chem. Phys. 126, 124101 (2007)
        Ag, Au : Obtained from the Peterson Research Group Website (tyr0.chem.wsu.edu/~kipeters) Feb. 2017
                 K. A. Peterson, C. Puzzarini, Theor. Chem. Acc. 114, 283 (2005)

----- AuxJ basis set information -----
Your calculation utilizes the auxiliary basis: aug-cc-pVTZ/JK 
  H, B-F, Al-Cl, Ga-Br : Obtained from the TURBOMOLE 7.0 basis set library

The basis set includes element-specific modifications.

Your calculation utilizes the auxiliary basis: cc-pVTZ/JK 
  H, B-F, Al-Cl, Ga-Br : Obtained from the TURBOMOLE 7.0 basis set library

----- AuxC basis set information -----
Your calculation utilizes the auxiliary basis: aug-cc-pVTZ/C 
  H-He, B-F, Al-Ar, Ga-Kr : Obtained from the EMSL Basis Set Exchange (bse.pnl.gov) Feb. 2017
                            F. Weigend, A. Kohn, C. Hattig, J. Chem. Phys. 116, 3175 (2002)
                   Be, Mg : Obtained from the TURBOMOLE 7.0 basis set library
                            C. Haettig, Phys. Chem. Chem. Phys. 7, 59 (2005)
                       Ne : Obtained from the EMSL Basis Set Exchange (bse.pnl.gov) Feb. 2017
                            C. Haettig, Phys. Chem. Chem. Phys. 7, 59 (2005)
                            F. Weigend, A. Kohn, C. Hattig, J. Chem. Phys. 116, 3175 (2002)
                    Sc-Zn : Obtained from the EMSL Basis Set Exchange (bse.pnl.gov) Feb. 2017
                            J. G. Hill, J. A. Platts, J. Chem. Phys. 128, 044104 (2008)

The basis set includes element-specific modifications.

Your calculation utilizes the auxiliary basis: cc-pVTZ/C 
  Obtained from the EMSL Basis Set Exchange (bse.pnl.gov) Feb. 2017
  H-He, B-F, Al-Ar, Ga-Kr : F. Weigend, A. Kohn, C. Hattig, J. Chem. Phys. 116, 3175 (2002)
             Li-Be, Na-Mg : C. Haettig, Phys. Chem. Chem. Phys. 7, 59 (2005)
                       Ne : C. Haettig, Phys. Chem. Chem. Phys. 7, 59 (2005)
                            F. Weigend, A. Kohn, C. Hattig, J. Chem. Phys. 116, 3175 (2002)
                    Sc-Zn : J. G. Hill, J. A. Platts, J. Chem. Phys. 128, 044104 (2008)

================================================================================
                                        WARNINGS
                       Please study these warnings very carefully!
================================================================================


WARNING: Geometry Optimization
  ===> : Switching off AutoStart
         For restart on a previous wavefunction, please use MOREAD

INFO   : the flag for use of the SHARK integral package has been found!



***************************************
The coordinates will be read from file: 
***************************************


Your calculation utilizes the atom-pairwise dispersion correction
with the Becke-Johnson damping scheme (D3BJ)
Cite in your paper:
S.Grimme, S.Ehrlich, L.Goerigk, J Comput Chem, (2011), 32, 1456–1465 
S.Grimme, J.Antony, S.Ehrlich and H.Krieg, J.Chem.Phys., 132, (2010), 154104 
   

Your calculation utilizes the SMD solvation module
Please cite in your paper:
A.V. Marenich, C.J. Cramer, D.G. Truhlar J. Phys. Chem. B, 113, (2009), 6378 

================================================================================

----- Orbital basis set information -----
Your calculation utilizes the basis: aug-cc-pVTZ 
    H, B-Ne : Obtained from the ccRepo (grant-hill.group.shef.ac.uk/ccrepo) Feb. 2017
              R. A. Kendall, T. H. Dunning, Jr., R. J. Harrison, J. Chem. Phys. 96, 6796 (1992)
         He : Obtained from the ccRepo (grant-hill.group.shef.ac.uk/ccrepo) Feb. 2017
              D. E. Woon, T. H. Dunning, Jr., J. Chem. Phys. 100, 2975 (1994)
  Li-Be, Na : Obtained from the ccRepo (grant-hill.group.shef.ac.uk/ccrepo) Feb. 2017
              B. P. Prascher, D. E. Woon, K. A. Peterson, T. H. Dunning, Jr., A. K. Wilson, Theor. Chem. Acc. 128, 69 (2011)
         Mg : Obtained from the Peterson Research Group Website (tyr0.chem.wsu.edu/~kipeters) Feb. 2017
              B. P. Prascher, D. E. Woon, K. A. Peterson, T. H. Dunning, Jr., A. K. Wilson, Theor. Chem. Acc. 128, 69 (2011)
      Al-Ar : Obtained from the ccRepo (grant-hill.group.shef.ac.uk/ccrepo) Feb. 2017
              D. E. Woon, T. H. Dunning, Jr., J. Chem. Phys. 98, 1358 (1993)
      Sc-Zn : Obtained from the ccRepo (grant-hill.group.shef.ac.uk/ccrepo) Feb. 2017
              N. B. Balabanov, K. A. Peterson, J. Chem. Phys. 123, 064107 (2005)
              N. B. Balabanov, K. A. Peterson, J. Chem. Phys. 125, 074110 (2006)
      Ga-Kr : Obtained from the ccRepo (grant-hill.group.shef.ac.uk/ccrepo) Feb. 2017
              A. K. Wilson, D. E. Woon, K. A. Peterson, T. H. Dunning, Jr., J. Chem. Phys. 110, 7667 (1999)
     Ag, Au : Obtained from the Peterson Research Group Website (tyr0.chem.wsu.edu/~kipeters) Feb. 2017
              K. A. Peterson, C. Puzzarini, Theor. Chem. Acc. 114, 283 (2005)

The basis set includes element-specific modifications.

Your calculation utilizes the basis: cc-pVTZ 
       H, B-Ne : Obtained from the ccRepo (grant-hill.group.shef.ac.uk/ccrepo) Feb. 2017
                 T. H. Dunning, Jr., J. Chem. Phys. 90, 1007 (1989)
            He : Obtained from the ccRepo (grant-hill.group.shef.ac.uk/ccrepo) Feb. 2017
                 D. E. Woon, T. H. Dunning, Jr., J. Chem. Phys. 100, 2975 (1994)
  Li-Be, Na-Mg : Obtained from the ccRepo (grant-hill.group.shef.ac.uk/ccrepo) Feb. 2017
                 B. P. Prascher, D. E. Woon, K. A. Peterson, T. H. Dunning, Jr., A. K. Wilson, Theor. Chem. Acc. 128, 69 (2011)
         Al-Ar : Obtained from the ccRepo (grant-hill.group.shef.ac.uk/ccrepo) Feb. 2017
                 D. E. Woon, T. H. Dunning, Jr., J. Chem. Phys. 98, 1358 (1993)
            Ca : Obtained from the Peterson Research Group Website (tyr0.chem.wsu.edu/~kipeters) Feb. 2017
                 J. Koput, K. A. Peterson, J. Phys. Chem. 106, 9595 (2002)
         Sc-Zn : Obtained from the ccRepo (grant-hill.group.shef.ac.uk/ccrepo) Feb. 2017
                 N. B. Balabanov, K. A. Peterson, J. Chem. Phys. 123, 064107 (2005)
                 N. B. Balabanov, K. A. Peterson, J. Chem. Phys. 125, 074110 (2006)
         Ga-Kr : Obtained from the ccRepo (grant-hill.group.shef.ac.uk/ccrepo) Feb. 2017
                 A. K. Wilson, D. E. Woon, K. A. Peterson, T. H. Dunning, Jr., J. Chem. Phys. 110, 7667 (1999)
             Y : Obtained from the ccRepo (grant-hill.group.shef.ac.uk/ccrepo) Feb. 2017
                 K. A. Peterson, D. Figgen, M. Dolg, H. Stoll, J. Chem. Phys. 126, 124101 (2007)
        Ag, Au : Obtained from the Peterson Research Group Website (tyr0.chem.wsu.edu/~kipeters) Feb. 2017
                 K. A. Peterson, C. Puzzarini, Theor. Chem. Acc. 114, 283 (2005)

----- AuxJ basis set information -----
Your calculation utilizes the auxiliary basis: aug-cc-pVTZ/JK 
  H, B-F, Al-Cl, Ga-Br : Obtained from the TURBOMOLE 7.0 basis set library

The basis set includes element-specific modifications.

Your calculation utilizes the auxiliary basis: cc-pVTZ/JK 
  H, B-F, Al-Cl, Ga-Br : Obtained from the TURBOMOLE 7.0 basis set library

----- AuxC basis set information -----
Your calculation utilizes the auxiliary basis: aug-cc-pVTZ/C 
  H-He, B-F, Al-Ar, Ga-Kr : Obtained from the EMSL Basis Set Exchange (bse.pnl.gov) Feb. 2017
                            F. Weigend, A. Kohn, C. Hattig, J. Chem. Phys. 116, 3175 (2002)
                   Be, Mg : Obtained from the TURBOMOLE 7.0 basis set library
                            C. Haettig, Phys. Chem. Chem. Phys. 7, 59 (2005)
                       Ne : Obtained from the EMSL Basis Set Exchange (bse.pnl.gov) Feb. 2017
                            C. Haettig, Phys. Chem. Chem. Phys. 7, 59 (2005)
                            F. Weigend, A. Kohn, C. Hattig, J. Chem. Phys. 116, 3175 (2002)
                    Sc-Zn : Obtained from the EMSL Basis Set Exchange (bse.pnl.gov) Feb. 2017
                            J. G. Hill, J. A. Platts, J. Chem. Phys. 128, 044104 (2008)

The basis set includes element-specific modifications.

Your calculation utilizes the auxiliary basis: cc-pVTZ/C 
  Obtained from the EMSL Basis Set Exchange (bse.pnl.gov) Feb. 2017
  H-He, B-F, Al-Ar, Ga-Kr : F. Weigend, A. Kohn, C. Hattig, J. Chem. Phys. 116, 3175 (2002)
             Li-Be, Na-Mg : C. Haettig, Phys. Chem. Chem. Phys. 7, 59 (2005)
                       Ne : C. Haettig, Phys. Chem. Chem. Phys. 7, 59 (2005)
                            F. Weigend, A. Kohn, C. Hattig, J. Chem. Phys. 116, 3175 (2002)
                    Sc-Zn : J. G. Hill, J. A. Platts, J. Chem. Phys. 128, 044104 (2008)

================================================================================
                                        WARNINGS
                       Please study these warnings very carefully!
================================================================================

INFO   : Checking CIS options ...
  ===> : (D) CORRECTION FOUND - SETTING MODE=3
  ===> : JK MODE FOUND - ACTIVATING RI-MP2 CODE
  ===> : MP2 AND CIS FOUND - CHECKING
WARNING: CIS(D) and MP2 runs must have the same orbital window
  ===> : adjusting orbital windows

WARNING: No MP2 level density has been requested!
         To caclulate MP2 level properties use
         %mp2 Density relaxed end
         or
         %mp2 Density unrelaxed end
         Otherwise for double-hybrid DFT only the energy is correct!

WARNING: The frozen-core approximation is turned on by default for 
         the MP2 part of double-hybrid DFT.

INFO   : the flag for use of the SHARK integral package has been found!

================================================================================
                                       INPUT FILE
================================================================================
NAME = optpbed3-b2plyp-test-513.inp
|  1> ! pbe0 d3bj aug-cc-PVTZ RIJCOSX Opt
|  2> %maxcore 4000
|  3> %basis
|  4>  AuxJ "aug-cc-PVTZ/JK"
|  5>  AuxC "aug-cc-PVTZ/C"
|  6>  newGTO H "cc-PVTZ" end
|  7>  newAuxJGTO H "cc-PVTZ/JK" end
|  8>  newAuxCGTO H "cc-PVTZ/C" end
|  9> end
| 10> %cpcm
| 11>  SMD true
| 12>  SMDsolvent "benzene"
| 13> end
| 14> %pal nprocs 4 end
| 15> * xyz 0 1
| 16> O          1.24960        0.63320        2.70590
| 17> C          0.85880        0.36950        1.59500
| 18> O         -0.49740        0.37810        1.40510
| 19> C         -1.05010        0.10180        0.20360
| 20> C         -0.22990       -0.20170       -0.87970
| 21> C         -0.81450       -0.48990       -2.13860
| 22> C         -2.16430       -0.46980       -2.28570
| 23> C         -3.02180       -0.16330       -1.19540
| 24> C         -4.41540       -0.13980       -1.33760
| 25> C         -5.23000        0.16020       -0.26620
| 26> O         -6.57170        0.17060       -0.45420
| 27> C         -4.66430        0.44750        0.99010
| 28> C         -3.30800        0.43180        1.15680
| 29> C         -2.45990        0.12840        0.07570
| 30> N          1.12000       -0.22450       -0.74080
| 31> C          1.67440        0.03750        0.40480
| 32> C          3.13540       -0.01090        0.46300
| 33> C          3.83020       -0.32070       -0.71330
| 34> C          5.20730       -0.38320       -0.72330
| 35> C          5.92360       -0.13830        0.43910
| 36> C          5.24790        0.16890        1.60790
| 37> C          3.86660        0.23370        1.62740
| 38> H         -0.15120       -0.72080       -2.95640
| 39> H         -2.61480       -0.68830       -3.24220
| 40> H         -4.86630       -0.35750       -2.29280
| 41> H         -7.02270        0.39410        0.36950
| 42> H         -5.31530        0.68090        1.82220
| 43> H         -2.86610        0.65080        2.11630
| 44> H          3.26180       -0.50890       -1.61000
| 45> H          5.72850       -0.62340       -1.63850
| 46> H          7.00270       -0.18710        0.43200
| 47> H          5.80070        0.36050        2.51580
| 48> H          3.35600        0.47390        2.54450
| 49> *
| 50> 
| 51> 
| 52> $new_job
| 53> ! b2plyp aug-cc-PVTZ RIJCOSX SP
| 54> %maxcore 4000
| 55> %basis
| 56>  AuxJ "aug-cc-PVTZ/JK"
| 57>  AuxC "aug-cc-PVTZ/C"
| 58>  newGTO H "cc-PVTZ" end
| 59>  newAuxJGTO H "cc-PVTZ/JK" end
| 60>  newAuxCGTO H "cc-PVTZ/C" end
| 61> end
| 62> %cpcm
| 63>  SMD true
| 64>  SMDsolvent "benzene"
| 65> end
| 66> %pal nprocs 4 end
| 67> %tddft
| 68>  nroots 10
| 69>  maxdim 7
| 70> end
| 71> * xyzfile 0 1
| 72> 
| 73>                          ****END OF INPUT****
================================================================================


                 $$$$$$$$$$$$$$$$$$$$$$$$$$$$$$$$$$$$$$$$$$$$$$ 
                 $ THERE ARE  2 JOBS TO BE PROCESSED THIS RUN $
                 $$$$$$$$$$$$$$$$$$$$$$$$$$$$$$$$$$$$$$$$$$$$$$ 




                 $$$$$$$$$$$$$$$$  JOB NUMBER  1 $$$$$$$$$$$$$$


                       *****************************
                       * Geometry Optimization Run *
                       *****************************

Geometry optimization settings:
Update method            Update   .... BFGS
Choice of coordinates    CoordSys .... Z-matrix Internals
Initial Hessian          InHess   .... Almoef's Model

Convergence Tolerances:
Energy Change            TolE     ....  5.0000e-06 Eh
Max. Gradient            TolMAXG  ....  3.0000e-04 Eh/bohr
RMS Gradient             TolRMSG  ....  1.0000e-04 Eh/bohr
Max. Displacement        TolMAXD  ....  4.0000e-03 bohr
RMS Displacement         TolRMSD  ....  2.0000e-03 bohr
Strict Convergence                ....  False
------------------------------------------------------------------------------
                        ORCA OPTIMIZATION COORDINATE SETUP
------------------------------------------------------------------------------

The optimization will be done in new redundant internal coordinates
Making redundant internal coordinates   ...  (new redundants) done
Evaluating the initial hessian          ...  (Almloef) done
Evaluating the coordinates              ...  done
Calculating the B-matrix                .... done
Calculating the G-matrix                .... done
Diagonalizing the G-matrix              .... done
Small eigenvalue found = 5.052e-03
Small eigenvalue found = 1.746e-02
Small eigenvalue found = 2.422e-02
The first mode is                       ....   86
The number of degrees of freedom        ....   93

    -----------------------------------------------------------------
                    Redundant Internal Coordinates


    -----------------------------------------------------------------
         Definition                    Initial Value    Approx d2E/dq
    -----------------------------------------------------------------
      1. B(C   1,O   0)                  1.2068         1.096889   
      2. B(O   2,C   1)                  1.3695         0.603461   
      3. B(C   3,O   2)                  1.3511         0.645606   
      4. B(C   4,C   3)                  1.3923         0.619638   
      5. B(C   5,C   4)                  1.4176         0.564512   
      6. B(C   6,C   5)                  1.3579         0.702890   
      7. B(C   7,C   6)                  1.4206         0.558438   
      8. B(C   8,C   7)                  1.4010         0.599979   
      9. B(C   9,C   8)                  1.3789         0.650709   
     10. B(O  10,C   9)                  1.3548         0.636736   
     11. B(C  11,C   9)                  1.4074         0.586053   
     12. B(C  12,C  11)                  1.3666         0.680891   
     13. B(C  13,C  12)                  1.4072         0.586623   
     14. B(C  13,C   7)                  1.4200         0.559513   
     15. B(C  13,C   3)                  1.4158         0.568215   
     16. B(N  14,C   4)                  1.3572         0.631213   
     17. B(C  15,N  14)                  1.2994         0.780630   
     18. B(C  15,C   1)                  1.4805         0.448007   
     19. B(C  16,C  15)                  1.4630         0.477899   
     20. B(C  17,C  16)                  1.4009         0.600364   
     21. B(C  18,C  17)                  1.3786         0.651629   
     22. B(C  19,C  18)                  1.3872         0.631330   
     23. B(C  20,C  19)                  1.3846         0.637383   
     24. B(C  21,C  20)                  1.3830         0.641174   
     25. B(C  21,C  16)                  1.3965         0.609976   
     26. B(H  22,C   5)                  1.0780         0.376333   
     27. B(H  23,C   6)                  1.0796         0.374093   
     28. B(H  24,C   8)                  1.0785         0.375672   
     29. B(H  25,O  10)                  0.9653         0.509900   
     30. B(H  26,C  11)                  1.0820         0.370876   
     31. B(H  27,C  12)                  1.0788         0.375182   
     32. B(H  28,C  17)                  1.0782         0.376019   
     33. B(H  29,C  18)                  1.0802         0.373234   
     34. B(H  30,C  19)                  1.0802         0.373264   
     35. B(H  31,C  20)                  1.0801         0.373460   
     36. B(H  32,C  21)                  1.0768         0.378003   
     37. A(O   2,C   1,C  15)          115.8158         0.405023   
     38. A(O   0,C   1,C  15)          127.6344         0.450790   
     39. A(O   0,C   1,O   2)          116.5497         0.472838   
     40. A(C   1,O   2,C   3)          121.8132         0.429444   
     41. A(O   2,C   3,C   4)          119.7047         0.434330   
     42. A(O   2,C   3,C  13)          118.9356         0.427625   
     43. A(C   4,C   3,C  13)          121.3597         0.427276   
     44. A(C   3,C   4,N  14)          120.6618         0.432572   
     45. A(C   5,C   4,N  14)          119.8430         0.425403   
     46. A(C   3,C   4,C   5)          119.4951         0.426776   
     47. A(C   4,C   5,H  22)          117.6129         0.349959   
     48. A(C   4,C   5,C   6)          120.2051         0.436553   
     49. A(C   6,C   5,H  22)          122.1820         0.363235   
     50. A(C   7,C   6,H  23)          118.1491         0.348969   
     51. A(C   5,C   6,H  23)          120.5141         0.362865   
     52. A(C   5,C   6,C   7)          121.3367         0.435703   
     53. A(C   6,C   7,C  13)          119.5036         0.418255   
     54. A(C   6,C   7,C   8)          121.7457         0.423500   
     55. A(C   8,C   7,C  13)          118.7507         0.423646   
     56. A(C   7,C   8,H  24)          120.1576         0.353477   
     57. A(C   9,C   8,H  24)          119.0186         0.358381   
     58. A(C   7,C   8,C   9)          120.8238         0.435280   
     59. A(O  10,C   9,C  11)          121.3546         0.428936   
     60. A(C   8,C   9,C  11)          120.0339         0.433444   
     61. A(C   8,C   9,O  10)          118.6115         0.437084   
     62. A(C   9,O  10,H  25)          110.2455         0.370569   
     63. A(C  12,C  11,H  26)          120.3853         0.360370   
     64. A(C   9,C  11,C  12)          120.3612         0.436997   
     65. A(C   9,C  11,H  26)          119.2535         0.351312   
     66. A(C  13,C  12,H  27)          118.6984         0.352056   
     67. A(C  11,C  12,H  27)          120.8426         0.361080   
     68. A(C  11,C  12,C  13)          120.4590         0.437074   
     69. A(C   7,C  13,C  12)          119.5714         0.421945   
     70. A(C   3,C  13,C  12)          122.3290         0.423110   
     71. A(C   3,C  13,C   7)          118.0996         0.419551   
     72. A(C   4,N  14,C  15)          120.7441         0.448032   
     73. A(N  14,C  15,C  16)          117.0324         0.428915   
     74. A(C   1,C  15,C  16)          121.7073         0.391257   
     75. A(C   1,C  15,N  14)          121.2603         0.423982   
     76. A(C  15,C  16,C  17)          117.9842         0.411961   
     77. A(C  17,C  16,C  21)          118.6312         0.430300   
     78. A(C  15,C  16,C  21)          123.3845         0.413124   
     79. A(C  16,C  17,C  18)          120.7689         0.435441   
     80. A(C  18,C  17,H  28)          120.8412         0.358524   
     81. A(C  16,C  17,H  28)          118.3899         0.353571   
     82. A(C  17,C  18,C  19)          120.1157         0.439407   
     83. A(C  19,C  18,H  29)          120.0033         0.356150   
     84. A(C  17,C  18,H  29)          119.8810         0.358071   
     85. A(C  20,C  19,H  30)          120.2043         0.356733   
     86. A(C  18,C  19,H  30)          120.1559         0.356155   
     87. A(C  18,C  19,C  20)          119.6399         0.437659   
     88. A(C  21,C  20,H  31)          119.4086         0.357124   
     89. A(C  19,C  20,H  31)          119.9452         0.356765   
     90. A(C  19,C  20,C  21)          120.6462         0.438882   
     91. A(C  20,C  21,H  32)          119.7410         0.357859   
     92. A(C  16,C  21,H  32)          120.0609         0.354841   
     93. A(C  16,C  21,C  20)          120.1981         0.435418   
     94. D(C   3,O   2,C   1,C  15)     -0.0894         0.026617   
     95. D(C   3,O   2,C   1,O   0)    179.8311         0.026617   
     96. D(C   4,C   3,O   2,C   1)      0.0030         0.030770   
     97. D(C  13,C   3,O   2,C   1)   -179.9839         0.030770   
     98. D(C   5,C   4,C   3,O   2)   -179.9517         0.026566   
     99. D(N  14,C   4,C   3,O   2)      0.0810         0.026566   
    100. D(N  14,C   4,C   3,C  13)   -179.9325         0.026566   
    101. D(C   5,C   4,C   3,C  13)      0.0349         0.026566   
    102. D(H  22,C   5,C   4,C   3)    179.9961         0.021843   
    103. D(C   6,C   5,C   4,C   3)      0.0013         0.021843   
    104. D(H  22,C   5,C   4,N  14)     -0.0363         0.021843   
    105. D(C   6,C   5,C   4,N  14)    179.9689         0.021843   
    106. D(H  23,C   6,C   5,C   4)    179.9877         0.034821   
    107. D(C   7,C   6,C   5,C   4)     -0.0152         0.034821   
    108. D(H  23,C   6,C   5,H  22)     -0.0069         0.034821   
    109. D(C   7,C   6,C   5,H  22)    179.9902         0.034821   
    110. D(C  13,C   7,C   6,H  23)    179.9907         0.021357   
    111. D(C  13,C   7,C   6,C   5)     -0.0065         0.021357   
    112. D(C   8,C   7,C   6,H  23)     -0.0190         0.021357   
    113. D(C   8,C   7,C   6,C   5)    179.9838         0.021357   
    114. D(H  24,C   8,C   7,C  13)    179.9823         0.024816   
    115. D(H  24,C   8,C   7,C   6)     -0.0080         0.024816   
    116. D(C   9,C   8,C   7,C  13)     -0.0099         0.024816   
    117. D(C   9,C   8,C   7,C   6)    179.9998         0.024816   
    118. D(C  11,C   9,C   8,H  24)    179.9918         0.029486   
    119. D(C  11,C   9,C   8,C   7)     -0.0159         0.029486   
    120. D(O  10,C   9,C   8,H  24)     -0.0131         0.029486   
    121. D(O  10,C   9,C   8,C   7)    179.9792         0.029486   
    122. D(H  25,O  10,C   9,C  11)      0.0135         0.029865   
    123. D(H  25,O  10,C   9,C   8)   -179.9816         0.029865   
    124. D(C  12,C  11,C   9,C   8)      0.0232         0.023620   
    125. D(H  26,C  11,C   9,O  10)      0.0269         0.023620   
    126. D(H  26,C  11,C   9,C   8)   -179.9781         0.023620   
    127. D(C  12,C  11,C   9,O  10)   -179.9718         0.023620   
    128. D(H  27,C  12,C  11,H  26)      0.0020         0.032505   
    129. D(H  27,C  12,C  11,C   9)   -179.9993         0.032505   
    130. D(C  13,C  12,C  11,H  26)    179.9972         0.032505   
    131. D(C  13,C  12,C  11,C   9)     -0.0041         0.032505   
    132. D(C   7,C  13,C  12,H  27)    179.9735         0.023668   
    133. D(C   7,C  13,C  12,C  11)     -0.0218         0.023668   
    134. D(C   3,C  13,C  12,H  27)     -0.0492         0.023668   
    135. D(C  12,C  13,C   7,C   8)      0.0286         0.021443   
    136. D(C  12,C  13,C   7,C   6)   -179.9808         0.021443   
    137. D(C   3,C  13,C   7,C   8)   -179.9497         0.021443   
    138. D(C  12,C  13,C   3,C   4)    179.9669         0.022142   
    139. D(C   3,C  13,C  12,C  11)    179.9555         0.023668   
    140. D(C  12,C  13,C   3,O   2)     -0.0465         0.022142   
    141. D(C   7,C  13,C   3,C   4)     -0.0554         0.022142   
    142. D(C   3,C  13,C   7,C   6)      0.0409         0.021443   
    143. D(C   7,C  13,C   3,O   2)    179.9312         0.022142   
    144. D(C  15,N  14,C   4,C   5)    179.9657         0.029310   
    145. D(C  15,N  14,C   4,C   3)     -0.0671         0.029310   
    146. D(C  16,C  15,N  14,C   4)    179.9678         0.046698   
    147. D(C   1,C  15,N  14,C   4)     -0.0264         0.046698   
    148. D(C  16,C  15,C   1,O   2)   -179.8902         0.013684   
    149. D(C  16,C  15,C   1,O   0)      0.1995         0.013684   
    150. D(N  14,C  15,C   1,O   2)      0.1036         0.013684   
    151. D(N  14,C  15,C   1,O   0)   -179.8066         0.013684   
    152. D(C  21,C  16,C  15,N  14)   -179.3104         0.015550   
    153. D(C  21,C  16,C  15,C   1)      0.6837         0.015550   
    154. D(C  17,C  16,C  15,N  14)      0.6134         0.015550   
    155. D(C  17,C  16,C  15,C   1)   -179.3925         0.015550   
    156. D(C  18,C  17,C  16,C  15)   -179.9327         0.024849   
    157. D(H  28,C  17,C  16,C  21)    179.9961         0.024849   
    158. D(H  28,C  17,C  16,C  15)      0.0685         0.024849   
    159. D(C  18,C  17,C  16,C  21)     -0.0052         0.024849   
    160. D(H  29,C  18,C  17,H  28)     -0.0020         0.029575   
    161. D(H  29,C  18,C  17,C  16)    179.9993         0.029575   
    162. D(C  19,C  18,C  17,H  28)    179.9982         0.029575   
    163. D(C  19,C  18,C  17,C  16)     -0.0005         0.029575   
    164. D(H  30,C  19,C  18,H  29)      0.0002         0.027643   
    165. D(H  30,C  19,C  18,C  17)   -180.0000         0.027643   
    166. D(C  20,C  19,C  18,H  29)    179.9999         0.027643   
    167. D(C  20,C  19,C  18,C  17)     -0.0002         0.027643   
    168. D(H  31,C  20,C  19,H  30)      0.0014         0.028211   
    169. D(H  31,C  20,C  19,C  18)   -179.9983         0.028211   
    170. D(C  21,C  20,C  19,H  30)   -179.9934         0.028211   
    171. D(C  21,C  20,C  19,C  18)      0.0068         0.028211   
    172. D(H  32,C  21,C  20,H  31)      0.0056         0.028570   
    173. D(H  32,C  21,C  20,C  19)   -179.9995         0.028570   
    174. D(C  16,C  21,C  20,H  31)    179.9925         0.028570   
    175. D(C  16,C  21,C  20,C  19)     -0.0126         0.028570   
    176. D(H  32,C  21,C  16,C  17)    179.9985         0.025697   
    177. D(H  32,C  21,C  16,C  15)     -0.0781         0.025697   
    178. D(C  20,C  21,C  16,C  17)      0.0117         0.025697   
    179. D(C  20,C  21,C  16,C  15)    179.9351         0.025697   
    -----------------------------------------------------------------

Number of atoms                         .... 33
Number of degrees of freedom            .... 179

         *************************************************************
         *                GEOMETRY OPTIMIZATION CYCLE   1            *
         *************************************************************
---------------------------------
CARTESIAN COORDINATES (ANGSTROEM)
---------------------------------
  O      1.249600    0.633200    2.705900
  C      0.858800    0.369500    1.595000
  O     -0.497400    0.378100    1.405100
  C     -1.050100    0.101800    0.203600
  C     -0.229900   -0.201700   -0.879700
  C     -0.814500   -0.489900   -2.138600
  C     -2.164300   -0.469800   -2.285700
  C     -3.021800   -0.163300   -1.195400
  C     -4.415400   -0.139800   -1.337600
  C     -5.230000    0.160200   -0.266200
  O     -6.571700    0.170600   -0.454200
  C     -4.664300    0.447500    0.990100
  C     -3.308000    0.431800    1.156800
  C     -2.459900    0.128400    0.075700
  N      1.120000   -0.224500   -0.740800
  C      1.674400    0.037500    0.404800
  C      3.135400   -0.010900    0.463000
  C      3.830200   -0.320700   -0.713300
  C      5.207300   -0.383200   -0.723300
  C      5.923600   -0.138300    0.439100
  C      5.247900    0.168900    1.607900
  C      3.866600    0.233700    1.627400
  H     -0.151200   -0.720800   -2.956400
  H     -2.614800   -0.688300   -3.242200
  H     -4.866300   -0.357500   -2.292800
  H     -7.022700    0.394100    0.369500
  H     -5.315300    0.680900    1.822200
  H     -2.866100    0.650800    2.116300
  H      3.261800   -0.508900   -1.610000
  H      5.728500   -0.623400   -1.638500
  H      7.002700   -0.187100    0.432000
  H      5.800700    0.360500    2.515800
  H      3.356000    0.473900    2.544500

----------------------------
CARTESIAN COORDINATES (A.U.)
----------------------------
  NO LB      ZA    FRAG     MASS         X           Y           Z
   0 O     8.0000    0    15.999    2.361402    1.196575    5.113410
   1 C     6.0000    0    12.011    1.622897    0.698254    3.014113
   2 O     8.0000    0    15.999   -0.939950    0.714505    2.655254
   3 C     6.0000    0    12.011   -1.984401    0.192374    0.384748
   4 C     6.0000    0    12.011   -0.434448   -0.381158   -1.662392
   5 C     6.0000    0    12.011   -1.539182   -0.925777   -4.041368
   6 C     6.0000    0    12.011   -4.089934   -0.887793   -4.319347
   7 C     6.0000    0    12.011   -5.710374   -0.308592   -2.258979
   8 C     6.0000    0    12.011   -8.343897   -0.264184   -2.527698
   9 C     6.0000    0    12.011   -9.883268    0.302734   -0.503045
  10 O     8.0000    0    15.999  -12.418713    0.322387   -0.858314
  11 C     6.0000    0    12.011   -8.814250    0.845652    1.871018
  12 C     6.0000    0    12.011   -6.251214    0.815984    2.186035
  13 C     6.0000    0    12.011   -4.648537    0.242641    0.143052
  14 N     7.0000    0    14.007    2.116493   -0.424244   -1.399909
  15 C     6.0000    0    12.011    3.164157    0.070865    0.764961
  16 C     6.0000    0    12.011    5.925047   -0.020598    0.874943
  17 C     6.0000    0    12.011    7.238029   -0.606035   -1.347942
  18 C     6.0000    0    12.011    9.840371   -0.724143   -1.366839
  19 C     6.0000    0    12.011   11.193982   -0.261349    0.829779
  20 C     6.0000    0    12.011    9.917094    0.319175    3.038491
  21 C     6.0000    0    12.011    7.306815    0.441629    3.075340
  22 H     1.0000    0     1.008   -0.285727   -1.362115   -5.586786
  23 H     1.0000    0     1.008   -4.941256   -1.300698   -6.126870
  24 H     1.0000    0     1.008   -9.195974   -0.675577   -4.332764
  25 H     1.0000    0     1.008  -13.270980    0.744741    0.698254
  26 H     1.0000    0     1.008  -10.044461    1.286715    3.443459
  27 H     1.0000    0     1.008   -5.416144    1.229834    3.999227
  28 H     1.0000    0     1.008    6.163909   -0.961682   -3.042459
  29 H     1.0000    0     1.008   10.825296   -1.178055   -3.096316
  30 H     1.0000    0     1.008   13.233185   -0.353568    0.816362
  31 H     1.0000    0     1.008   10.961734    0.681246    4.754173
  32 H     1.0000    0     1.008    6.341921    0.895541    4.808408

--------------------------------
INTERNAL COORDINATES (ANGSTROEM)
--------------------------------
 O      0   0   0     0.000000000000     0.00000000     0.00000000
 C      1   0   0     1.206797886972     0.00000000     0.00000000
 O      2   1   0     1.369457706539   116.54968836     0.00000000
 C      3   2   1     1.351081503833   121.81315383   179.83110098
 C      4   3   2     1.392256865668   119.70468819     0.00000000
 C      5   4   3     1.417619698650   119.49514113   180.04831915
 C      6   5   4     1.357940521525   120.20514183     0.00000000
 C      7   6   5     1.420564180176   121.33674963     0.00000000
 C      8   7   6     1.401033208029   121.74569498   179.98379494
 C      9   8   7     1.378938403265   120.82376285   179.99977269
 O     10   9   8     1.354847242312   118.61149718   179.97923952
 C     10   9   8     1.407425831083   120.03388523     0.00000000
 C     12  10   9     1.366596162003   120.36121872     0.02319029
 C     13  12  10     1.407161106626   120.45903632     0.00000000
 N      5   4   3     1.357218869601   120.66181316     0.08097017
 C     15   5   4     1.299385516311   120.74408770   359.93292040
 C     16  15   5     1.462959602997   117.03244374   179.96776977
 C     17  16  15     1.400858583155   117.98422208     0.61343827
 C     18  17  16     1.378553829199   120.76886350   180.06725743
 C     19  18  17     1.387168144098   120.11574289     0.00000000
 C     20  19  18     1.384570608528   119.63986892     0.00000000
 C     21  20  19     1.382956608141   120.64623011     0.00000000
 H      6   5   4     1.077997467529   117.61286401   179.99608681
 H      7   6   5     1.079622503471   120.51410319   179.98768992
 H      9   8   7     1.078476304793   120.15763030     0.00000000
 H     11  10   9     0.965315979356   110.24553305   180.01842214
 H     12  10   9     1.081973645705   119.25349602   180.02188653
 H     13  12  10     1.078831247230   120.84257824   180.00071720
 H     18  17  16     1.078224786397   118.38991861     0.06851293
 H     19  18  17     1.080248360332   119.88095265   179.99931960
 H     20  19  18     1.080226207792   120.15586702   180.00001958
 H     21  20  19     1.080083705090   119.94515715   180.00166700
 H     22  21  20     1.076791906545   119.74096728   180.00050424

---------------------------
INTERNAL COORDINATES (A.U.)
---------------------------
 O      0   0   0     0.000000000000     0.00000000     0.00000000
 C      1   0   0     2.280517505372     0.00000000     0.00000000
 O      2   1   0     2.587900017347   116.54968836     0.00000000
 C      3   2   1     2.553174026851   121.81315383   179.83110098
 C      4   3   2     2.630984184184   119.70468819     0.00000000
 C      5   4   3     2.678912992500   119.49514113   180.04831915
 C      6   5   4     2.566135691837   120.20514183     0.00000000
 C      7   6   5     2.684477256192   121.33674963     0.00000000
 C      8   7   6     2.647569067704   121.74569498   179.98379494
 C      9   8   7     2.605815937718   120.82376285   179.99977269
 O     10   9   8     2.560290241268   118.61149718   179.97923952
 C     10   9   8     2.659649374554   120.03388523     0.00000000
 C     12  10   9     2.582492481853   120.36121872     0.02319029
 C     13  12  10     2.659149117828   120.45903632     0.00000000
 N      5   4   3     2.564771967335   120.66181316     0.08097017
 C     15   5   4     2.455482768213   120.74408770   359.93292040
 C     16  15   5     2.764592994654   117.03244374   179.96776977
 C     17  16  15     2.647239074517   117.98422208     0.61343827
 C     18  17  16     2.605089198055   120.76886350   180.06725743
 C     19  18  17     2.621367894045   120.11574289     0.00000000
 C     20  19  18     2.616459263195   119.63986892     0.00000000
 C     21  20  19     2.613409244483   120.64623011     0.00000000
 H      6   5   4     2.037119986691   117.61286401   179.99608681
 H      7   6   5     2.040190859578   120.51410319   179.98768992
 H      9   8   7     2.038024857982   120.15763030     0.00000000
 H     11  10   9     1.824182833681   110.24553305   180.01842214
 H     12  10   9     2.044633874503   119.25349602   180.02188653
 H     13  12  10     2.038695601982   120.84257824   180.00071720
 H     18  17  16     2.037549557095   118.38991861     0.06851293
 H     19  18  17     2.041373557645   119.88095265   179.99931960
 H     20  19  18     2.041331695411   120.15586702   180.00001958
 H     21  20  19     2.041062404330   119.94515715   180.00166700
 H     22  21  20     2.034841806592   119.74096728   180.00050424

---------------------
BASIS SET INFORMATION
---------------------
There are 4 groups of distinct atoms

 Group   1 Type O   : 19s6p3d2f contracted to 5s4p3d2f pattern {88111/3111/111/11}
 Group   2 Type C   : 19s6p3d2f contracted to 5s4p3d2f pattern {88111/3111/111/11}
 Group   3 Type N   : 19s6p3d2f contracted to 5s4p3d2f pattern {88111/3111/111/11}
 Group   4 Type H   : 5s2p1d contracted to 3s2p1d pattern {311/11/1}

Atom   0O    basis set group =>   1
Atom   1C    basis set group =>   2
Atom   2O    basis set group =>   1
Atom   3C    basis set group =>   2
Atom   4C    basis set group =>   2
Atom   5C    basis set group =>   2
Atom   6C    basis set group =>   2
Atom   7C    basis set group =>   2
Atom   8C    basis set group =>   2
Atom   9C    basis set group =>   2
Atom  10O    basis set group =>   1
Atom  11C    basis set group =>   2
Atom  12C    basis set group =>   2
Atom  13C    basis set group =>   2
Atom  14N    basis set group =>   3
Atom  15C    basis set group =>   2
Atom  16C    basis set group =>   2
Atom  17C    basis set group =>   2
Atom  18C    basis set group =>   2
Atom  19C    basis set group =>   2
Atom  20C    basis set group =>   2
Atom  21C    basis set group =>   2
Atom  22H    basis set group =>   4
Atom  23H    basis set group =>   4
Atom  24H    basis set group =>   4
Atom  25H    basis set group =>   4
Atom  26H    basis set group =>   4
Atom  27H    basis set group =>   4
Atom  28H    basis set group =>   4
Atom  29H    basis set group =>   4
Atom  30H    basis set group =>   4
Atom  31H    basis set group =>   4
Atom  32H    basis set group =>   4
---------------------------------
AUXILIARY/J BASIS SET INFORMATION
---------------------------------
There are 4 groups of distinct atoms

 Group   1 Type O   : 10s7p5d2f1g contracted to 10s7p5d2f1g pattern {1111111111/1111111/11111/11/1}
 Group   2 Type C   : 10s7p5d2f1g contracted to 10s7p5d2f1g pattern {1111111111/1111111/11111/11/1}
 Group   3 Type N   : 10s7p5d2f1g contracted to 10s7p5d2f1g pattern {1111111111/1111111/11111/11/1}
 Group   4 Type H   : 4s3p2d1f contracted to 4s3p2d1f pattern {1111/111/11/1}

Atom   0O    basis set group =>   1
Atom   1C    basis set group =>   2
Atom   2O    basis set group =>   1
Atom   3C    basis set group =>   2
Atom   4C    basis set group =>   2
Atom   5C    basis set group =>   2
Atom   6C    basis set group =>   2
Atom   7C    basis set group =>   2
Atom   8C    basis set group =>   2
Atom   9C    basis set group =>   2
Atom  10O    basis set group =>   1
Atom  11C    basis set group =>   2
Atom  12C    basis set group =>   2
Atom  13C    basis set group =>   2
Atom  14N    basis set group =>   3
Atom  15C    basis set group =>   2
Atom  16C    basis set group =>   2
Atom  17C    basis set group =>   2
Atom  18C    basis set group =>   2
Atom  19C    basis set group =>   2
Atom  20C    basis set group =>   2
Atom  21C    basis set group =>   2
Atom  22H    basis set group =>   4
Atom  23H    basis set group =>   4
Atom  24H    basis set group =>   4
Atom  25H    basis set group =>   4
Atom  26H    basis set group =>   4
Atom  27H    basis set group =>   4
Atom  28H    basis set group =>   4
Atom  29H    basis set group =>   4
Atom  30H    basis set group =>   4
Atom  31H    basis set group =>   4
Atom  32H    basis set group =>   4
---------------------------------
AUXILIARY/C BASIS SET INFORMATION
---------------------------------
There are 4 groups of distinct atoms

 Group   1 Type O   : 9s7p6d4f2g contracted to 9s7p6d4f2g pattern {111111111/1111111/111111/1111/11}
 Group   2 Type C   : 9s7p6d4f2g contracted to 9s7p6d4f2g pattern {111111111/1111111/111111/1111/11}
 Group   3 Type N   : 9s7p6d4f2g contracted to 9s7p6d4f2g pattern {111111111/1111111/111111/1111/11}
 Group   4 Type H   : 4s3p2d1f contracted to 4s3p2d1f pattern {1111/111/11/1}

Atom   0O    basis set group =>   1
Atom   1C    basis set group =>   2
Atom   2O    basis set group =>   1
Atom   3C    basis set group =>   2
Atom   4C    basis set group =>   2
Atom   5C    basis set group =>   2
Atom   6C    basis set group =>   2
Atom   7C    basis set group =>   2
Atom   8C    basis set group =>   2
Atom   9C    basis set group =>   2
Atom  10O    basis set group =>   1
Atom  11C    basis set group =>   2
Atom  12C    basis set group =>   2
Atom  13C    basis set group =>   2
Atom  14N    basis set group =>   3
Atom  15C    basis set group =>   2
Atom  16C    basis set group =>   2
Atom  17C    basis set group =>   2
Atom  18C    basis set group =>   2
Atom  19C    basis set group =>   2
Atom  20C    basis set group =>   2
Atom  21C    basis set group =>   2
Atom  22H    basis set group =>   4
Atom  23H    basis set group =>   4
Atom  24H    basis set group =>   4
Atom  25H    basis set group =>   4
Atom  26H    basis set group =>   4
Atom  27H    basis set group =>   4
Atom  28H    basis set group =>   4
Atom  29H    basis set group =>   4
Atom  30H    basis set group =>   4
Atom  31H    basis set group =>   4
Atom  32H    basis set group =>   4


           ************************************************************
           *        Program running with 4 parallel MPI-processes     *
           *              working on a common directory               *
           ************************************************************
------------------------------------------------------------------------------
                           ORCA GTO INTEGRAL CALCULATION
                           -- RI-GTO INTEGRALS CHOSEN --
------------------------------------------------------------------------------
------------------------------------------------------------------------------
                   ___                                                        
                  /   \      - P O W E R E D   B Y -                         
                 /     \                                                     
                 |  |  |   _    _      __       _____    __    __             
                 |  |  |  | |  | |    /  \     |  _  \  |  |  /  |          
                  \  \/   | |  | |   /    \    | | | |  |  | /  /          
                 / \  \   | |__| |  /  /\  \   | |_| |  |  |/  /          
                |  |  |   |  __  | /  /__\  \  |    /   |      \           
                |  |  |   | |  | | |   __   |  |    \   |  |\   \          
                \     /   | |  | | |  |  |  |  | |\  \  |  | \   \       
                 \___/    |_|  |_| |__|  |__|  |_| \__\ |__|  \__/        
                                                                              
                      - O R C A' S   B I G   F R I E N D -                    
                                      &                                       
                       - I N T E G R A L  F E E D E R -                       
                                                                              
 v1 FN, 2020, v2 2021                                                         
------------------------------------------------------------------------------


Reading SHARK input file optpbed3-b2plyp-test-513.SHARKINP.tmp ... ok
----------------------
SHARK INTEGRAL PACKAGE
----------------------

Number of atoms                             ...     33
Number of basis functions                   ...   1298
Number of shells                            ...    506
Maximum angular momentum                    ...      3
Integral batch strategy                     ... SHARK/LIBINT Hybrid
RI-J (if used) integral strategy            ... SPLIT-RIJ (Revised 2003 algorithm where possible)
Printlevel                                  ...      1
Contraction scheme used                     ... PARTIAL GENERAL contraction
Coulomb Range Separation                    ... NOT USED
Exchange Range Separation                   ... NOT USED
Finite Nucleus Model                        ... NOT USED
Auxiliary Coulomb fitting basis             ... AVAILABLE
   # of basis functions in Aux-J            ...   2068
   # of shells in Aux-J                     ...    660
   Maximum angular momentum in Aux-J        ...      4
Auxiliary J/K fitting basis                 ... NOT available
Auxiliary Correlation fitting basis         ... AVAILABLE
   # of basis functions in Aux-C            ...   2662
   # of shells in Aux-C                     ...    726
   Maximum angular momentum in Aux-C        ...      4
Auxiliary 'external' fitting basis          ... NOT available
Integral threshold                          ...     2.500000e-11
Primitive cut-off                           ...     2.500000e-12
Primitive pair pre-selection threshold      ...     2.500000e-12

Calculating pre-screening integrals         ... done (  0.3 sec) Dimension = 506
Calculating pre-screening integrals (ORCA)  ... done (  0.7 sec) Dimension = 374
Organizing shell pair data                  ... done (  2.1 sec)
Shell pair information
Total number of shell pairs                 ...    128271
Shell pairs after pre-screening             ...     79850
Total number of primitive shell pairs       ...    163977
Primitive shell pairs kept                  ...     92682
          la=0 lb=0:  17772 shell pairs
          la=1 lb=0:  20319 shell pairs
          la=1 lb=1:   4861 shell pairs
          la=2 lb=0:  13510 shell pairs
          la=2 lb=1:   6553 shell pairs
          la=2 lb=2:   2270 shell pairs
          la=3 lb=0:   7527 shell pairs
          la=3 lb=1:   3726 shell pairs
          la=3 lb=2:   2551 shell pairs
          la=3 lb=3:    761 shell pairs

Calculating one electron integrals          ... done (  0.3 sec)
Calculating RI/J V-Matrix + Cholesky decomp.... done (  0.3 sec)
Calculating RI/C V-Matrix + Cholesky decomp.... done (  0.6 sec)
Calculating Nuclear repulsion               ... done (  0.0 sec) ENN=   1602.061932068349 Eh

SHARK setup successfully completed in   5.9 seconds

Maximum memory used throughout the entire GTOINT-calculation: 127.1 MB


           ************************************************************
           *        Program running with 4 parallel MPI-processes     *
           *              working on a common directory               *
           ************************************************************
-------------------------------------------------------------------------------
                                 ORCA SCF
-------------------------------------------------------------------------------

------------
SCF SETTINGS
------------
Hamiltonian:
 Density Functional     Method          .... DFT(GTOs)
 Exchange Functional    Exchange        .... PBE
   PBE kappa parameter   XKappa         ....  0.804000
   PBE mue parameter    XMuePBE         ....  0.219520
 Correlation Functional Correlation     .... PBE
   PBE beta parameter  CBetaPBE         ....  0.066725
 LDA part of GGA corr.  LDAOpt          .... PW91-LDA
 Gradients option       PostSCFGGA      .... off
 Hybrid DFT is turned on
   Fraction HF Exchange ScalHFX         ....  0.250000
   Scaling of DF-GGA-X  ScalDFX         ....  0.750000
   Scaling of DF-GGA-C  ScalDFC         ....  1.000000
   Scaling of DF-LDA-C  ScalLDAC        ....  1.000000
   Perturbative correction              ....  0.000000
   Density functional embedding theory  .... OFF
   NL short-range parameter             ....  6.900000
 RI-approximation to the Coulomb term is turned on
   Number of AuxJ basis functions       .... 2068
   RIJ-COSX (HFX calculated with COS-X)).... on


General Settings:
 Integral files         IntName         .... optpbed3-b2plyp-test-513
 Hartree-Fock type      HFTyp           .... RHF
 Total Charge           Charge          ....    0
 Multiplicity           Mult            ....    1
 Number of Electrons    NEL             ....  150
 Basis Dimension        Dim             .... 1166
 Nuclear Repulsion      ENuc            ....   1602.0619320683 Eh

Convergence Acceleration:
 DIIS                   CNVDIIS         .... on
   Start iteration      DIISMaxIt       ....    12
   Startup error        DIISStart       ....  0.200000
   # of expansion vecs  DIISMaxEq       ....     5
   Bias factor          DIISBfac        ....   1.050
   Max. coefficient     DIISMaxC        ....  10.000
 Trust-Rad. Augm. Hess. CNVTRAH         .... auto
   Auto Start mean grad. ratio tolernc. ....  1.125000
   Auto Start start iteration           ....    20
   Auto Start num. interpolation iter.  ....    10
   Max. Number of Micro iterations      ....    16
   Max. Number of Macro iterations      .... Maxiter - #DIIS iter
   Number of Davidson start vectors     ....     2
   Converg. threshold I  (grad. norm)   ....   1.000e-05
   Converg. threshold II (energy diff.) ....   1.000e-08
   Grad. Scal. Fac. for Micro threshold ....   0.100
   Minimum threshold for Micro iter.    ....   0.010
   NR start threshold (gradient norm)   ....   0.001
   Initial trust radius                 ....   0.400
   Minimum AH scaling param. (alpha)    ....   1.000
   Maximum AH scaling param. (alpha)    .... 1000.000
   Orbital update algorithm             .... Taylor
   White noise on init. David. guess    .... on
   Maximum white noise                  ....   0.010
   Quad. conv. algorithm                .... NR
 SOSCF                  CNVSOSCF        .... on
   Start iteration      SOSCFMaxIt      ....   150
   Startup grad/error   SOSCFStart      ....  0.003300
 Level Shifting         CNVShift        .... on
   Level shift para.    LevelShift      ....    0.2500
   Turn off err/grad.   ShiftErr        ....    0.0010
 Zerner damping         CNVZerner       .... off
 Static damping         CNVDamp         .... on
   Fraction old density DampFac         ....    0.7000
   Max. Damping (<1)    DampMax         ....    0.9800
   Min. Damping (>=0)   DampMin         ....    0.0000
   Turn off err/grad.   DampErr         ....    0.1000
 Fernandez-Rico         CNVRico         .... off

SCF Procedure:
 Maximum # iterations   MaxIter         ....   125
 SCF integral mode      SCFMode         .... Direct
   Integral package                     .... SHARK and LIBINT hybrid scheme
 Reset frequency        DirectResetFreq ....    20
 Integral Threshold     Thresh          ....  2.500e-11 Eh
 Primitive CutOff       TCut            ....  2.500e-12 Eh

Convergence Tolerance:
 Convergence Check Mode ConvCheckMode   .... Total+1el-Energy
 Convergence forced     ConvForced      .... 0
 Energy Change          TolE            ....  1.000e-08 Eh
 1-El. energy change                    ....  1.000e-05 Eh
 Orbital Gradient       TolG            ....  1.000e-05
 Orbital Rotation angle TolX            ....  1.000e-05
 DIIS Error             TolErr          ....  5.000e-07


Diagonalization of the overlap matrix:
Smallest eigenvalue                        ... 2.195e-07
Time for diagonalization                   ...    0.325 sec
Threshold for overlap eigenvalues          ... 1.000e-08
Number of eigenvalues below threshold      ... 0
Time for construction of square roots      ...    0.238 sec
Total time needed                          ...    0.571 sec

Time for model grid setup =    0.852 sec

------------------------------
INITIAL GUESS: MODEL POTENTIAL
------------------------------
Loading Hartree-Fock densities                     ... done
Calculating cut-offs                               ... done
Initializing the effective Hamiltonian             ... done
Setting up the integral package (SHARK)            ... done
Starting the Coulomb interaction                   ... done (   3.5 sec)
Reading the grid                                   ... done
Mapping shells                                     ... done
Starting the XC term evaluation                    ... done (   2.7 sec)
  promolecular density results
     # of electrons  =    149.993032292
     EX              =   -126.429425099
     EC              =     -5.080358113
     EX+EC           =   -131.509783212
Transforming the Hamiltonian                       ... done (   0.2 sec)
Diagonalizing the Hamiltonian                      ... done (   0.3 sec)
Back transforming the eigenvectors                 ... done (   0.1 sec)
Now organizing SCF variables                       ... done
                      ------------------
                      INITIAL GUESS DONE (   7.7 sec)
                      ------------------
-------------------
DFT GRID GENERATION
-------------------

General Integration Accuracy     IntAcc      ... 4.388
Radial Grid Type                 RadialGrid  ... OptM3 with GC (2021)
Angular Grid (max. ang.)         AngularGrid ... 4 (Lebedev-302)
Angular grid pruning method      GridPruning ... 4 (adaptive)
Weight generation scheme         WeightScheme... Becke
Basis function cutoff            BFCut       ... 1.0000e-11
Integration weight cutoff        WCut        ... 1.0000e-14
Angular grids for H and He will be reduced by one unit
Partially contracted basis set               ... off
Rotationally invariant grid construction     ... off

Total number of grid points                  ...   172153
Total number of batches                      ...     2708
Average number of points per batch           ...       63
Average number of grid points per atom       ...     5217
Time for grid setup =    2.799 sec

--------------------
COSX GRID GENERATION
--------------------

GRIDX 1
-------
General Integration Accuracy     IntAcc      ... 3.816
Radial Grid Type                 RadialGrid  ... OptM3 with GC (2021)
Angular Grid (max. ang.)         AngularGrid ... 1 (Lebedev-50)
Angular grid pruning method      GridPruning ... 4 (adaptive)
Weight generation scheme         WeightScheme... Becke
Basis function cutoff            BFCut       ... 1.0000e-11
Integration weight cutoff        WCut        ... 1.0000e-14
Angular grids for H and He will be reduced by one unit
Partially contracted basis set               ... on
Rotationally invariant grid construction     ... off

Total number of grid points                  ...    21893
Total number of batches                      ...      364
Average number of points per batch           ...       60
Average number of grid points per atom       ...      663
UseSFitting                                  ... on

GRIDX 2
-------
General Integration Accuracy     IntAcc      ... 4.020
Radial Grid Type                 RadialGrid  ... OptM3 with GC (2021)
Angular Grid (max. ang.)         AngularGrid ... 2 (Lebedev-110)
Angular grid pruning method      GridPruning ... 4 (adaptive)
Weight generation scheme         WeightScheme... Becke
Basis function cutoff            BFCut       ... 1.0000e-11
Integration weight cutoff        WCut        ... 1.0000e-14
Angular grids for H and He will be reduced by one unit
Partially contracted basis set               ... on
Rotationally invariant grid construction     ... off

Total number of grid points                  ...    53069
Total number of batches                      ...      844
Average number of points per batch           ...       62
Average number of grid points per atom       ...     1608
UseSFitting                                  ... on

GRIDX 3
-------
General Integration Accuracy     IntAcc      ... 4.338
Radial Grid Type                 RadialGrid  ... OptM3 with GC (2021)
Angular Grid (max. ang.)         AngularGrid ... 3 (Lebedev-194)
Angular grid pruning method      GridPruning ... 4 (adaptive)
Weight generation scheme         WeightScheme... Becke
Basis function cutoff            BFCut       ... 1.0000e-11
Integration weight cutoff        WCut        ... 1.0000e-14
Angular grids for H and He will be reduced by one unit
Partially contracted basis set               ... on
Rotationally invariant grid construction     ... off

Total number of grid points                  ...   114556
Total number of batches                      ...     1805
Average number of points per batch           ...       63
Average number of grid points per atom       ...     3471
UseSFitting                                  ... on

Time for X-Grid setup             =    7.270 sec


--------------------
CPCM SOLVATION MODEL
--------------------
CPCM parameters:
  Epsilon                                         ...       2.2706
  Refrac                                          ...       1.5011
  Rsolv                                           ...       1.3000
  Surface type                                    ... GAUSSIAN VDW
  Epsilon function type                           ...         CPCM
Solvent:                                     ... BENZENE
SMD-CDS solvent descriptors:
  Soln                                       ...    1.5011
  Soln25                                     ...    1.4972
  Sola                                       ...    0.0000
  Solb                                       ...    0.1400
  Solg                                       ...   40.6200
  Solc                                       ...    1.0000
  Solh                                       ...    0.0000
Radii:
 Radius for O  used is    4.3350 Bohr (=   2.2940 Ang.)
 Radius for C  used is    3.4960 Bohr (=   1.8500 Ang.)
 Radius for N  used is    3.5716 Bohr (=   1.8900 Ang.)
 Radius for H  used is    2.2677 Bohr (=   1.2000 Ang.)
Calculating surface                               ...        done! (  0.0s)
GEPOL surface points                              ...         1712
GEPOL Volume                                      ...    2168.5516
GEPOL Surface-area                                ...    1114.7978
Calculating surface distance matrix               ...        done! (  0.1s)
Performing Cholesky decomposition & store         ...        done! (  0.2s)
Overall time for CPCM initialization              ...                 0.2s
 re-compute Schwartz prescreening matrix in partically contracted basis (1) ...done (   0.282 sec)
--------------
SCF ITERATIONS
--------------
ITER       Energy         Delta-E        Max-DP      RMS-DP      [F,P]     Damp
               ***  Starting incremental Fock matrix formation  ***
  0   -971.7479522156   0.000000000000 0.34709291  0.00175598  0.2945214 0.7000
  1   -971.9613001479  -0.213347932267 0.25607509  0.00127746  0.1130700 0.7000
                               ***Turning on DIIS***
  2   -972.0486571213  -0.087356973379 0.55057915  0.00269840  0.0443844 0.0000
  3   -972.1917982389  -0.143141117605 0.06681725  0.00058016  0.0487974 0.0000
  4   -972.2179682785  -0.026170039629 0.02571514  0.00018055  0.0210413 0.0000
  5   -972.2198543344  -0.001886055894 0.01033928  0.00008188  0.0106984 0.0000
                      *** Initiating the SOSCF procedure ***
                           *** Shutting down DIIS ***
                      *** Re-Reading the Fockian *** 
                      *** Removing any level shift *** 
ITER      Energy       Delta-E        Grad      Rot      Max-DP    RMS-DP
  6   -972.22000169  -0.0001473571  0.000462  0.000462  0.010719  0.000051
               *** Restarting incremental Fock matrix formation ***
  7   -972.22000709  -0.0000053985  0.000271  0.002091  0.055397  0.000613
  8   -972.22001109  -0.0000039995  0.000242  0.001220  0.019365  0.000225
  9   -972.22001278  -0.0000016948  0.000111  0.000759  0.021946  0.000231
 10   -972.22001327  -0.0000004862  0.000053  0.000159  0.009879  0.000084
 11   -972.22001331  -0.0000000395  0.000042  0.000130  0.014932  0.000124
 12   -972.22001344  -0.0000001346  0.000010  0.000038  0.020027  0.000157
 13   -972.22001346  -0.0000000145  0.000009  0.000016  0.013647  0.000093
 14   -972.22001347  -0.0000000082  0.000003  0.000010  0.058055  0.000254
 15   -972.22001346   0.0000000067  0.000003  0.000009  0.060476  0.000142
 16   -972.22001347  -0.0000000116  0.000003  0.000016  0.115781  0.000277
 17   -972.22001342   0.0000000511  0.000004  0.000009  0.069809  0.000179
                  ***Gradient check signals convergence***
              ***Rediagonalizing the Fockian in SOSCF/NRSCF***

               *****************************************************
               *                     SUCCESS                       *
               *           SCF CONVERGED AFTER  18 CYCLES          *
               *****************************************************

Old exchange energy                            =    -32.160381854 Eh
New exchange energy                            =    -32.160308040 Eh
Exchange energy change after final integration =      0.000073813 Eh
Total energy after final integration           =   -972.219939618 Eh
Final COS-X integration done in                =   185.787 sec

SMD CDS free energy correction energy :                -9.22996     Kcal/mol
Total Energy after SMD CDS correction =              -972.234648499 Eh

----------------
TOTAL SCF ENERGY
----------------

Total Energy       :         -972.23464850 Eh          -26455.84978 eV

Components:
Nuclear Repulsion  :         1602.06193207 Eh           43594.32146 eV
Electronic Energy  :        -2574.29658057 Eh          -70050.17124 eV
One Electron Energy:        -4503.07221506 Eh         -122534.82452 eV
Two Electron Energy:         1928.77563449 Eh           52484.65328 eV
Max COSX asymmetry :            0.00003424 Eh               0.00093 eV
CPCM Dielectric    :           -0.00991741 Eh              -0.26987 eV
SMD CDS (Gcds)     :           -0.01470888 Eh              -0.40025 eV

Virial components:
Potential Energy   :        -1939.10193376 Eh          -52765.64617 eV
Kinetic Energy     :          966.86728526 Eh           26309.79640 eV
Virial Ratio       :            2.00555129


DFT components:
N(Alpha)           :       75.000103181686 electrons
N(Beta)            :       75.000103181686 electrons
N(Total)           :      150.000206363371 electrons
E(X)               :      -96.307810378390 Eh       
E(C)               :       -5.082259405422 Eh       
E(XC)              :     -101.390069783812 Eh       
DFET-embed. en.    :        0.000000000000 Eh       
CPCM Solvation Model Properties:
Surface-charge          :           -0.04470451
Charge-correction       :            0.00020897 Eh               0.00569 eV
Free-energy (cav+disp)  :           -0.01470888 Eh              -0.40025 eV

---------------
SCF CONVERGENCE
---------------

  Last Energy change         ...   -1.0315e-08  Tolerance :   1.0000e-08
  Last MAX-Density change    ...    5.3291e-15  Tolerance :   1.0000e-07
  Last RMS-Density change    ...    2.0073e-17  Tolerance :   5.0000e-09
  Last Orbital Gradient      ...    2.1909e-06  Tolerance :   1.0000e-05
  Last Orbital Rotation      ...    1.7929e-05  Tolerance :   1.0000e-05

             **** THE GBW FILE WAS UPDATED (optpbed3-b2plyp-test-513.gbw) ****
             **** DENSITY optpbed3-b2plyp-test-513.scfp WAS UPDATED ****
             **** ENERGY FILE WAS UPDATED (optpbed3-b2plyp-test-513.en.tmp) ****
             **** THE GBW FILE WAS UPDATED (optpbed3-b2plyp-test-513.gbw) ****
             **** DENSITY optpbed3-b2plyp-test-513.scfp WAS UPDATED ****
----------------
ORBITAL ENERGIES
----------------

  NO   OCC          E(Eh)            E(eV) 
   0   2.0000     -19.300524      -525.1940 
   1   2.0000     -19.256774      -524.0035 
   2   2.0000     -19.208100      -522.6790 
   3   2.0000     -14.412627      -392.1875 
   4   2.0000     -10.374665      -282.3090 
   5   2.0000     -10.318981      -280.7937 
   6   2.0000     -10.307264      -280.4749 
   7   2.0000     -10.298889      -280.2470 
   8   2.0000     -10.275993      -279.6240 
   9   2.0000     -10.259334      -279.1707 
  10   2.0000     -10.254731      -279.0454 
  11   2.0000     -10.248289      -278.8701 
  12   2.0000     -10.246123      -278.8112 
  13   2.0000     -10.244427      -278.7650 
  14   2.0000     -10.241915      -278.6967 
  15   2.0000     -10.238460      -278.6027 
  16   2.0000     -10.235036      -278.5095 
  17   2.0000     -10.231313      -278.4082 
  18   2.0000     -10.229186      -278.3503 
  19   2.0000     -10.228442      -278.3300 
  20   2.0000     -10.227943      -278.3165 
  21   2.0000     -10.227082      -278.2930 
  22   2.0000      -1.177785       -32.0491 
  23   2.0000      -1.110645       -30.2222 
  24   2.0000      -1.078979       -29.3605 
  25   2.0000      -0.995898       -27.0998 
  26   2.0000      -0.921304       -25.0700 
  27   2.0000      -0.892625       -24.2896 
  28   2.0000      -0.862620       -23.4731 
  29   2.0000      -0.822170       -22.3724 
  30   2.0000      -0.805486       -21.9184 
  31   2.0000      -0.777529       -21.1576 
  32   2.0000      -0.774617       -21.0784 
  33   2.0000      -0.762354       -20.7447 
  34   2.0000      -0.711950       -19.3731 
  35   2.0000      -0.701456       -19.0876 
  36   2.0000      -0.672795       -18.3077 
  37   2.0000      -0.652388       -17.7524 
  38   2.0000      -0.634203       -17.2575 
  39   2.0000      -0.624035       -16.9808 
  40   2.0000      -0.606705       -16.5093 
  41   2.0000      -0.580747       -15.8029 
  42   2.0000      -0.565206       -15.3800 
  43   2.0000      -0.552958       -15.0468 
  44   2.0000      -0.536235       -14.5917 
  45   2.0000      -0.519614       -14.1394 
  46   2.0000      -0.507132       -13.7998 
  47   2.0000      -0.503074       -13.6893 
  48   2.0000      -0.488538       -13.2938 
  49   2.0000      -0.476193       -12.9579 
  50   2.0000      -0.465618       -12.6701 
  51   2.0000      -0.459955       -12.5160 
  52   2.0000      -0.454640       -12.3714 
  53   2.0000      -0.451062       -12.2740 
  54   2.0000      -0.443651       -12.0724 
  55   2.0000      -0.436518       -11.8783 
  56   2.0000      -0.427955       -11.6452 
  57   2.0000      -0.424748       -11.5580 
  58   2.0000      -0.421849       -11.4791 
  59   2.0000      -0.418575       -11.3900 
  60   2.0000      -0.401464       -10.9244 
  61   2.0000      -0.395149       -10.7525 
  62   2.0000      -0.383610       -10.4386 
  63   2.0000      -0.376691       -10.2503 
  64   2.0000      -0.370001       -10.0682 
  65   2.0000      -0.363893        -9.9020 
  66   2.0000      -0.355602        -9.6764 
  67   2.0000      -0.335612        -9.1325 
  68   2.0000      -0.330783        -9.0011 
  69   2.0000      -0.301044        -8.1918 
  70   2.0000      -0.279909        -7.6167 
  71   2.0000      -0.274355        -7.4656 
  72   2.0000      -0.270905        -7.3717 
  73   2.0000      -0.258014        -7.0209 
  74   2.0000      -0.224448        -6.1075 
  75   0.0000      -0.094661        -2.5758 
  76   0.0000      -0.052063        -1.4167 
  77   0.0000      -0.019619        -0.5339 
  78   0.0000      -0.010014        -0.2725 
  79   0.0000      -0.004744        -0.1291 
  80   0.0000      -0.000206        -0.0056 
  81   0.0000       0.008303         0.2259 
  82   0.0000       0.010952         0.2980 
  83   0.0000       0.013618         0.3706 
  84   0.0000       0.016581         0.4512 
  85   0.0000       0.025796         0.7019 
  86   0.0000       0.031027         0.8443 
  87   0.0000       0.034351         0.9347 
  88   0.0000       0.035489         0.9657 
  89   0.0000       0.041604         1.1321 
  90   0.0000       0.047577         1.2946 
  91   0.0000       0.048075         1.3082 
  92   0.0000       0.053926         1.4674 
  93   0.0000       0.055108         1.4996 
  94   0.0000       0.058932         1.6036 
  95   0.0000       0.061057         1.6615 
  96   0.0000       0.066483         1.8091 
  97   0.0000       0.068404         1.8614 
  98   0.0000       0.075076         2.0429 
  99   0.0000       0.077034         2.0962 
 100   0.0000       0.079124         2.1531 
 101   0.0000       0.084515         2.2998 
 102   0.0000       0.087764         2.3882 
 103   0.0000       0.094823         2.5803 
 104   0.0000       0.096977         2.6389 
 105   0.0000       0.100340         2.7304 
 106   0.0000       0.102365         2.7855 
 107   0.0000       0.105427         2.8688 
 108   0.0000       0.108077         2.9409 
 109   0.0000       0.110844         3.0162 
 110   0.0000       0.112522         3.0619 
 111   0.0000       0.112935         3.0731 
 112   0.0000       0.117202         3.1892 
[...]
   Maximum residual norm  :     0.000014658797

                       ****Iteration    6****
              <<< Entering MO-section for Build Sigma(Double) >>>
   Forming the XC and CPCM contribution:
   Time for densities:            0.340
   Time for XC-Integration:      25.110
   Time for LR-CPCM terms:       13.374
   Time for Sigma-Completion:     0.230
   Time for building 10 sigma-vectors
   Data Preparation Phase         ...     0.01 sec
   Transformed RI Coulomb         ...     1.10 sec
   Transformed RI-exchange        ...   739.03 sec
   (ab|v) reading and digestion   ...   714.71 sec
   Final sigma-completion         ...     0.01 sec
   Done building sigma-vectors             Size of expansion space: 30
   Lowest Energy          :     0.127972588006
   Maximum Energy change  :     0.000032623910 (vector 9)
   Maximum residual norm  :     0.000004530546

                       ****Iteration    7****
              <<< Entering MO-section for Build Sigma(Double) >>>
   Forming the XC and CPCM contribution:
   Time for densities:            0.340
   Time for XC-Integration:      25.537
   Time for LR-CPCM terms:       13.435
   Time for Sigma-Completion:     0.240
   Time for building 10 sigma-vectors
   Data Preparation Phase         ...     0.01 sec
   Transformed RI Coulomb         ...     1.15 sec
   Transformed RI-exchange        ...   758.32 sec
   (ab|v) reading and digestion   ...   730.44 sec
   Final sigma-completion         ...     0.01 sec
   Done building sigma-vectors             Size of expansion space: 40
   Lowest Energy          :     0.127972583385
   Maximum Energy change  :     0.000021143365 (vector 8)
   Maximum residual norm  :     0.000006772531

                       ****Iteration    8****
              <<< Entering MO-section for Build Sigma(Double) >>>
   Forming the XC and CPCM contribution:
   Time for densities:            0.329
   Time for XC-Integration:      24.801
   Time for LR-CPCM terms:       13.428
   Time for Sigma-Completion:     0.226
   Time for building 10 sigma-vectors
   Data Preparation Phase         ...     0.01 sec
   Transformed RI Coulomb         ...     1.16 sec
   Transformed RI-exchange        ...   728.02 sec
   (ab|v) reading and digestion   ...   697.27 sec
   Final sigma-completion         ...     0.01 sec
   Done building sigma-vectors             Size of expansion space: 50
   Lowest Energy          :     0.127972582908
   Maximum Energy change  :     0.000019981965 (vector 8)
   Maximum residual norm  :     0.000003961598

                       ****Iteration    9****
              <<< Entering MO-section for Build Sigma(Double) >>>
   Forming the XC and CPCM contribution:
   Time for densities:            0.332
   Time for XC-Integration:      25.076
   Time for LR-CPCM terms:       13.482
   Time for Sigma-Completion:     0.227
   Time for building 10 sigma-vectors
   Data Preparation Phase         ...     0.01 sec
   Transformed RI Coulomb         ...     1.15 sec
   Transformed RI-exchange        ...   741.89 sec
   (ab|v) reading and digestion   ...   710.07 sec
   Final sigma-completion         ...     0.01 sec
   Done building sigma-vectors             Size of expansion space: 60
   Lowest Energy          :     0.127972582884
   Maximum Energy change  :     0.000010122394 (vector 8)
   Maximum residual norm  :     0.000001736293

                       ****Iteration   10****
              <<< Entering MO-section for Build Sigma(Double) >>>
   Forming the XC and CPCM contribution:
   Time for densities:            0.314
   Time for XC-Integration:      24.517
   Time for LR-CPCM terms:       13.264
   Time for Sigma-Completion:     0.223
   Time for building 10 sigma-vectors
   Data Preparation Phase         ...     0.01 sec
   Transformed RI Coulomb         ...     1.12 sec
   Transformed RI-exchange        ...   743.51 sec
   (ab|v) reading and digestion   ...   703.71 sec
   Final sigma-completion         ...     0.01 sec
   Done building sigma-vectors             Size of expansion space: 70
   Lowest Energy          :     0.127972582882
   Maximum Energy change  :     0.000003854041 (vector 8)
   Maximum residual norm  :     0.000000495342

      *** CONVERGENCE OF RESIDUAL NORM REACHED ***

Storing the converged CI vectors               ... optpbed3-b2plyp-test-513_job2.cis1

                 *** DAVIDSON DONE ***

Total time for solving the CIS problem:  8768.310sec

------------------
DOUBLES CORRECTION (Double precision version)
------------------

The (D) correction will be scaled by  0.2700
Doing v(i,a)*T(i,a) terms (RI)                    ... ok
Doing u(i,j,a,b) terms for state   0              ... ok
Doing u(i,j,a,b) terms for state   1              ... ok
Doing u(i,j,a,b) terms for state   2              ... ok
Doing u(i,j,a,b) terms for state   3              ... ok
Doing u(i,j,a,b) terms for state   4              ... ok
Doing u(i,j,a,b) terms for state   5              ... ok
Doing u(i,j,a,b) terms for state   6              ... ok
Doing u(i,j,a,b) terms for state   7              ... ok
Doing u(i,j,a,b) terms for state   8              ... ok
Doing u(i,j,a,b) terms for state   9              ... ok

Contributions to the (D) correction(s) (in eV)

STATE  Final   Init.   Total   v(ext)   v(int)  v(3)    u
       omega   omega     (D)                             
-----------------------------------------------------------------------------
   0   3.137   3.482  -0.346   0.727   1.072  -0.062  -2.083
   1   3.681   4.192  -0.511   0.716   0.896  -0.031  -2.092
   2   3.737   4.224  -0.488   0.702   0.911  -0.032  -2.069
   3   4.194   4.666  -0.471   0.634   0.989  -0.066  -2.028
   4   4.171   4.775  -0.604   0.688   0.896  -0.026  -2.162
   5   4.509   5.125  -0.616   0.648   0.982  -0.040  -2.205
   6   4.608   5.148  -0.540   0.660   0.983  -0.053  -2.130
   7   5.239   5.391  -0.153   0.044   1.054  -0.002  -1.249
   8   5.426   5.665  -0.240   0.101   1.043  -0.005  -1.379
   9   5.145   5.683  -0.538   0.503   1.039  -0.048  -2.032

(D)-timings
 V(i,a)*T(i,a) terms           ...   925.762 sec
 U(i,j,a,b) 3-internal         ...    20.337 sec
 U(i,j,a,b) 3-external         ...   468.223 sec
 U(i,j,a,b) pair terms         ...   465.778 sec
 Total measured time           ...  3744.352 sec

 Time for (ab|v) I/O           ...   112.066 sec


------------------------------------
TD-DFT/TDA EXCITED STATES (SINGLETS)
------------------------------------

the weight of the individual excitations are printed if larger than 1.0e-02

STATE  1:  E=   0.115267 au      3.137 eV    25298.1 cm**-1 <S**2> =   0.000000
    74a ->  75a  :     0.946366 (c= -0.97281368)

STATE  2:  E=   0.135269 au      3.681 eV    29688.1 cm**-1 <S**2> =   0.000000
    69a ->  75a  :     0.440814 (c= -0.66393852)
    69a ->  81a  :     0.016236 (c=  0.12742117)
    71a ->  76a  :     0.010775 (c=  0.10380458)
    73a ->  75a  :     0.290781 (c=  0.53924119)
    74a ->  76a  :     0.155505 (c=  0.39434107)

STATE  3:  E=   0.137320 au      3.737 eV    30138.2 cm**-1 <S**2> =   0.000000
    69a ->  75a  :     0.411785 (c= -0.64170451)
    69a ->  81a  :     0.015141 (c=  0.12304902)
    71a ->  75a  :     0.015959 (c=  0.12633032)
    73a ->  75a  :     0.236387 (c= -0.48619631)
    74a ->  76a  :     0.224599 (c= -0.47391842)

STATE  4:  E=   0.154134 au      4.194 eV    33828.6 cm**-1 <S**2> =   0.000000
    69a ->  75a  :     0.010528 (c= -0.10260614)
    71a ->  75a  :     0.118945 (c= -0.34488419)
    73a ->  75a  :     0.345786 (c= -0.58803542)
    73a ->  76a  :     0.045181 (c=  0.21255864)
    74a ->  76a  :     0.415580 (c=  0.64465456)

STATE  5:  E=   0.153271 au      4.171 eV    33639.1 cm**-1 <S**2> =   0.000000
    71a ->  75a  :     0.015173 (c=  0.12317851)
    71a ->  84a  :     0.011802 (c= -0.10863511)
    72a ->  75a  :     0.839338 (c=  0.91615390)
    72a ->  83a  :     0.017261 (c= -0.13138179)
    74a ->  84a  :     0.012972 (c=  0.11389300)

STATE  6:  E=   0.165714 au      4.509 eV    36370.1 cm**-1 <S**2> =   0.000000
    71a ->  75a  :     0.319454 (c= -0.56520245)
    71a ->  76a  :     0.052131 (c= -0.22832213)
    73a ->  75a  :     0.079047 (c=  0.28115277)
    73a ->  76a  :     0.259636 (c=  0.50954463)
    74a ->  76a  :     0.047587 (c= -0.21814426)
    74a ->  80a  :     0.034870 (c= -0.18673489)
    74a ->  81a  :     0.077655 (c= -0.27866571)
    74a ->  83a  :     0.011178 (c= -0.10572561)
    74a ->  84a  :     0.029089 (c=  0.17055566)

STATE  7:  E=   0.169335 au      4.608 eV    37164.8 cm**-1 <S**2> =   0.000000
    70a ->  75a  :     0.071995 (c= -0.26831945)
    71a ->  75a  :     0.416059 (c= -0.64502672)
    71a ->  76a  :     0.015706 (c=  0.12532324)
    73a ->  76a  :     0.151222 (c= -0.38887245)
    74a ->  76a  :     0.061371 (c= -0.24773225)
    74a ->  80a  :     0.037057 (c=  0.19250158)
    74a ->  81a  :     0.094819 (c=  0.30792745)
    74a ->  83a  :     0.010649 (c=  0.10319219)
    74a ->  84a  :     0.044836 (c= -0.21174429)

STATE  8:  E=   0.192515 au      5.239 eV    42252.2 cm**-1 <S**2> =   0.000000
    71a ->  77a  :     0.019773 (c= -0.14061713)
    74a ->  77a  :     0.613953 (c= -0.78355153)
    74a ->  78a  :     0.117581 (c=  0.34290111)
    74a ->  79a  :     0.039965 (c= -0.19991265)
    74a ->  80a  :     0.049048 (c= -0.22146839)
    74a ->  81a  :     0.025628 (c=  0.16008603)
    74a ->  87a  :     0.049477 (c= -0.22243499)
    74a ->  88a  :     0.026314 (c= -0.16221563)

STATE  9:  E=   0.199393 au      5.426 eV    43761.7 cm**-1 <S**2> =   0.000000
    71a ->  77a  :     0.032334 (c= -0.17981550)
    74a ->  77a  :     0.227447 (c= -0.47691448)
    74a ->  78a  :     0.350695 (c= -0.59219466)
    74a ->  79a  :     0.023881 (c=  0.15453508)
    74a ->  80a  :     0.155740 (c=  0.39463855)
    74a ->  81a  :     0.051811 (c= -0.22761982)
    74a ->  84a  :     0.012763 (c=  0.11297308)

STATE 10:  E=   0.189076 au      5.145 eV    41497.4 cm**-1 <S**2> =   0.000000
    71a ->  81a  :     0.018285 (c=  0.13522260)
    72a ->  75a  :     0.013918 (c=  0.11797565)
    73a ->  76a  :     0.161963 (c= -0.40244643)
    74a ->  80a  :     0.121438 (c= -0.34847889)
    74a ->  81a  :     0.373100 (c= -0.61081887)
    74a ->  82a  :     0.027116 (c=  0.16467081)
    74a ->  83a  :     0.087803 (c=  0.29631550)
    74a ->  85a  :     0.047026 (c= -0.21685375)


-----------------------------
TD-DFT/TDA-EXCITATION SPECTRA
-----------------------------

Center of mass = ( -0.3033,  0.0456,  0.2167)
Calculating the Dipole integrals                  ... done
Transforming integrals                            ... done
Calculating the Linear Momentum integrals         ... done
Transforming integrals                            ... done
Calculating angular momentum integrals            ... done
Transforming integrals                            ... done

-----------------------------------------------------------------------------
         ABSORPTION SPECTRUM VIA TRANSITION ELECTRIC DIPOLE MOMENTS
-----------------------------------------------------------------------------
State   Energy    Wavelength  fosc         T2        TX        TY        TZ  
        (cm-1)      (nm)                 (au**2)    (au)      (au)      (au) 
-----------------------------------------------------------------------------
   1   25298.1    395.3   0.925821169  12.04799  -3.44505   0.08505  -0.41519
   2   29688.1    336.8   0.010840748   0.12021  -0.31232   0.11554   0.09655
   3   30138.2    331.8   0.021698576   0.23702   0.44313   0.04703  -0.19609
   4   33828.6    295.6   0.483757528   4.70782   1.80206   0.07260   1.20629
   5   33639.1    297.3   0.029663329   0.29030  -0.18299  -0.24135  -0.44561
   6   36370.1    275.0   0.021819672   0.19751   0.21942  -0.07805  -0.37851
   7   37164.8    269.1   0.086373601   0.76511  -0.63046  -0.03844  -0.60511
   8   42252.2    236.7   0.000498889   0.00389  -0.00223   0.01682  -0.05999
   9   43761.7    228.5   0.006946269   0.05226   0.05287   0.09424   0.20144
  10   41497.4    241.0   0.532933235   4.22792  -1.94811   0.04890   0.65606

-----------------------------------------------------------------------------
         ABSORPTION SPECTRUM VIA TRANSITION VELOCITY DIPOLE MOMENTS
-----------------------------------------------------------------------------
State   Energy    Wavelength   fosc        P2         PX        PY        PZ  
        (cm-1)      (nm)                 (au**2)     (au)      (au)      (au) 
-----------------------------------------------------------------------------
   1   25298.1    395.3   0.472059783   0.08162   0.28495  -0.00594   0.01965
   2   29688.1    336.8   0.013875418   0.00282   0.05296   0.00278  -0.00167
   3   30138.2    331.8   0.018377724   0.00379  -0.06120   0.00617  -0.00114
   4   33828.6    295.6   0.227387957   0.05257  -0.22906   0.00659  -0.00792
   5   33639.1    297.3   0.002251163   0.00052   0.02106  -0.00410   0.00756
   6   36370.1    275.0   0.001565336   0.00039  -0.01964   0.00025  -0.00183
   7   37164.8    269.1   0.010859804   0.00276   0.04738  -0.00188   0.02258
   8   42252.2    236.7   0.001571003   0.00045   0.00032  -0.02096   0.00380
   9   43761.7    228.5   0.000484385   0.00014  -0.00825  -0.00175  -0.00858
  10   41497.4    241.0   0.270373726   0.07668   0.27412  -0.00510  -0.03894

-------------------------------------------------------------------
                             CD SPECTRUM
-------------------------------------------------------------------
State  Energy     Wavelength     R         MX        MY        MZ   
       (cm-1)       (nm)     (1e40*cgs)   (au)      (au)      (au)  
-------------------------------------------------------------------
   1   25298.1    395.3      9.08640   0.00738   0.38296  -0.02919
   2   29688.1    336.8    -18.63797   0.08099  -0.15483   0.03781
   3   30138.2    331.8     21.93562   0.09432   0.09614  -0.00107
   4   33828.6    295.6      0.19224   0.01911   0.03767  -0.03048
   5   33639.1    297.3      2.45603  -0.00688   0.14542  -0.08763
   6   36370.1    275.0      1.33481   0.00389   0.08396  -0.02254
   7   37164.8    269.1     -3.93212   0.01696   0.14269  -0.01295
   8   42252.2    236.7      2.48489  -0.02794   0.02187  -0.08069
   9   43761.7    228.5    -11.19737  -0.05432  -0.13729  -0.03942
  10   41497.4    241.0    -37.92660   0.02399   0.35192  -0.07762

-------------------------------------------------------------------
         CD SPECTRUM VIA TRANSITION VELOCITY DIPOLE MOMENTS        
-------------------------------------------------------------------
State  Energy     Wavelength     R         MX        MY        MZ   
       (cm-1)       (nm)     (1e40*cgs)   (au)      (au)      (au)  
-------------------------------------------------------------------
   1   25298.1    395.3     -3.05185   0.00738   0.38296  -0.02919
   2   29688.1    336.8     13.22787   0.08099  -0.15483   0.03781
   3   30138.2    331.8    -17.77705   0.09432   0.09614  -0.00107
   4   33828.6    295.6    -11.89089   0.01911   0.03767  -0.03048
   5   33639.1    297.3     -4.31953  -0.00688   0.14542  -0.08763
   6   36370.1    275.0     -0.04026   0.00389   0.08396  -0.02254
   7   37164.8    269.1      0.67743   0.01696   0.14269  -0.01295
   8   42252.2    236.7     -1.89438  -0.02794   0.02187  -0.08069
   9   43761.7    228.5      2.42775  -0.05432  -0.13729  -0.03942
  10   41497.4    241.0     19.46019   0.02399   0.35192  -0.07762

Total run time:    12523.600 sec

           *** ORCA-CIS/TD-DFT FINISHED WITHOUT ERROR ***

Maximum memory used throughout the entire CIS-calculation: 1600.5 MB

-----------------------
CIS/TD-DFT TOTAL ENERGY
-----------------------

    E(SCF)  =   -971.365237298 Eh
    DE(CIS) =      0.115266651 Eh (Root  1)
    ----------------------------- ---------
    E(tot)  =   -971.249970647 Eh



-------------------------------------------------------------------------------
                          DFT DISPERSION CORRECTION                            
                                                                               
                              DFTD3 V3.1  Rev 1                                
                          USING Becke-Johnson damping                          
-------------------------------------------------------------------------------
The B2PLYP functional is recognized
Active option DFTDOPT                   ...         4   

molecular C6(AA) [au] = 15237.898271 


            DFT-D V3
 parameters
 s6 scaling factor         :     0.6400 
 a1 scaling factor         :     0.3065 
 s8 scaling factor         :     0.9147 
 a2 scaling factor         :     5.0570 
 ad hoc parameters k1-k3   :    16.0000     1.3333    -4.0000 

 Edisp/kcal,au: -23.069270227957  -0.036763218279 
 E6   /kcal   : -12.767903897 
 E8   /kcal   : -10.301366331 
 % E8         :  44.654062435 

-------------------------   ----------------
Dispersion correction           -0.036763218
-------------------------   ----------------


-------------------------   --------------------
FINAL SINGLE POINT ENERGY      -971.286733865771
-------------------------   --------------------


                            ***************************************
                            *     ORCA property calculations      *
                            ***************************************


  WARNING: The energy has been calculated at the MP2 level but the densities
           used in the property calculations are still SCF densities
           MP2 response densities have not been calculated 
           use %mp2 Density relaxed end
           or  %mp2 Density unrelaxed end

                                    ---------------------
                                    Active property flags
                                    ---------------------
   (+) Dipole Moment


------------------------------------------------------------------------------
                       ORCA ELECTRIC PROPERTIES CALCULATION
------------------------------------------------------------------------------

Dipole Moment Calculation                       ... on
Quadrupole Moment Calculation                   ... off
Polarizability Calculation                      ... off
GBWName                                         ... optpbed3-b2plyp-test-513_job2.gbw
Electron density                                ... optpbed3-b2plyp-test-513_job2.scfp
The origin for moment calculation is the CENTER OF MASS  = (-0.303286,  0.045573  0.216657)

-------------
DIPOLE MOMENT
-------------
                                X             Y             Z
Electronic contribution:     -4.75810       0.46390       2.36977
Nuclear contribution   :      3.75919      -0.44993      -2.84698
                        -----------------------------------------
Total Dipole Moment    :     -0.99891       0.01397      -0.47720
                        -----------------------------------------
Magnitude (a.u.)       :      1.10713
Magnitude (Debye)      :      2.81410



--------------------
Rotational spectrum 
--------------------
 
Rotational constants in cm-1:     0.033895     0.004371     0.003894 
Rotational constants in MHz :  1016.142110   131.025173   116.753574 

 Dipole components along the rotational axes: 
x,y,z [a.u.] :    -1.046247    -0.356128     0.065413 
x,y,z [Debye]:    -2.659349    -0.905205     0.166266 

 

Timings for individual modules:

Sum of individual times         ...    15348.755 sec (= 255.813 min)
GTO integral calculation        ...        6.588 sec (=   0.110 min)   0.0 %
SCF iterations                  ...     1276.025 sec (=  21.267 min)   8.3 %
MP2 module                      ...     1522.421 sec (=  25.374 min)   9.9 %
CIS module                      ...    12543.721 sec (= 209.062 min)  81.7 %



                             ****ORCA TERMINATED NORMALLY****
TOTAL RUN TIME: 0 days 10 hours 7 minutes 27 seconds 370 msec
