
                                 *****************
                                 * O   R   C   A *
                                 *****************

                                            #,                                       
                                            ###                                      
                                            ####                                     
                                            #####                                    
                                            ######                                   
                                           ########,                                 
                                     ,,################,,,,,                         
                               ,,#################################,,                 
                          ,,##########################################,,             
                       ,#########################################, ''#####,          
                    ,#############################################,,   '####,        
                  ,##################################################,,,,####,       
                ,###########''''           ''''###############################       
              ,#####''   ,,,,##########,,,,          '''####'''          '####       
            ,##' ,,,,###########################,,,                        '##       
           ' ,,###''''                  '''############,,,                           
         ,,##''                                '''############,,,,        ,,,,,,###''
      ,#''                                            '''#######################'''  
     '                                                          ''''####''''         
             ,#######,   #######,   ,#######,      ##                                
            ,#'     '#,  ##    ##  ,#'     '#,    #''#        ######   ,####,        
            ##       ##  ##   ,#'  ##            #'  '#       #        #'  '#        
            ##       ##  #######   ##           ,######,      #####,   #    #        
            '#,     ,#'  ##    ##  '#,     ,#' ,#      #,         ##   #,  ,#        
             '#######'   ##     ##  '#######'  #'      '#     #####' # '####'        



                  #######################################################
                  #                        -***-                        #
                  #          Department of theory and spectroscopy      #
                  #    Directorship and core code : Frank Neese         #
                  #        Max Planck Institute fuer Kohlenforschung    #
                  #                Kaiser Wilhelm Platz 1               #
                  #                 D-45470 Muelheim/Ruhr               #
                  #                      Germany                        #
                  #                                                     #
                  #                  All rights reserved                #
                  #                        -***-                        #
                  #######################################################


                         Program Version 5.0.2 -  RELEASE  -


 With contributions from (in alphabetic order):
   Daniel Aravena         : Magnetic Suceptibility
   Michael Atanasov       : Ab Initio Ligand Field Theory (pilot matlab implementation)
   Alexander A. Auer      : GIAO ZORA, VPT2 properties, NMR spectrum
   Ute Becker             : Parallelization
   Giovanni Bistoni       : ED, misc. LED, open-shell LED, HFLD
   Martin Brehm           : Molecular dynamics
   Dmytro Bykov           : SCF Hessian
   Vijay G. Chilkuri      : MRCI spin determinant printing, contributions to CSF-ICE
   Dipayan Datta          : RHF DLPNO-CCSD density
   Achintya Kumar Dutta   : EOM-CC, STEOM-CC
   Dmitry Ganyushin       : Spin-Orbit,Spin-Spin,Magnetic field MRCI
   Miquel Garcia          : C-PCM and meta-GGA Hessian, CC/C-PCM, Gaussian charge scheme
   Yang Guo               : DLPNO-NEVPT2, F12-NEVPT2, CIM, IAO-localization
   Andreas Hansen         : Spin unrestricted coupled pair/coupled cluster methods
   Benjamin Helmich-Paris : MC-RPA, TRAH-SCF, COSX integrals
   Lee Huntington         : MR-EOM, pCC
   Robert Izsak           : Overlap fitted RIJCOSX, COSX-SCS-MP3, EOM
   Marcus Kettner         : VPT2
   Christian Kollmar      : KDIIS, OOCD, Brueckner-CCSD(T), CCSD density, CASPT2, CASPT2-K
   Simone Kossmann        : Meta GGA functionals, TD-DFT gradient, OOMP2, MP2 Hessian
   Martin Krupicka        : Initial AUTO-CI
   Lucas Lang             : DCDCAS
   Marvin Lechner         : AUTO-CI (C++ implementation), FIC-MRCC
   Dagmar Lenk            : GEPOL surface, SMD
   Dimitrios Liakos       : Extrapolation schemes; Compound Job, initial MDCI parallelization
   Dimitrios Manganas     : Further ROCIS development; embedding schemes
   Dimitrios Pantazis     : SARC Basis sets
   Anastasios Papadopoulos: AUTO-CI, single reference methods and gradients
   Taras Petrenko         : DFT Hessian,TD-DFT gradient, ASA, ECA, R-Raman, ABS, FL, XAS/XES, NRVS
   Peter Pinski           : DLPNO-MP2, DLPNO-MP2 Gradient
   Christoph Reimann      : Effective Core Potentials
   Marius Retegan         : Local ZFS, SOC
   Christoph Riplinger    : Optimizer, TS searches, QM/MM, DLPNO-CCSD(T), (RO)-DLPNO pert. Triples
   Tobias Risthaus        : Range-separated hybrids, TD-DFT gradient, RPA, STAB
   Michael Roemelt        : Original ROCIS implementation
   Masaaki Saitow         : Open-shell DLPNO-CCSD energy and density
   Barbara Sandhoefer     : DKH picture change effects
   Avijit Sen             : IP-ROCIS
   Kantharuban Sivalingam : CASSCF convergence, NEVPT2, FIC-MRCI
   Bernardo de Souza      : ESD, SOC TD-DFT
   Georgi Stoychev        : AutoAux, RI-MP2 NMR, DLPNO-MP2 response
   Willem Van den Heuvel  : Paramagnetic NMR
   Boris Wezisla          : Elementary symmetry handling
   Frank Wennmohs         : Technical directorship


 We gratefully acknowledge several colleagues who have allowed us to
 interface, adapt or use parts of their codes:
   Stefan Grimme, W. Hujo, H. Kruse, P. Pracht,  : VdW corrections, initial TS optimization,
                  C. Bannwarth, S. Ehlert          DFT functionals, gCP, sTDA/sTD-DF
   Ed Valeev, F. Pavosevic, A. Kumar             : LibInt (2-el integral package), F12 methods
   Garnet Chan, S. Sharma, J. Yang, R. Olivares  : DMRG
   Ulf Ekstrom                                   : XCFun DFT Library
   Mihaly Kallay                                 : mrcc  (arbitrary order and MRCC methods)
   Jiri Pittner, Ondrej Demel                    : Mk-CCSD
   Frank Weinhold                                : gennbo (NPA and NBO analysis)
   Christopher J. Cramer and Donald G. Truhlar   : smd solvation model
   Lars Goerigk                                  : TD-DFT with DH, B97 family of functionals
   V. Asgeirsson, H. Jonsson                     : NEB implementation
   FAccTs GmbH                                   : IRC, NEB, NEB-TS, DLPNO-Multilevel, CI-OPT
                                                   MM, QMMM, 2- and 3-layer-ONIOM, Crystal-QMMM,
                                                   LR-CPCM, SF, NACMEs, symmetry and pop. for TD-DFT,
                                                   nearIR, NL-DFT gradient (VV10), updates on ESD,
                                                   ML-optimized integration grids
   S Lehtola, MJT Oliveira, MAL Marques          : LibXC Library
   Liviu Ungur et al                             : ANISO software


 Your calculation uses the libint2 library for the computation of 2-el integrals
 For citations please refer to: http://libint.valeyev.net

 Your ORCA version has been built with support for libXC version: 5.1.0
 For citations please refer to: https://tddft.org/programs/libxc/

 This ORCA versions uses:
   CBLAS   interface :  Fast vector & matrix operations
   LAPACKE interface :  Fast linear algebra routines
   SCALAPACK package :  Parallel linear algebra routines
   Shared memory     :  Shared parallel matrices
   BLAS/LAPACK       :  OpenBLAS 0.3.15  USE64BITINT DYNAMIC_ARCH NO_AFFINITY Sandybridge SINGLE_THREADED
        Core in use  :  Sandybridge
   Copyright (c) 2011-2014, The OpenBLAS Project


Your calculation utilizes the atom-pairwise dispersion correction
with the Becke-Johnson damping scheme (D3BJ)
Cite in your paper:
S.Grimme, S.Ehrlich, L.Goerigk, J Comput Chem, (2011), 32, 1456–1465 
S.Grimme, J.Antony, S.Ehrlich and H.Krieg, J.Chem.Phys., 132, (2010), 154104 
   

Your calculation utilizes the SMD solvation module
Please cite in your paper:
A.V. Marenich, C.J. Cramer, D.G. Truhlar J. Phys. Chem. B, 113, (2009), 6378 

================================================================================

----- Orbital basis set information -----
Your calculation utilizes the basis: aug-cc-pVTZ 
    H, B-Ne : Obtained from the ccRepo (grant-hill.group.shef.ac.uk/ccrepo) Feb. 2017
              R. A. Kendall, T. H. Dunning, Jr., R. J. Harrison, J. Chem. Phys. 96, 6796 (1992)
         He : Obtained from the ccRepo (grant-hill.group.shef.ac.uk/ccrepo) Feb. 2017
              D. E. Woon, T. H. Dunning, Jr., J. Chem. Phys. 100, 2975 (1994)
  Li-Be, Na : Obtained from the ccRepo (grant-hill.group.shef.ac.uk/ccrepo) Feb. 2017
              B. P. Prascher, D. E. Woon, K. A. Peterson, T. H. Dunning, Jr., A. K. Wilson, Theor. Chem. Acc. 128, 69 (2011)
         Mg : Obtained from the Peterson Research Group Website (tyr0.chem.wsu.edu/~kipeters) Feb. 2017
              B. P. Prascher, D. E. Woon, K. A. Peterson, T. H. Dunning, Jr., A. K. Wilson, Theor. Chem. Acc. 128, 69 (2011)
      Al-Ar : Obtained from the ccRepo (grant-hill.group.shef.ac.uk/ccrepo) Feb. 2017
              D. E. Woon, T. H. Dunning, Jr., J. Chem. Phys. 98, 1358 (1993)
      Sc-Zn : Obtained from the ccRepo (grant-hill.group.shef.ac.uk/ccrepo) Feb. 2017
              N. B. Balabanov, K. A. Peterson, J. Chem. Phys. 123, 064107 (2005)
              N. B. Balabanov, K. A. Peterson, J. Chem. Phys. 125, 074110 (2006)
      Ga-Kr : Obtained from the ccRepo (grant-hill.group.shef.ac.uk/ccrepo) Feb. 2017
              A. K. Wilson, D. E. Woon, K. A. Peterson, T. H. Dunning, Jr., J. Chem. Phys. 110, 7667 (1999)
     Ag, Au : Obtained from the Peterson Research Group Website (tyr0.chem.wsu.edu/~kipeters) Feb. 2017
              K. A. Peterson, C. Puzzarini, Theor. Chem. Acc. 114, 283 (2005)

The basis set includes element-specific modifications.

Your calculation utilizes the basis: cc-pVTZ 
       H, B-Ne : Obtained from the ccRepo (grant-hill.group.shef.ac.uk/ccrepo) Feb. 2017
                 T. H. Dunning, Jr., J. Chem. Phys. 90, 1007 (1989)
            He : Obtained from the ccRepo (grant-hill.group.shef.ac.uk/ccrepo) Feb. 2017
                 D. E. Woon, T. H. Dunning, Jr., J. Chem. Phys. 100, 2975 (1994)
  Li-Be, Na-Mg : Obtained from the ccRepo (grant-hill.group.shef.ac.uk/ccrepo) Feb. 2017
                 B. P. Prascher, D. E. Woon, K. A. Peterson, T. H. Dunning, Jr., A. K. Wilson, Theor. Chem. Acc. 128, 69 (2011)
         Al-Ar : Obtained from the ccRepo (grant-hill.group.shef.ac.uk/ccrepo) Feb. 2017
                 D. E. Woon, T. H. Dunning, Jr., J. Chem. Phys. 98, 1358 (1993)
            Ca : Obtained from the Peterson Research Group Website (tyr0.chem.wsu.edu/~kipeters) Feb. 2017
                 J. Koput, K. A. Peterson, J. Phys. Chem. 106, 9595 (2002)
         Sc-Zn : Obtained from the ccRepo (grant-hill.group.shef.ac.uk/ccrepo) Feb. 2017
                 N. B. Balabanov, K. A. Peterson, J. Chem. Phys. 123, 064107 (2005)
                 N. B. Balabanov, K. A. Peterson, J. Chem. Phys. 125, 074110 (2006)
         Ga-Kr : Obtained from the ccRepo (grant-hill.group.shef.ac.uk/ccrepo) Feb. 2017
                 A. K. Wilson, D. E. Woon, K. A. Peterson, T. H. Dunning, Jr., J. Chem. Phys. 110, 7667 (1999)
             Y : Obtained from the ccRepo (grant-hill.group.shef.ac.uk/ccrepo) Feb. 2017
                 K. A. Peterson, D. Figgen, M. Dolg, H. Stoll, J. Chem. Phys. 126, 124101 (2007)
        Ag, Au : Obtained from the Peterson Research Group Website (tyr0.chem.wsu.edu/~kipeters) Feb. 2017
                 K. A. Peterson, C. Puzzarini, Theor. Chem. Acc. 114, 283 (2005)

----- AuxJ basis set information -----
Your calculation utilizes the auxiliary basis: aug-cc-pVTZ/JK 
  H, B-F, Al-Cl, Ga-Br : Obtained from the TURBOMOLE 7.0 basis set library

The basis set includes element-specific modifications.

Your calculation utilizes the auxiliary basis: cc-pVTZ/JK 
  H, B-F, Al-Cl, Ga-Br : Obtained from the TURBOMOLE 7.0 basis set library

----- AuxC basis set information -----
Your calculation utilizes the auxiliary basis: aug-cc-pVTZ/C 
  H-He, B-F, Al-Ar, Ga-Kr : Obtained from the EMSL Basis Set Exchange (bse.pnl.gov) Feb. 2017
                            F. Weigend, A. Kohn, C. Hattig, J. Chem. Phys. 116, 3175 (2002)
                   Be, Mg : Obtained from the TURBOMOLE 7.0 basis set library
                            C. Haettig, Phys. Chem. Chem. Phys. 7, 59 (2005)
                       Ne : Obtained from the EMSL Basis Set Exchange (bse.pnl.gov) Feb. 2017
                            C. Haettig, Phys. Chem. Chem. Phys. 7, 59 (2005)
                            F. Weigend, A. Kohn, C. Hattig, J. Chem. Phys. 116, 3175 (2002)
                    Sc-Zn : Obtained from the EMSL Basis Set Exchange (bse.pnl.gov) Feb. 2017
                            J. G. Hill, J. A. Platts, J. Chem. Phys. 128, 044104 (2008)

The basis set includes element-specific modifications.

Your calculation utilizes the auxiliary basis: cc-pVTZ/C 
  Obtained from the EMSL Basis Set Exchange (bse.pnl.gov) Feb. 2017
  H-He, B-F, Al-Ar, Ga-Kr : F. Weigend, A. Kohn, C. Hattig, J. Chem. Phys. 116, 3175 (2002)
             Li-Be, Na-Mg : C. Haettig, Phys. Chem. Chem. Phys. 7, 59 (2005)
                       Ne : C. Haettig, Phys. Chem. Chem. Phys. 7, 59 (2005)
                            F. Weigend, A. Kohn, C. Hattig, J. Chem. Phys. 116, 3175 (2002)
                    Sc-Zn : J. G. Hill, J. A. Platts, J. Chem. Phys. 128, 044104 (2008)

================================================================================
                                        WARNINGS
                       Please study these warnings very carefully!
================================================================================


WARNING: Geometry Optimization
  ===> : Switching off AutoStart
         For restart on a previous wavefunction, please use MOREAD

INFO   : the flag for use of the SHARK integral package has been found!



***************************************
The coordinates will be read from file: 
***************************************


Your calculation utilizes the atom-pairwise dispersion correction
with the Becke-Johnson damping scheme (D3BJ)
Cite in your paper:
S.Grimme, S.Ehrlich, L.Goerigk, J Comput Chem, (2011), 32, 1456–1465 
S.Grimme, J.Antony, S.Ehrlich and H.Krieg, J.Chem.Phys., 132, (2010), 154104 
   

Your calculation utilizes the SMD solvation module
Please cite in your paper:
A.V. Marenich, C.J. Cramer, D.G. Truhlar J. Phys. Chem. B, 113, (2009), 6378 

================================================================================

----- Orbital basis set information -----
Your calculation utilizes the basis: aug-cc-pVTZ 
    H, B-Ne : Obtained from the ccRepo (grant-hill.group.shef.ac.uk/ccrepo) Feb. 2017
              R. A. Kendall, T. H. Dunning, Jr., R. J. Harrison, J. Chem. Phys. 96, 6796 (1992)
         He : Obtained from the ccRepo (grant-hill.group.shef.ac.uk/ccrepo) Feb. 2017
              D. E. Woon, T. H. Dunning, Jr., J. Chem. Phys. 100, 2975 (1994)
  Li-Be, Na : Obtained from the ccRepo (grant-hill.group.shef.ac.uk/ccrepo) Feb. 2017
              B. P. Prascher, D. E. Woon, K. A. Peterson, T. H. Dunning, Jr., A. K. Wilson, Theor. Chem. Acc. 128, 69 (2011)
         Mg : Obtained from the Peterson Research Group Website (tyr0.chem.wsu.edu/~kipeters) Feb. 2017
              B. P. Prascher, D. E. Woon, K. A. Peterson, T. H. Dunning, Jr., A. K. Wilson, Theor. Chem. Acc. 128, 69 (2011)
      Al-Ar : Obtained from the ccRepo (grant-hill.group.shef.ac.uk/ccrepo) Feb. 2017
              D. E. Woon, T. H. Dunning, Jr., J. Chem. Phys. 98, 1358 (1993)
      Sc-Zn : Obtained from the ccRepo (grant-hill.group.shef.ac.uk/ccrepo) Feb. 2017
              N. B. Balabanov, K. A. Peterson, J. Chem. Phys. 123, 064107 (2005)
              N. B. Balabanov, K. A. Peterson, J. Chem. Phys. 125, 074110 (2006)
      Ga-Kr : Obtained from the ccRepo (grant-hill.group.shef.ac.uk/ccrepo) Feb. 2017
              A. K. Wilson, D. E. Woon, K. A. Peterson, T. H. Dunning, Jr., J. Chem. Phys. 110, 7667 (1999)
     Ag, Au : Obtained from the Peterson Research Group Website (tyr0.chem.wsu.edu/~kipeters) Feb. 2017
              K. A. Peterson, C. Puzzarini, Theor. Chem. Acc. 114, 283 (2005)

The basis set includes element-specific modifications.

Your calculation utilizes the basis: cc-pVTZ 
       H, B-Ne : Obtained from the ccRepo (grant-hill.group.shef.ac.uk/ccrepo) Feb. 2017
                 T. H. Dunning, Jr., J. Chem. Phys. 90, 1007 (1989)
            He : Obtained from the ccRepo (grant-hill.group.shef.ac.uk/ccrepo) Feb. 2017
                 D. E. Woon, T. H. Dunning, Jr., J. Chem. Phys. 100, 2975 (1994)
  Li-Be, Na-Mg : Obtained from the ccRepo (grant-hill.group.shef.ac.uk/ccrepo) Feb. 2017
                 B. P. Prascher, D. E. Woon, K. A. Peterson, T. H. Dunning, Jr., A. K. Wilson, Theor. Chem. Acc. 128, 69 (2011)
         Al-Ar : Obtained from the ccRepo (grant-hill.group.shef.ac.uk/ccrepo) Feb. 2017
                 D. E. Woon, T. H. Dunning, Jr., J. Chem. Phys. 98, 1358 (1993)
            Ca : Obtained from the Peterson Research Group Website (tyr0.chem.wsu.edu/~kipeters) Feb. 2017
                 J. Koput, K. A. Peterson, J. Phys. Chem. 106, 9595 (2002)
         Sc-Zn : Obtained from the ccRepo (grant-hill.group.shef.ac.uk/ccrepo) Feb. 2017
                 N. B. Balabanov, K. A. Peterson, J. Chem. Phys. 123, 064107 (2005)
                 N. B. Balabanov, K. A. Peterson, J. Chem. Phys. 125, 074110 (2006)
         Ga-Kr : Obtained from the ccRepo (grant-hill.group.shef.ac.uk/ccrepo) Feb. 2017
                 A. K. Wilson, D. E. Woon, K. A. Peterson, T. H. Dunning, Jr., J. Chem. Phys. 110, 7667 (1999)
             Y : Obtained from the ccRepo (grant-hill.group.shef.ac.uk/ccrepo) Feb. 2017
                 K. A. Peterson, D. Figgen, M. Dolg, H. Stoll, J. Chem. Phys. 126, 124101 (2007)
        Ag, Au : Obtained from the Peterson Research Group Website (tyr0.chem.wsu.edu/~kipeters) Feb. 2017
                 K. A. Peterson, C. Puzzarini, Theor. Chem. Acc. 114, 283 (2005)

----- AuxJ basis set information -----
Your calculation utilizes the auxiliary basis: aug-cc-pVTZ/JK 
  H, B-F, Al-Cl, Ga-Br : Obtained from the TURBOMOLE 7.0 basis set library

The basis set includes element-specific modifications.

Your calculation utilizes the auxiliary basis: cc-pVTZ/JK 
  H, B-F, Al-Cl, Ga-Br : Obtained from the TURBOMOLE 7.0 basis set library

----- AuxC basis set information -----
Your calculation utilizes the auxiliary basis: aug-cc-pVTZ/C 
  H-He, B-F, Al-Ar, Ga-Kr : Obtained from the EMSL Basis Set Exchange (bse.pnl.gov) Feb. 2017
                            F. Weigend, A. Kohn, C. Hattig, J. Chem. Phys. 116, 3175 (2002)
                   Be, Mg : Obtained from the TURBOMOLE 7.0 basis set library
                            C. Haettig, Phys. Chem. Chem. Phys. 7, 59 (2005)
                       Ne : Obtained from the EMSL Basis Set Exchange (bse.pnl.gov) Feb. 2017
                            C. Haettig, Phys. Chem. Chem. Phys. 7, 59 (2005)
                            F. Weigend, A. Kohn, C. Hattig, J. Chem. Phys. 116, 3175 (2002)
                    Sc-Zn : Obtained from the EMSL Basis Set Exchange (bse.pnl.gov) Feb. 2017
                            J. G. Hill, J. A. Platts, J. Chem. Phys. 128, 044104 (2008)

The basis set includes element-specific modifications.

Your calculation utilizes the auxiliary basis: cc-pVTZ/C 
  Obtained from the EMSL Basis Set Exchange (bse.pnl.gov) Feb. 2017
  H-He, B-F, Al-Ar, Ga-Kr : F. Weigend, A. Kohn, C. Hattig, J. Chem. Phys. 116, 3175 (2002)
             Li-Be, Na-Mg : C. Haettig, Phys. Chem. Chem. Phys. 7, 59 (2005)
                       Ne : C. Haettig, Phys. Chem. Chem. Phys. 7, 59 (2005)
                            F. Weigend, A. Kohn, C. Hattig, J. Chem. Phys. 116, 3175 (2002)
                    Sc-Zn : J. G. Hill, J. A. Platts, J. Chem. Phys. 128, 044104 (2008)

================================================================================
                                        WARNINGS
                       Please study these warnings very carefully!
================================================================================

INFO   : Checking CIS options ...
  ===> : (D) CORRECTION FOUND - SETTING MODE=3
  ===> : JK MODE FOUND - ACTIVATING RI-MP2 CODE
  ===> : MP2 AND CIS FOUND - CHECKING
WARNING: CIS(D) and MP2 runs must have the same orbital window
  ===> : adjusting orbital windows

WARNING: No MP2 level density has been requested!
         To caclulate MP2 level properties use
         %mp2 Density relaxed end
         or
         %mp2 Density unrelaxed end
         Otherwise for double-hybrid DFT only the energy is correct!

WARNING: The frozen-core approximation is turned on by default for 
         the MP2 part of double-hybrid DFT.

INFO   : the flag for use of the SHARK integral package has been found!

================================================================================
                                       INPUT FILE
================================================================================
NAME = optpbed3-b2plyp-test-36.inp
|  1> ! pbe0 d3bj aug-cc-PVTZ RIJCOSX Opt
|  2> %maxcore 4000
|  3> %basis
|  4>  AuxJ "aug-cc-PVTZ/JK"
|  5>  AuxC "aug-cc-PVTZ/C"
|  6>  newGTO H "cc-PVTZ" end
|  7>  newAuxJGTO H "cc-PVTZ/JK" end
|  8>  newAuxCGTO H "cc-PVTZ/C" end
|  9> end
| 10> %cpcm
| 11>  SMD true
| 12>  SMDsolvent "acetonitrile"
| 13> end
| 14> %pal nprocs 4 end
| 15> * xyz 0 1
| 16> C         -3.61240        1.58710       -1.42270
| 17> C         -2.48820        0.91740       -0.69220
| 18> C         -1.66830        0.01100       -1.38200
| 19> C         -0.61870       -0.63810       -0.77460
| 20> C         -0.37560       -0.37370        0.57140
| 21> C          0.58850       -0.82390        1.53580
| 22> C          1.68550       -1.79960        1.28650
| 23> C          2.59730       -1.36620        0.14470
| 24> O          3.05360       -2.12520       -0.68530
| 25> N          2.88430       -0.04680        0.14210
| 26> N          3.79220        0.52220       -0.77280
| 27> C          0.28190       -0.16750        2.68320
| 28> O         -0.78850        0.65550        2.54580
| 29> C         -1.19700        0.53700        1.25990
| 30> C         -2.25470        1.18850        0.64410
| 31> H         -4.27630        0.84350       -1.86120
| 32> H         -3.22300        2.20260       -2.23300
| 33> H         -4.19000        2.21940       -0.75400
| 34> H         -1.87800       -0.17740       -2.42490
| 35> H          0.00270       -1.33320       -1.31810
| 36> H          2.29320       -1.92120        2.18590
| 37> H          1.27630       -2.77580        1.01650
| 38> H          2.55250        0.57610        0.86250
| 39> H          3.28610        0.83990       -1.60230
| 40> H          4.41180       -0.23070       -1.07660
| 41> H          0.73470       -0.20210        3.65560
| 42> H         -2.87020        1.88120        1.19610
| 43> *
| 44> 
| 45> 
| 46> $new_job
| 47> ! b2plyp aug-cc-PVTZ RIJCOSX SP
| 48> %maxcore 4000
| 49> %basis
| 50>  AuxJ "aug-cc-PVTZ/JK"
| 51>  AuxC "aug-cc-PVTZ/C"
| 52>  newGTO H "cc-PVTZ" end
| 53>  newAuxJGTO H "cc-PVTZ/JK" end
| 54>  newAuxCGTO H "cc-PVTZ/C" end
| 55> end
| 56> %cpcm
| 57>  SMD true
| 58>  SMDsolvent "acetonitrile"
| 59> end
| 60> %pal nprocs 4 end
| 61> %tddft
| 62>  nroots 10
| 63>  maxdim 7
| 64> end
| 65> * xyzfile 0 1
| 66> 
| 67>                          ****END OF INPUT****
================================================================================


                 $$$$$$$$$$$$$$$$$$$$$$$$$$$$$$$$$$$$$$$$$$$$$$ 
                 $ THERE ARE  2 JOBS TO BE PROCESSED THIS RUN $
                 $$$$$$$$$$$$$$$$$$$$$$$$$$$$$$$$$$$$$$$$$$$$$$ 




                 $$$$$$$$$$$$$$$$  JOB NUMBER  1 $$$$$$$$$$$$$$


                       *****************************
                       * Geometry Optimization Run *
                       *****************************

Geometry optimization settings:
Update method            Update   .... BFGS
Choice of coordinates    CoordSys .... Z-matrix Internals
Initial Hessian          InHess   .... Almoef's Model

Convergence Tolerances:
Energy Change            TolE     ....  5.0000e-06 Eh
Max. Gradient            TolMAXG  ....  3.0000e-04 Eh/bohr
RMS Gradient             TolRMSG  ....  1.0000e-04 Eh/bohr
Max. Displacement        TolMAXD  ....  4.0000e-03 bohr
RMS Displacement         TolRMSD  ....  2.0000e-03 bohr
Strict Convergence                ....  False
------------------------------------------------------------------------------
                        ORCA OPTIMIZATION COORDINATE SETUP
------------------------------------------------------------------------------

The optimization will be done in new redundant internal coordinates
Making redundant internal coordinates   ...  (new redundants) done
Evaluating the initial hessian          ...  (Almloef) done
Evaluating the coordinates              ...  done
Calculating the B-matrix                .... done
Calculating the G-matrix                .... done
Diagonalizing the G-matrix              .... done
Small eigenvalue found = 6.052e-03
Small eigenvalue found = 1.777e-02
The first mode is                       ....   61
The number of degrees of freedom        ....   75

    -----------------------------------------------------------------
                    Redundant Internal Coordinates


    -----------------------------------------------------------------
         Definition                    Initial Value    Approx d2E/dq
    -----------------------------------------------------------------
      1. B(C   1,C   0)                  1.4987         0.419173   
      2. B(C   2,C   1)                  1.4034         0.594715   
      3. B(C   3,C   2)                  1.3755         0.659046   
      4. B(C   4,C   3)                  1.3931         0.617727   
      5. B(C   5,C   4)                  1.4360         0.527558   
      6. B(C   6,C   5)                  1.4891         0.434071   
      7. B(C   7,C   6)                  1.5241         0.381741   
      8. B(O   8,C   7)                  1.2138         1.069227   
      9. B(N   9,C   7)                  1.3503         0.647566   
     10. B(N  10,N   9)                  1.4089         0.467530   
     11. B(C  11,C   5)                  1.3570         0.705378   
     12. B(O  12,C  11)                  1.3572         0.631280   
     13. B(C  13,O  12)                  1.3544         0.637736   
     14. B(C  13,C   4)                  1.4065         0.588155   
     15. B(C  14,C   1)                  1.3834         0.640199   
     16. B(C  14,C  13)                  1.3865         0.632874   
     17. B(H  15,C   0)                  1.0890         0.361385   
     18. B(H  16,C   0)                  1.0895         0.360733   
     19. B(H  17,C   0)                  1.0865         0.364697   
     20. B(H  18,C   2)                  1.0803         0.373125   
     21. B(H  19,C   3)                  1.0792         0.374660   
     22. B(H  20,C   6)                  1.0922         0.357138   
     23. B(H  21,C   6)                  1.0924         0.356955   
     24. B(H  22,N   9)                  1.0085         0.435099   
     25. B(H  23,N  10)                  1.0223         0.413559   
     26. B(H  24,N  10)                  1.0213         0.415111   
     27. B(H  25,C  11)                  1.0732         0.383006   
     28. B(H  26,C  14)                  1.0786         0.375501   
     29. A(H  16,C   0,H  17)          108.5997         0.291500   
     30. A(C   1,C   0,H  16)          110.2955         0.330629   
     31. A(C   1,C   0,H  15)          110.3924         0.330728   
     32. A(H  15,C   0,H  16)          107.7076         0.291083   
     33. A(C   1,C   0,H  17)          111.0284         0.331228   
     34. A(H  15,C   0,H  17)          108.7286         0.291583   
     35. A(C   2,C   1,C  14)          120.1816         0.433319   
     36. A(C   0,C   1,C   2)          119.1612         0.401847   
     37. A(C   0,C   1,C  14)          120.6569         0.407109   
     38. A(C   1,C   2,H  18)          118.2755         0.352544   
     39. A(C   1,C   2,C   3)          122.2446         0.435587   
     40. A(C   3,C   2,H  18)          119.4799         0.358743   
     41. A(C   2,C   3,C   4)          118.0511         0.438578   
     42. A(C   4,C   3,H  19)          120.5538         0.355066   
     43. A(C   2,C   3,H  19)          121.3950         0.358994   
     44. A(C   5,C   4,C  13)          105.4461         0.417737   
     45. A(C   3,C   4,C  13)          119.6012         0.429689   
     46. A(C   3,C   4,C   5)          134.9520         0.421407   
     47. A(C   6,C   5,C  11)          128.6777         0.416748   
     48. A(C   4,C   5,C   6)          125.9829         0.395893   
     49. A(C   4,C   5,C  11)          105.3379         0.431541   
     50. A(C   5,C   6,C   7)          112.3219         0.374224   
     51. A(H  20,C   6,H  21)          108.2070         0.290063   
     52. A(C   5,C   6,H  21)          110.5454         0.331967   
     53. A(C   7,C   6,H  21)          107.0407         0.325004   
     54. A(C   7,C   6,H  20)          108.4026         0.325032   
     55. A(C   5,C   6,H  20)          110.1789         0.331995   
     56. A(C   6,C   7,O   8)          124.0131         0.435905   
     57. A(O   8,C   7,N   9)          121.9933         0.476767   
     58. A(C   6,C   7,N   9)          113.9830         0.398683   
     59. A(C   7,N   9,N  10)          122.1976         0.407857   
     60. A(N  10,N   9,H  22)          115.2407         0.340169   
     61. A(C   7,N   9,H  22)          122.1562         0.361677   
     62. A(H  23,N  10,H  24)          106.7425         0.299090   
     63. A(N   9,N  10,H  24)          106.6412         0.337510   
     64. A(N   9,N  10,H  23)          109.4740         0.337299   
     65. A(C   5,C  11,O  12)          112.7012         0.442808   
     66. A(O  12,C  11,H  25)          116.3616         0.355502   
     67. A(C   5,C  11,H  25)          130.9351         0.364548   
     68. A(C  11,O  12,C  13)          106.3160         0.431981   
     69. A(O  12,C  13,C  14)          127.6358         0.435024   
     70. A(C   4,C  13,C  14)          122.1654         0.431562   
     71. A(C   4,C  13,O  12)          110.1984         0.429332   
     72. A(C  13,C  14,H  26)          120.6501         0.356665   
     73. A(C   1,C  14,H  26)          121.5941         0.357363   
     74. A(C   1,C  14,C  13)          117.7559         0.438200   
     75. D(C  14,C   1,C   0,H  15)   -123.7517         0.012994   
     76. D(C   2,C   1,C   0,H  17)    177.0937         0.012994   
     77. D(C   2,C   1,C   0,H  16)    -62.4751         0.012994   
     78. D(C   2,C   1,C   0,H  15)     56.4362         0.012994   
     79. D(C  14,C   1,C   0,H  17)     -3.0941         0.012994   
     80. D(C  14,C   1,C   0,H  16)    117.3370         0.012994   
     81. D(C   3,C   2,C   1,C   0)    179.9383         0.024359   
     82. D(H  18,C   2,C   1,C  14)   -179.9643         0.024359   
     83. D(H  18,C   2,C   1,C   0)     -0.1513         0.024359   
     84. D(C   3,C   2,C   1,C  14)      0.1253         0.024359   
     85. D(H  19,C   3,C   2,H  18)      0.0422         0.030302   
     86. D(H  19,C   3,C   2,C   1)    179.9515         0.030302   
     87. D(C   4,C   3,C   2,H  18)   -179.9550         0.030302   
     88. D(C   4,C   3,C   2,C   1)     -0.0456         0.030302   
     89. D(C   5,C   4,C   3,C   2)   -179.7402         0.026393   
     90. D(C  13,C   4,C   3,H  19)    179.9237         0.026393   
     91. D(C  13,C   4,C   3,C   2)     -0.0791         0.026393   
     92. D(C   5,C   4,C   3,H  19)      0.2626         0.026393   
     93. D(C  11,C   5,C   4,C  13)     -0.1854         0.018993   
     94. D(C  11,C   5,C   4,C   3)    179.5089         0.018993   
     95. D(C   6,C   5,C   4,C  13)   -179.7646         0.018993   
     96. D(C   6,C   5,C   4,C   3)     -0.0703         0.018993   
     97. D(H  21,C   6,C   5,C  11)    117.4787         0.013910   
     98. D(H  20,C   6,C   5,C  11)     -2.0746         0.013910   
     99. D(H  20,C   6,C   5,C   4)    177.4056         0.013910   
    100. D(C   7,C   6,C   5,C  11)   -123.0368         0.013910   
    101. D(H  21,C   6,C   5,C   4)    -63.0411         0.013910   
    102. D(C   7,C   6,C   5,C   4)     56.4434         0.013910   
    103. D(O   8,C   7,C   6,H  20)     97.8716         0.010868   
    104. D(O   8,C   7,C   6,C   5)   -140.1503         0.010868   
    105. D(O   8,C   7,C   6,H  21)    -18.6405         0.010868   
    106. D(N   9,C   7,C   6,H  21)    162.5270         0.010868   
    107. D(N   9,C   7,C   6,H  20)    -80.9608         0.010868   
    108. D(N   9,C   7,C   6,C   5)     41.0173         0.010868   
    109. D(H  22,N   9,C   7,O   8)   -176.1837         0.034200   
    110. D(H  22,N   9,C   7,C   6)      2.6752         0.034200   
    111. D(N  10,N   9,C   7,O   8)     -3.8429         0.034200   
    112. D(N  10,N   9,C   7,C   6)    175.0160         0.034200   
    113. D(H  24,N  10,N   9,H  22)    149.3149         0.020040   
    114. D(H  24,N  10,N   9,C   7)    -23.5191         0.020040   
    115. D(H  23,N  10,N   9,H  22)    -95.5598         0.020040   
    116. D(H  23,N  10,N   9,C   7)     91.6062         0.020040   
    117. D(H  25,C  11,C   5,C   6)     -0.7790         0.035089   
    118. D(H  25,C  11,C   5,C   4)    179.6571         0.035089   
    119. D(O  12,C  11,C   5,C   6)    179.7776         0.035089   
    120. D(O  12,C  11,C   5,C   4)      0.2138         0.035089   
    121. D(C  13,O  12,C  11,H  25)   -179.6835         0.029316   
    122. D(C  13,O  12,C  11,C   5)     -0.1528         0.029316   
    123. D(C  14,C  13,O  12,C  11)   -179.7417         0.029966   
    124. D(C   4,C  13,O  12,C  11)      0.0231         0.029966   
    125. D(C  14,C  13,C   4,C   5)    179.8822         0.023798   
    126. D(C  14,C  13,C   4,C   3)      0.1310         0.023798   
    127. D(O  12,C  13,C   4,C   5)      0.1023         0.023798   
    128. D(O  12,C  13,C   4,C   3)   -179.6489         0.023798   
    129. D(H  26,C  14,C  13,O  12)     -0.3639         0.027787   
    130. D(H  26,C  14,C  13,C   4)    179.8969         0.027787   
    131. D(C   1,C  14,C  13,O  12)    179.6870         0.027787   
    132. D(C   1,C  14,C  13,C   4)     -0.0522         0.027787   
    133. D(H  26,C  14,C   1,C   2)    179.9782         0.028477   
    134. D(H  26,C  14,C   1,C   0)      0.1679         0.028477   
    135. D(C  13,C  14,C   1,C   2)     -0.0733         0.028477   
    136. D(C  13,C  14,C   1,C   0)   -179.8835         0.028477   
    -----------------------------------------------------------------

Number of atoms                         .... 27
Number of degrees of freedom            .... 136

         *************************************************************
         *                GEOMETRY OPTIMIZATION CYCLE   1            *
         *************************************************************
---------------------------------
CARTESIAN COORDINATES (ANGSTROEM)
---------------------------------
  C     -3.612400    1.587100   -1.422700
  C     -2.488200    0.917400   -0.692200
  C     -1.668300    0.011000   -1.382000
  C     -0.618700   -0.638100   -0.774600
  C     -0.375600   -0.373700    0.571400
  C      0.588500   -0.823900    1.535800
  C      1.685500   -1.799600    1.286500
  C      2.597300   -1.366200    0.144700
  O      3.053600   -2.125200   -0.685300
  N      2.884300   -0.046800    0.142100
  N      3.792200    0.522200   -0.772800
  C      0.281900   -0.167500    2.683200
  O     -0.788500    0.655500    2.545800
  C     -1.197000    0.537000    1.259900
  C     -2.254700    1.188500    0.644100
  H     -4.276300    0.843500   -1.861200
  H     -3.223000    2.202600   -2.233000
  H     -4.190000    2.219400   -0.754000
  H     -1.878000   -0.177400   -2.424900
  H      0.002700   -1.333200   -1.318100
  H      2.293200   -1.921200    2.185900
  H      1.276300   -2.775800    1.016500
  H      2.552500    0.576100    0.862500
  H      3.286100    0.839900   -1.602300
  H      4.411800   -0.230700   -1.076600
  H      0.734700   -0.202100    3.655600
  H     -2.870200    1.881200    1.196100

----------------------------
CARTESIAN COORDINATES (A.U.)
----------------------------
  NO LB      ZA    FRAG     MASS         X           Y           Z
   0 C     6.0000    0    12.011   -6.826447    2.999184   -2.688513
   1 C     6.0000    0    12.011   -4.702017    1.733635   -1.308068
   2 C     6.0000    0    12.011   -3.152630    0.020787   -2.611602
   3 C     6.0000    0    12.011   -1.169174   -1.205834   -1.463782
   4 C     6.0000    0    12.011   -0.709781   -0.706191    1.079790
   5 C     6.0000    0    12.011    1.112104   -1.556945    2.902241
   6 C     6.0000    0    12.011    3.185133   -3.400751    2.431133
   7 C     6.0000    0    12.011    4.908186   -2.581744    0.273443
   8 O     8.0000    0    15.999    5.770468   -4.016046   -1.295029
   9 N     7.0000    0    14.007    5.450537   -0.088439    0.268530
  10 N     7.0000    0    14.007    7.166219    0.986815   -1.460380
  11 C     6.0000    0    12.011    0.532714   -0.316529    5.070513
  12 O     8.0000    0    15.999   -1.490049    1.238715    4.810865
  13 C     6.0000    0    12.011   -2.262002    1.014783    2.380866
  14 C     6.0000    0    12.011   -4.260766    2.245940    1.217173
  15 H     1.0000    0     1.008   -8.081036    1.593984   -3.517158
  16 H     1.0000    0     1.008   -6.090587    4.162311   -4.219758
  17 H     1.0000    0     1.008   -7.917953    4.194058   -1.424854
  18 H     1.0000    0     1.008   -3.548906   -0.335237   -4.582397
  19 H     1.0000    0     1.008    0.005102   -2.519383   -2.490848
  20 H     1.0000    0     1.008    4.333520   -3.630542    4.130752
  21 H     1.0000    0     1.008    2.411857   -5.245502    1.920907
  22 H     1.0000    0     1.008    4.823526    1.088671    1.629889
  23 H     1.0000    0     1.008    6.209829    1.587181   -3.027908
  24 H     1.0000    0     1.008    8.337094   -0.435960   -2.034479
  25 H     1.0000    0     1.008    1.388382   -0.381914    6.908083
  26 H     1.0000    0     1.008   -5.423892    3.554953    2.260301

--------------------------------
INTERNAL COORDINATES (ANGSTROEM)
--------------------------------
 C      0   0   0     0.000000000000     0.00000000     0.00000000
 C      1   0   0     1.498650719814     0.00000000     0.00000000
 C      2   1   0     1.403431868671   119.16118218     0.00000000
 C      3   2   1     1.375472911402   122.24461749   179.93834204
 C      4   3   2     1.393097616824   118.05113910   359.95437263
 C      5   4   3     1.436048818808   134.95203960   180.25976290
 C      6   5   4     1.489144042731   125.98290756   359.92966846
 C      7   6   5     1.524113525955   112.32193729    56.44340133
 O      8   7   6     1.213750670443   124.01308608   219.84971532
 N      8   7   6     1.350256316408   113.98299670    41.01726825
 N     10   8   7     1.408930594458   122.19756279   175.01602080
 C      6   5   4     1.356978732331   105.33786442   179.50892275
 O     12   6   5     1.357189714078   112.70116596     0.21376425
 C     13  12   6     1.354419916422   106.31600012   359.84720891
 C      2   1   3     1.383370937240   120.65693370   179.81217246
 H      1   2   3     1.089030036317   110.39235034    56.43616187
 H      1   2   3     1.089522234743   110.29550590   297.52487113
 H      1   2   3     1.086547164186   111.02841122   177.09369427
 H      3   2   1     1.080328218645   118.27546252   359.84873835
 H      4   3   2     1.079209998100   121.39501171   179.95154685
 H      7   6   5     1.092248236437   110.17894126   177.40564606
 H      7   6   5     1.092387788288   110.54537913   296.95893438
 H     10   8   7     1.008499781854   122.15621926     2.67520013
 H     11  10   8     1.022321255770   109.47400929    91.60619552
 H     11  10   8     1.021301625378   106.64122388   336.48090398
 H     12   6   5     1.073213287283   130.93512883   179.65713098
 H     15   2   1     1.078599805303   121.59405139     0.16792267

---------------------------
INTERNAL COORDINATES (A.U.)
---------------------------
 C      0   0   0     0.000000000000     0.00000000     0.00000000
 C      1   0   0     2.832039430853     0.00000000     0.00000000
 C      2   1   0     2.652101879405   119.16118218     0.00000000
 C      3   2   1     2.599267107177   122.24461749   179.93834204
 C      4   3   2     2.632572973615   118.05113910   359.95437263
 C      5   4   3     2.713738982488   134.95203960   180.25976290
 C      6   5   4     2.814074414721   125.98290756   359.92966846
 C      7   6   5     2.880157161061   112.32193729    56.44340133
 O      8   7   6     2.293656362000   124.01308608   219.84971532
 N      8   7   6     2.551614648609   113.98299670    41.01726825
 N     10   8   7     2.662492965229   122.19756279   175.01602080
 C      6   5   4     2.564318173662   105.33786442   179.50892275
 O     12   6   5     2.564716871383   112.70116596     0.21376425
 C     13  12   6     2.559482712366   106.31600012   359.84720891
 C      2   1   3     2.614192213009   120.65693370   179.81217246
 H      1   2   3     2.057968520253   110.39235034    56.43616187
 H      1   2   3     2.058898640483   110.29550590   297.52487113
 H      1   2   3     2.053276571900   111.02841122   177.09369427
 H      3   2   1     2.041524467985   118.27546252   359.84873835
 H      4   3   2     2.039411337400   121.39501171   179.95154685
 H      7   6   5     2.064050037125   110.17894126   177.40564606
 H      7   6   5     2.064313751904   110.54537913   296.95893438
 H     10   8   7     1.905788393824   122.15621926     2.67520013
 H     11  10   8     1.931907194293   109.47400929    91.60619552
 H     11  10   8     1.929980372093   106.64122388   336.48090398
 H     12   6   5     2.028079196250   130.93512883   179.65713098
 H     15   2   1     2.038258240124   121.59405139     0.16792267

---------------------
BASIS SET INFORMATION
---------------------
There are 4 groups of distinct atoms

 Group   1 Type C   : 19s6p3d2f contracted to 5s4p3d2f pattern {88111/3111/111/11}
 Group   2 Type O   : 19s6p3d2f contracted to 5s4p3d2f pattern {88111/3111/111/11}
 Group   3 Type N   : 19s6p3d2f contracted to 5s4p3d2f pattern {88111/3111/111/11}
 Group   4 Type H   : 5s2p1d contracted to 3s2p1d pattern {311/11/1}

Atom   0C    basis set group =>   1
Atom   1C    basis set group =>   1
Atom   2C    basis set group =>   1
Atom   3C    basis set group =>   1
Atom   4C    basis set group =>   1
Atom   5C    basis set group =>   1
Atom   6C    basis set group =>   1
Atom   7C    basis set group =>   1
Atom   8O    basis set group =>   2
Atom   9N    basis set group =>   3
Atom  10N    basis set group =>   3
Atom  11C    basis set group =>   1
Atom  12O    basis set group =>   2
Atom  13C    basis set group =>   1
Atom  14C    basis set group =>   1
Atom  15H    basis set group =>   4
Atom  16H    basis set group =>   4
Atom  17H    basis set group =>   4
Atom  18H    basis set group =>   4
Atom  19H    basis set group =>   4
Atom  20H    basis set group =>   4
Atom  21H    basis set group =>   4
Atom  22H    basis set group =>   4
Atom  23H    basis set group =>   4
Atom  24H    basis set group =>   4
Atom  25H    basis set group =>   4
Atom  26H    basis set group =>   4
---------------------------------
AUXILIARY/J BASIS SET INFORMATION
---------------------------------
There are 4 groups of distinct atoms

 Group   1 Type C   : 10s7p5d2f1g contracted to 10s7p5d2f1g pattern {1111111111/1111111/11111/11/1}
 Group   2 Type O   : 10s7p5d2f1g contracted to 10s7p5d2f1g pattern {1111111111/1111111/11111/11/1}
 Group   3 Type N   : 10s7p5d2f1g contracted to 10s7p5d2f1g pattern {1111111111/1111111/11111/11/1}
 Group   4 Type H   : 4s3p2d1f contracted to 4s3p2d1f pattern {1111/111/11/1}

Atom   0C    basis set group =>   1
Atom   1C    basis set group =>   1
Atom   2C    basis set group =>   1
Atom   3C    basis set group =>   1
Atom   4C    basis set group =>   1
Atom   5C    basis set group =>   1
Atom   6C    basis set group =>   1
Atom   7C    basis set group =>   1
Atom   8O    basis set group =>   2
Atom   9N    basis set group =>   3
Atom  10N    basis set group =>   3
Atom  11C    basis set group =>   1
Atom  12O    basis set group =>   2
Atom  13C    basis set group =>   1
Atom  14C    basis set group =>   1
Atom  15H    basis set group =>   4
Atom  16H    basis set group =>   4
Atom  17H    basis set group =>   4
Atom  18H    basis set group =>   4
Atom  19H    basis set group =>   4
Atom  20H    basis set group =>   4
Atom  21H    basis set group =>   4
Atom  22H    basis set group =>   4
Atom  23H    basis set group =>   4
Atom  24H    basis set group =>   4
Atom  25H    basis set group =>   4
Atom  26H    basis set group =>   4
---------------------------------
AUXILIARY/C BASIS SET INFORMATION
---------------------------------
There are 4 groups of distinct atoms

 Group   1 Type C   : 9s7p6d4f2g contracted to 9s7p6d4f2g pattern {111111111/1111111/111111/1111/11}
 Group   2 Type O   : 9s7p6d4f2g contracted to 9s7p6d4f2g pattern {111111111/1111111/111111/1111/11}
 Group   3 Type N   : 9s7p6d4f2g contracted to 9s7p6d4f2g pattern {111111111/1111111/111111/1111/11}
 Group   4 Type H   : 4s3p2d1f contracted to 4s3p2d1f pattern {1111/111/11/1}

Atom   0C    basis set group =>   1
Atom   1C    basis set group =>   1
Atom   2C    basis set group =>   1
Atom   3C    basis set group =>   1
Atom   4C    basis set group =>   1
Atom   5C    basis set group =>   1
Atom   6C    basis set group =>   1
Atom   7C    basis set group =>   1
Atom   8O    basis set group =>   2
Atom   9N    basis set group =>   3
Atom  10N    basis set group =>   3
Atom  11C    basis set group =>   1
Atom  12O    basis set group =>   2
Atom  13C    basis set group =>   1
Atom  14C    basis set group =>   1
Atom  15H    basis set group =>   4
Atom  16H    basis set group =>   4
Atom  17H    basis set group =>   4
Atom  18H    basis set group =>   4
Atom  19H    basis set group =>   4
Atom  20H    basis set group =>   4
Atom  21H    basis set group =>   4
Atom  22H    basis set group =>   4
Atom  23H    basis set group =>   4
Atom  24H    basis set group =>   4
Atom  25H    basis set group =>   4
Atom  26H    basis set group =>   4


           ************************************************************
           *        Program running with 4 parallel MPI-processes     *
           *              working on a common directory               *
           ************************************************************
------------------------------------------------------------------------------
                           ORCA GTO INTEGRAL CALCULATION
                           -- RI-GTO INTEGRALS CHOSEN --
------------------------------------------------------------------------------
------------------------------------------------------------------------------
                   ___                                                        
                  /   \      - P O W E R E D   B Y -                         
                 /     \                                                     
                 |  |  |   _    _      __       _____    __    __             
                 |  |  |  | |  | |    /  \     |  _  \  |  |  /  |          
                  \  \/   | |  | |   /    \    | | | |  |  | /  /          
                 / \  \   | |__| |  /  /\  \   | |_| |  |  |/  /          
                |  |  |   |  __  | /  /__\  \  |    /   |      \           
                |  |  |   | |  | | |   __   |  |    \   |  |\   \          
                \     /   | |  | | |  |  |  |  | |\  \  |  | \   \       
                 \___/    |_|  |_| |__|  |__|  |_| \__\ |__|  \__/        
                                                                              
                      - O R C A' S   B I G   F R I E N D -                    
                                      &                                       
                       - I N T E G R A L  F E E D E R -                       
                                                                              
 v1 FN, 2020, v2 2021                                                         
------------------------------------------------------------------------------


Reading SHARK input file optpbed3-b2plyp-test-36.SHARKINP.tmp ... ok
----------------------
SHARK INTEGRAL PACKAGE
----------------------

Number of atoms                             ...     27
Number of basis functions                   ...    948
Number of shells                            ...    372
Maximum angular momentum                    ...      3
Integral batch strategy                     ... SHARK/LIBINT Hybrid
RI-J (if used) integral strategy            ... SPLIT-RIJ (Revised 2003 algorithm where possible)
Printlevel                                  ...      1
Contraction scheme used                     ... PARTIAL GENERAL contraction
Coulomb Range Separation                    ... NOT USED
Exchange Range Separation                   ... NOT USED
Finite Nucleus Model                        ... NOT USED
Auxiliary Coulomb fitting basis             ... AVAILABLE
   # of basis functions in Aux-J            ...   1545
   # of shells in Aux-J                     ...    495
   Maximum angular momentum in Aux-J        ...      4
Auxiliary J/K fitting basis                 ... NOT available
Auxiliary Correlation fitting basis         ... AVAILABLE
   # of basis functions in Aux-C            ...   1950
   # of shells in Aux-C                     ...    540
   Maximum angular momentum in Aux-C        ...      4
Auxiliary 'external' fitting basis          ... NOT available
Integral threshold                          ...     2.500000e-11
Primitive cut-off                           ...     2.500000e-12
Primitive pair pre-selection threshold      ...     2.500000e-12

Calculating pre-screening integrals         ... done (  0.2 sec) Dimension = 372
Calculating pre-screening integrals (ORCA)  ... done (  0.4 sec) Dimension = 282
Organizing shell pair data                  ... done (  0.7 sec)
Shell pair information
Total number of shell pairs                 ...     69378
Shell pairs after pre-screening             ...     49825
Total number of primitive shell pairs       ...     91032
Primitive shell pairs kept                  ...     59432
          la=0 lb=0:  11630 shell pairs
          la=1 lb=0:  12642 shell pairs
          la=1 lb=1:   3047 shell pairs
          la=2 lb=0:   8360 shell pairs
          la=2 lb=1:   4043 shell pairs
          la=2 lb=2:   1383 shell pairs
          la=3 lb=0:   4611 shell pairs
          la=3 lb=1:   2199 shell pairs
          la=3 lb=2:   1485 shell pairs
          la=3 lb=3:    425 shell pairs

Calculating one electron integrals          ... done (  0.1 sec)
Calculating RI/J V-Matrix + Cholesky decomp.... done (  0.5 sec)
Calculating RI/C V-Matrix + Cholesky decomp.... done (  0.4 sec)
Calculating Nuclear repulsion               ... done (  0.0 sec) ENN=    964.656215178566 Eh

SHARK setup successfully completed in   3.2 seconds

Maximum memory used throughout the entire GTOINT-calculation: 75.6 MB


           ************************************************************
           *        Program running with 4 parallel MPI-processes     *
           *              working on a common directory               *
           ************************************************************
-------------------------------------------------------------------------------
                                 ORCA SCF
-------------------------------------------------------------------------------

------------
SCF SETTINGS
------------
Hamiltonian:
 Density Functional     Method          .... DFT(GTOs)
 Exchange Functional    Exchange        .... PBE
   PBE kappa parameter   XKappa         ....  0.804000
   PBE mue parameter    XMuePBE         ....  0.219520
 Correlation Functional Correlation     .... PBE
   PBE beta parameter  CBetaPBE         ....  0.066725
 LDA part of GGA corr.  LDAOpt          .... PW91-LDA
 Gradients option       PostSCFGGA      .... off
 Hybrid DFT is turned on
   Fraction HF Exchange ScalHFX         ....  0.250000
   Scaling of DF-GGA-X  ScalDFX         ....  0.750000
   Scaling of DF-GGA-C  ScalDFC         ....  1.000000
   Scaling of DF-LDA-C  ScalLDAC        ....  1.000000
   Perturbative correction              ....  0.000000
   Density functional embedding theory  .... OFF
   NL short-range parameter             ....  6.900000
 RI-approximation to the Coulomb term is turned on
   Number of AuxJ basis functions       .... 1545
   RIJ-COSX (HFX calculated with COS-X)).... on


General Settings:
 Integral files         IntName         .... optpbed3-b2plyp-test-36
 Hartree-Fock type      HFTyp           .... RHF
 Total Charge           Charge          ....    0
 Multiplicity           Mult            ....    1
 Number of Electrons    NEL             ....  108
 Basis Dimension        Dim             ....  858
 Nuclear Repulsion      ENuc            ....    964.6562151786 Eh

Convergence Acceleration:
 DIIS                   CNVDIIS         .... on
   Start iteration      DIISMaxIt       ....    12
   Startup error        DIISStart       ....  0.200000
   # of expansion vecs  DIISMaxEq       ....     5
   Bias factor          DIISBfac        ....   1.050
   Max. coefficient     DIISMaxC        ....  10.000
 Trust-Rad. Augm. Hess. CNVTRAH         .... auto
   Auto Start mean grad. ratio tolernc. ....  1.125000
   Auto Start start iteration           ....    20
   Auto Start num. interpolation iter.  ....    10
   Max. Number of Micro iterations      ....    16
   Max. Number of Macro iterations      .... Maxiter - #DIIS iter
   Number of Davidson start vectors     ....     2
   Converg. threshold I  (grad. norm)   ....   1.000e-05
   Converg. threshold II (energy diff.) ....   1.000e-08
   Grad. Scal. Fac. for Micro threshold ....   0.100
   Minimum threshold for Micro iter.    ....   0.010
   NR start threshold (gradient norm)   ....   0.001
   Initial trust radius                 ....   0.400
   Minimum AH scaling param. (alpha)    ....   1.000
   Maximum AH scaling param. (alpha)    .... 1000.000
   Orbital update algorithm             .... Taylor
   White noise on init. David. guess    .... on
   Maximum white noise                  ....   0.010
   Quad. conv. algorithm                .... NR
 SOSCF                  CNVSOSCF        .... on
   Start iteration      SOSCFMaxIt      ....   150
   Startup grad/error   SOSCFStart      ....  0.003300
 Level Shifting         CNVShift        .... on
   Level shift para.    LevelShift      ....    0.2500
   Turn off err/grad.   ShiftErr        ....    0.0010
 Zerner damping         CNVZerner       .... off
 Static damping         CNVDamp         .... on
   Fraction old density DampFac         ....    0.7000
   Max. Damping (<1)    DampMax         ....    0.9800
   Min. Damping (>=0)   DampMin         ....    0.0000
   Turn off err/grad.   DampErr         ....    0.1000
 Fernandez-Rico         CNVRico         .... off

SCF Procedure:
 Maximum # iterations   MaxIter         ....   125
 SCF integral mode      SCFMode         .... Direct
   Integral package                     .... SHARK and LIBINT hybrid scheme
 Reset frequency        DirectResetFreq ....    20
 Integral Threshold     Thresh          ....  2.500e-11 Eh
 Primitive CutOff       TCut            ....  2.500e-12 Eh

Convergence Tolerance:
 Convergence Check Mode ConvCheckMode   .... Total+1el-Energy
 Convergence forced     ConvForced      .... 0
 Energy Change          TolE            ....  1.000e-08 Eh
 1-El. energy change                    ....  1.000e-05 Eh
 Orbital Gradient       TolG            ....  1.000e-05
 Orbital Rotation angle TolX            ....  1.000e-05
 DIIS Error             TolErr          ....  5.000e-07


Diagonalization of the overlap matrix:
Smallest eigenvalue                        ... 7.190e-07
Time for diagonalization                   ...    0.298 sec
Threshold for overlap eigenvalues          ... 1.000e-08
Number of eigenvalues below threshold      ... 0
Time for construction of square roots      ...    0.168 sec
Total time needed                          ...    0.470 sec

Time for model grid setup =    0.675 sec

------------------------------
INITIAL GUESS: MODEL POTENTIAL
------------------------------
Loading Hartree-Fock densities                     ... done
Calculating cut-offs                               ... done
Initializing the effective Hamiltonian             ... done
Setting up the integral package (SHARK)            ... done
Starting the Coulomb interaction                   ... done (   1.6 sec)
Reading the grid                                   ... done
Mapping shells                                     ... done
Starting the XC term evaluation                    ... done (   1.6 sec)
  promolecular density results
     # of electrons  =    108.001534645
     EX              =    -89.281216593
     EC              =     -3.633642583
     EX+EC           =    -92.914859176
Transforming the Hamiltonian                       ... done (   0.2 sec)
Diagonalizing the Hamiltonian                      ... done (   0.3 sec)
Back transforming the eigenvectors                 ... done (   0.1 sec)
Now organizing SCF variables                       ... done
                      ------------------
                      INITIAL GUESS DONE (   4.5 sec)
                      ------------------
-------------------
DFT GRID GENERATION
-------------------

General Integration Accuracy     IntAcc      ... 4.388
Radial Grid Type                 RadialGrid  ... OptM3 with GC (2021)
Angular Grid (max. ang.)         AngularGrid ... 4 (Lebedev-302)
Angular grid pruning method      GridPruning ... 4 (adaptive)
Weight generation scheme         WeightScheme... Becke
Basis function cutoff            BFCut       ... 1.0000e-11
Integration weight cutoff        WCut        ... 1.0000e-14
Angular grids for H and He will be reduced by one unit
Partially contracted basis set               ... off
Rotationally invariant grid construction     ... off

Total number of grid points                  ...   132160
Total number of batches                      ...     2080
Average number of points per batch           ...       63
Average number of grid points per atom       ...     4895
Time for grid setup =    2.072 sec

--------------------
COSX GRID GENERATION
--------------------

GRIDX 1
-------
General Integration Accuracy     IntAcc      ... 3.816
Radial Grid Type                 RadialGrid  ... OptM3 with GC (2021)
Angular Grid (max. ang.)         AngularGrid ... 1 (Lebedev-50)
Angular grid pruning method      GridPruning ... 4 (adaptive)
Weight generation scheme         WeightScheme... Becke
Basis function cutoff            BFCut       ... 1.0000e-11
Integration weight cutoff        WCut        ... 1.0000e-14
Angular grids for H and He will be reduced by one unit
Partially contracted basis set               ... on
Rotationally invariant grid construction     ... off

Total number of grid points                  ...    16837
Total number of batches                      ...      281
Average number of points per batch           ...       59
Average number of grid points per atom       ...      624
UseSFitting                                  ... on

GRIDX 2
-------
General Integration Accuracy     IntAcc      ... 4.020
Radial Grid Type                 RadialGrid  ... OptM3 with GC (2021)
Angular Grid (max. ang.)         AngularGrid ... 2 (Lebedev-110)
Angular grid pruning method      GridPruning ... 4 (adaptive)
Weight generation scheme         WeightScheme... Becke
Basis function cutoff            BFCut       ... 1.0000e-11
Integration weight cutoff        WCut        ... 1.0000e-14
Angular grids for H and He will be reduced by one unit
Partially contracted basis set               ... on
Rotationally invariant grid construction     ... off

Total number of grid points                  ...    39737
Total number of batches                      ...      635
Average number of points per batch           ...       62
Average number of grid points per atom       ...     1472
UseSFitting                                  ... on

GRIDX 3
-------
General Integration Accuracy     IntAcc      ... 4.338
Radial Grid Type                 RadialGrid  ... OptM3 with GC (2021)
Angular Grid (max. ang.)         AngularGrid ... 3 (Lebedev-194)
Angular grid pruning method      GridPruning ... 4 (adaptive)
Weight generation scheme         WeightScheme... Becke
Basis function cutoff            BFCut       ... 1.0000e-11
Integration weight cutoff        WCut        ... 1.0000e-14
Angular grids for H and He will be reduced by one unit
Partially contracted basis set               ... on
Rotationally invariant grid construction     ... off

Total number of grid points                  ...    85750
Total number of batches                      ...     1356
Average number of points per batch           ...       63
Average number of grid points per atom       ...     3176
UseSFitting                                  ... on

Time for X-Grid setup             =    5.851 sec


--------------------
CPCM SOLVATION MODEL
--------------------
CPCM parameters:
  Epsilon                                         ...      35.6880
  Refrac                                          ...       1.3442
  Rsolv                                           ...       1.3000
  Surface type                                    ... GAUSSIAN VDW
  Epsilon function type                           ...         CPCM
Solvent:                                     ... ACETONITRILE
SMD-CDS solvent descriptors:
  Soln                                       ...    1.3442
  Soln25                                     ...    1.3416
  Sola                                       ...    0.0700
  Solb                                       ...    0.3200
  Solg                                       ...   41.2500
  Solc                                       ...    0.0000
  Solh                                       ...    0.0000
Radii:
 Radius for C  used is    3.4960 Bohr (=   1.8500 Ang.)
 Radius for O  used is    4.0969 Bohr (=   2.1680 Ang.)
 Radius for N  used is    3.5716 Bohr (=   1.8900 Ang.)
 Radius for H  used is    2.2677 Bohr (=   1.2000 Ang.)
Calculating surface                               ...        done! (  0.0s)
GEPOL surface points                              ...         1539
GEPOL Volume                                      ...    1574.4750
GEPOL Surface-area                                ...     888.3575
Calculating surface distance matrix               ...        done! (  0.0s)
Performing Cholesky decomposition & store         ...        done! (  0.2s)
Overall time for CPCM initialization              ...                 0.2s
 re-compute Schwartz prescreening matrix in partically contracted basis (1) ...done (   0.208 sec)
--------------
SCF ITERATIONS
--------------
ITER       Energy         Delta-E        Max-DP      RMS-DP      [F,P]     Damp
               ***  Starting incremental Fock matrix formation  ***
  0   -685.4511138714   0.000000000000 0.08148101  0.00088651  0.3015310 0.7000
  1   -685.6134561889  -0.162342317450 0.07554011  0.00068160  0.1225927 0.7000
                               ***Turning on DIIS***
  2   -685.6829287455  -0.069472556587 0.11027617  0.00136315  0.0408165 0.0000
  3   -685.7892534796  -0.106324734178 0.07306437  0.00041722  0.0621495 0.0000
  4   -685.8121562822  -0.022902802525 0.01998533  0.00013776  0.0142750 0.0000
  5   -685.8132388917  -0.001082609491 0.00760517  0.00005107  0.0101793 0.0000
                      *** Initiating the SOSCF procedure ***
                           *** Shutting down DIIS ***
                      *** Re-Reading the Fockian *** 
                      *** Removing any level shift *** 
ITER      Energy       Delta-E        Grad      Rot      Max-DP    RMS-DP
  6   -685.81338300  -0.0001441051  0.000243  0.000243  0.004179  0.000025
               *** Restarting incremental Fock matrix formation ***
  7   -685.81339973  -0.0000167364  0.000126  0.000608  0.007921  0.000113
  8   -685.81340035  -0.0000006144  0.000151  0.000310  0.002177  0.000031
  9   -685.81340180  -0.0000014565  0.000026  0.000064  0.002697  0.000034
 10   -685.81340183  -0.0000000281  0.000021  0.000055  0.002287  0.000009
 11   -685.81340194  -0.0000001053  0.000009  0.000030  0.004136  0.000019
 12   -685.81340195  -0.0000000156  0.000007  0.000012  0.001567  0.000011
                  ***Gradient check signals convergence***
              ***Rediagonalizing the Fockian in SOSCF/NRSCF***

               *****************************************************
               *                     SUCCESS                       *
               *           SCF CONVERGED AFTER  13 CYCLES          *
               *****************************************************

Old exchange energy                            =    -22.762922939 Eh
New exchange energy                            =    -22.762880866 Eh
Exchange energy change after final integration =      0.000042073 Eh
Total energy after final integration           =   -685.813359860 Eh
Final COS-X integration done in                =    81.882 sec

SMD CDS free energy correction energy :                -0.97220     Kcal/mol
Total Energy after SMD CDS correction =              -685.814909156 Eh

----------------
TOTAL SCF ENERGY
----------------

Total Energy       :         -685.81490916 Eh          -18661.97243 eV

Components:
Nuclear Repulsion  :          964.65621518 Eh           26249.63012 eV
Electronic Energy  :        -1650.47112433 Eh          -44911.60255 eV
One Electron Energy:        -2846.25907887 Eh          -77450.64705 eV
Two Electron Energy:         1195.78795453 Eh           32539.04450 eV
Max COSX asymmetry :            0.00004111 Eh               0.00112 eV
CPCM Dielectric    :           -0.02324973 Eh              -0.63266 eV
SMD CDS (Gcds)     :           -0.00154930 Eh              -0.04216 eV

Virial components:
Potential Energy   :        -1367.71622372 Eh          -37217.45055 eV
Kinetic Energy     :          681.90131457 Eh           18555.47811 eV
Virial Ratio       :            2.00573924


DFT components:
N(Alpha)           :       53.999990341702 electrons
N(Beta)            :       53.999990341702 electrons
N(Total)           :      107.999980683405 electrons
E(X)               :      -68.137760377463 Eh       
E(C)               :       -3.642468428381 Eh       
E(XC)              :      -71.780228805844 Eh       
DFET-embed. en.    :        0.000000000000 Eh       
CPCM Solvation Model Properties:
Surface-charge          :           -0.04106541
Charge-correction       :            0.00032426 Eh               0.00882 eV
Free-energy (cav+disp)  :           -0.00154930 Eh              -0.04216 eV

---------------
SCF CONVERGENCE
---------------

  Last Energy change         ...    2.0471e-08  Tolerance :   1.0000e-08
  Last MAX-Density change    ...    3.9968e-15  Tolerance :   1.0000e-07
  Last RMS-Density change    ...    1.4253e-17  Tolerance :   5.0000e-09
  Last Orbital Gradient      ...    1.3196e-06  Tolerance :   1.0000e-05
  Last Orbital Rotation      ...    4.3203e-06  Tolerance :   1.0000e-05

             **** THE GBW FILE WAS UPDATED (optpbed3-b2plyp-test-36.gbw) ****
             **** DENSITY optpbed3-b2plyp-test-36.scfp WAS UPDATED ****
             **** ENERGY FILE WAS UPDATED (optpbed3-b2plyp-test-36.en.tmp) ****
             **** THE GBW FILE WAS UPDATED (optpbed3-b2plyp-test-36.gbw) ****
             **** DENSITY optpbed3-b2plyp-test-36.scfp WAS UPDATED ****
----------------
ORBITAL ENERGIES
----------------

  NO   OCC          E(Eh)            E(eV) 
   0   2.0000     -19.280529      -524.6499 
   1   2.0000     -19.178014      -521.8603 
   2   2.0000     -14.431564      -392.7028 
   3   2.0000     -14.406823      -392.0296 
   4   2.0000     -10.323880      -280.9271 
   5   2.0000     -10.283497      -279.8282 
   6   2.0000     -10.278675      -279.6970 
   7   2.0000     -10.238066      -278.5919 
   8   2.0000     -10.238026      -278.5909 
   9   2.0000     -10.236926      -278.5609 
  10   2.0000     -10.231682      -278.4182 
  11   2.0000     -10.229338      -278.3544 
  12   2.0000     -10.227822      -278.3132 
  13   2.0000     -10.220538      -278.1150 
  14   2.0000     -10.209203      -277.8065 
  15   2.0000      -1.151367       -31.3303 
  16   2.0000      -1.082336       -29.4519 
  17   2.0000      -0.999707       -27.2034 
  18   2.0000      -0.892779       -24.2937 
  19   2.0000      -0.858646       -23.3650 
  20   2.0000      -0.823847       -22.4180 
  21   2.0000      -0.787709       -21.4347 
  22   2.0000      -0.775404       -21.0998 
  23   2.0000      -0.738819       -20.1043 
  24   2.0000      -0.704772       -19.1778 
  25   2.0000      -0.649916       -17.6851 
  26   2.0000      -0.623606       -16.9692 
  27   2.0000      -0.604303       -16.4439 
  28   2.0000      -0.587986       -15.9999 
  29   2.0000      -0.545242       -14.8368 
  30   2.0000      -0.534543       -14.5456 
  31   2.0000      -0.517109       -14.0712 
  32   2.0000      -0.506674       -13.7873 
  33   2.0000      -0.492451       -13.4003 
  34   2.0000      -0.484879       -13.1942 
  35   2.0000      -0.470671       -12.8076 
  36   2.0000      -0.459067       -12.4918 
  37   2.0000      -0.451885       -12.2964 
  38   2.0000      -0.435914       -11.8618 
  39   2.0000      -0.430301       -11.7091 
  40   2.0000      -0.428572       -11.6620 
  41   2.0000      -0.412680       -11.2296 
  42   2.0000      -0.395769       -10.7694 
  43   2.0000      -0.387270       -10.5381 
  44   2.0000      -0.383512       -10.4359 
  45   2.0000      -0.368442       -10.0258 
  46   2.0000      -0.362346        -9.8599 
  47   2.0000      -0.343361        -9.3433 
  48   2.0000      -0.323511        -8.8032 
  49   2.0000      -0.303823        -8.2674 
  50   2.0000      -0.277654        -7.5554 
  51   2.0000      -0.256311        -6.9746 
  52   2.0000      -0.253517        -6.8986 
  53   2.0000      -0.229319        -6.2401 
  54   0.0000      -0.022755        -0.6192 
  55   0.0000       0.002249         0.0612 
  56   0.0000       0.004762         0.1296 
  57   0.0000       0.013278         0.3613 
  58   0.0000       0.016614         0.4521 
  59   0.0000       0.024384         0.6635 
  60   0.0000       0.025219         0.6862 
  61   0.0000       0.034009         0.9254 
  62   0.0000       0.037243         1.0134 
  63   0.0000       0.040118         1.0917 
  64   0.0000       0.042478         1.1559 
  65   0.0000       0.047170         1.2836 
  66   0.0000       0.057181         1.5560 
  67   0.0000       0.058901         1.6028 
  68   0.0000       0.060152         1.6368 
  69   0.0000       0.066465         1.8086 
  70   0.0000       0.067743         1.8434 
  71   0.0000       0.071518         1.9461 
  72   0.0000       0.081468         2.2168 
  73   0.0000       0.086294         2.3482 
  74   0.0000       0.089537         2.4364 
  75   0.0000       0.092326         2.5123 
  76   0.0000       0.096144         2.6162 
  77   0.0000       0.097842         2.6624 
  78   0.0000       0.108746         2.9591 
  79   0.0000       0.113015         3.0753 
  80   0.0000       0.117397         3.1945 
  81   0.0000       0.121309         3.3010 
  82   0.0000       0.122196         3.3251 
  83   0.0000       0.125504         3.4151 
  84   0.0000       0.129722         3.5299 
  85   0.0000       0.132946         3.6176 
  86   0.0000       0.134302         3.6545 
  87   0.0000       0.137799         3.7497 
  88   0.0000       0.139923         3.8075 
  89   0.0000       0.144197         3.9238 
  90   0.0000       0.145170         3.9503 
  91   0.0000       0.147385         4.0106 
  92   0.0000       0.153335         4.1725 
  93   0.0000       0.155754         4.2383 
  94   0.0000       0.158634         4.3166 
  95   0.0000       0.159066         4.3284 
  96   0.0000       0.161134         4.3847 
  97   0.0000       0.167979         4.5709 
  98   0.0000       0.170197         4.6313 
  99   0.0000       0.172903         4.7049 
 100   0.0000       0.174684         4.7534 
 101   0.0000       0.182792         4.9740 
 102   0.0000       0.186198         5.0667 
 103   0.0000       0.190308         5.1786 
 104   0.0000       0.191435         5.2092 
 105   0.0000       0.194948         5.3048 
 106   0.0000       0.196954         5.3594 
 107   0.0000       0.198996         5.4149 
 108   0.0000       0.204700         5.5702 
 109   0.0000       0.205579         5.5941 
 110   0.0000       0.207298         5.6409 
 111   0.0000       0.209882         5.7112 
 112   0.0000       0.212968         5.7952 
 113   0.0000       0.216269         5.8850 
 114   0.0000       0.223559         6.0833 
 115   0.0000       0.225537         6.1372 
 116   0.0000       0.227982         6.2037 
 117   0.0000       0.237507         6.4629 
 118   0.0000       0.238305         6.4846 
 119   0.0000       0.240605         6.5472 
 120   0.0000       0.245102         6.6696 
 121   0.0000       0.248932         6.7738 
 122   0.0000       0.250392         6.8135 
 123   0.0000       0.254340         6.9209 
 124   0.0000       0.258006         7.0207 
 125   0.0000       0.260800         7.0967 
 126   0.0000       0.264294         7.1918 
 127   0.0000       0.266542         7.2530 
 128   0.0000       0.278060         7.5664 
 129   0.0000       0.280937         7.6447 
 130   0.0000       0.284115         7.7312 
 131   0.0000       0.286178         7.7873 
 132   0.0000       0.290457         7.9037 
 133   0.0000       0.295243         8.0340 
 134   0.0000       0.299803         8.1581 
 135   0.0000       0.304847         8.2953 
 136   0.0000       0.308062         8.3828 
 137   0.0000       0.311979         8.4894 
 138   0.0000       0.320986         8.7345 
 139   0.0000       0.324572         8.8321 
 140   0.0000       0.325608         8.8602 
 141   0.0000       0.329761         8.9733 
 142   0.0000       0.334421         9.1000 
 143   0.0000       0.338057         9.1990 
 144   0.0000       0.340425         9.2634 
 145   0.0000       0.348125         9.4730 
 146   0.0000       0.352505         9.5922 
 147   0.0000       0.356799         9.7090 
 148   0.0000       0.360959         9.8222 
 149   0.0000       0.363930         9.9030 
 150   0.0000       0.369966        10.0673 
 151   0.0000       0.372654        10.1404 
 152   0.0000       0.379437        10.3250 
 153   0.0000       0.382608        10.4113 
 154   0.0000       0.384742        10.4694 
 155   0.0000       0.395114        10.7516 
 156   0.0000       0.397668        10.8211 
 157   0.0000       0.402306        10.9473 
 158   0.0000       0.403565        10.9816 
 159   0.0000       0.408210        11.1079 
 160   0.0000       0.413224        11.2444 
 161   0.0000       0.414138        11.2693 
 162   0.0000       0.416389        11.3305 
 163   0.0000       0.421669        11.4742 
 164   0.0000       0.422123        11.4865 
 165   0.0000       0.427642        11.6367 
 166   0.0000       0.431367        11.7381 
 167   0.0000       0.438268        11.9259 
 168   0.0000       0.440835        11.9957 
 169   0.0000       0.444804        12.1037 
 170   0.0000       0.453912        12.3516 
 171   0.0000       0.454572        12.3695 
 172   0.0000       0.463789        12.6203 
 173   0.0000       0.464875        12.6499 
 174   0.0000       0.467096        12.7103 
 175   0.0000       0.471866        12.8401 
 176   0.0000       0.473960        12.8971 
 177   0.0000       0.480180        13.0664 
 178   0.0000       0.482038        13.1169 
 179   0.0000       0.486062        13.2264 
 180   0.0000       0.490878        13.3575 
 181   0.0000       0.496491        13.5102 
 182   0.0000       0.502388        13.6707 
 183   0.0000       0.505420        13.7532 
 184   0.0000       0.508841        13.8463 
 185   0.0000       0.513561        13.9747 
 186   0.0000       0.518536        14.1101 
 187   0.0000       0.524065        14.2605 
 188   0.0000       0.525105        14.2888 
 189   0.0000       0.531123        14.4526 
 190   0.0000       0.532928        14.5017 
 191   0.0000       0.537515        14.6265 
 192   0.0000       0.542027        14.7493 
 193   0.0000       0.547885        14.9087 
 194   0.0000       0.548160        14.9162 
 195   0.0000       0.558378        15.1943 
 196   0.0000       0.561452        15.2779 
 197   0.0000       0.563283        15.3277 
 198   0.0000       0.574140        15.6231 
 199   0.0000       0.578881        15.7522 
 200   0.0000       0.583153        15.8684 
 201   0.0000       0.594141        16.1674 
 202   0.0000       0.605887        16.4870 
 203   0.0000       0.611700        16.6452 
 204   0.0000       0.614318        16.7164 
 205   0.0000       0.619291        16.8518 
 206   0.0000       0.622604        16.9419 
 207   0.0000       0.626465        17.0470 
 208   0.0000       0.632058        17.1992 
 209   0.0000       0.640439        17.4272 
 210   0.0000       0.645891        17.5756 
 211   0.0000       0.650479        17.7004 
 212   0.0000       0.654695        17.8152 
 213   0.0000       0.657808        17.8999 
 214   0.0000       0.661305        17.9950 
 215   0.0000       0.671895        18.2832 
 216   0.0000       0.679742        18.4967 
 217   0.0000       0.684422        18.6241 
 218   0.0000       0.689201        18.7541 
 219   0.0000       0.697182        18.9713 
 220   0.0000       0.699773        19.0418 
 221   0.0000       0.709346        19.3023 
 222   0.0000       0.710923        19.3452 
 223   0.0000       0.711643        19.3648 
 224   0.0000       0.722487        19.6599 
 225   0.0000       0.723205        19.6794 
 226   0.0000       0.730240        19.8708 
 227   0.0000       0.732106        19.9216 
 228   0.0000       0.733574        19.9616 
 229   0.0000       0.745159        20.2768 
 230   0.0000       0.748215        20.3600 
 231   0.0000       0.749298        20.3894 
 232   0.0000       0.751432        20.4475 
 233   0.0000       0.754038        20.5184 
 234   0.0000       0.760899        20.7051 
 235   0.0000       0.763123        20.7656 
 236   0.0000       0.770669        20.9710 
 237   0.0000       0.773569        21.0499 
 238   0.0000       0.779968        21.2240 
 239   0.0000       0.785169        21.3655 
 240   0.0000       0.788298        21.4507 
[...]
   Time for XC-Integration:      14.845
   Time for LR-CPCM terms:        7.268
   Time for Sigma-Completion:     0.121
   Time for building 10 sigma-vectors
   Data Preparation Phase         ...     0.01 sec
   Transformed RI Coulomb         ...     0.55 sec
   Transformed RI-exchange        ...   240.58 sec
   (ab|v) reading and digestion   ...   231.42 sec
   Final sigma-completion         ...     0.00 sec
   Done building sigma-vectors             Size of expansion space: 40
   Lowest Energy          :     0.191771837430
   Maximum Energy change  :     0.000054958636 (vector 8)
   Maximum residual norm  :     0.000007921607

                       ****Iteration    8****
              <<< Entering MO-section for Build Sigma(Double) >>>
   Forming the XC and CPCM contribution:
   Time for densities:            0.202
   Time for XC-Integration:      19.064
   Time for LR-CPCM terms:        7.848
   Time for Sigma-Completion:     0.153
   Time for building 10 sigma-vectors
   Data Preparation Phase         ...     0.01 sec
   Transformed RI Coulomb         ...     0.38 sec
   Transformed RI-exchange        ...   223.23 sec
   (ab|v) reading and digestion   ...   214.77 sec
   Final sigma-completion         ...     0.01 sec
   Done building sigma-vectors             Size of expansion space: 50
   Lowest Energy          :     0.191771836310
   Maximum Energy change  :     0.000016827615 (vector 8)
   Maximum residual norm  :     0.000001999264

                       ****Iteration    9****
              <<< Entering MO-section for Build Sigma(Double) >>>
   Forming the XC and CPCM contribution:
   Time for densities:            0.187
   Time for XC-Integration:      16.579
   Time for LR-CPCM terms:        7.450
   Time for Sigma-Completion:     0.174
   Time for building 10 sigma-vectors
   Data Preparation Phase         ...     0.01 sec
   Transformed RI Coulomb         ...     0.55 sec
   Transformed RI-exchange        ...   245.78 sec
   (ab|v) reading and digestion   ...   236.46 sec
   Final sigma-completion         ...     0.00 sec
   Done building sigma-vectors             Size of expansion space: 60
   Lowest Energy          :     0.191771836214
   Maximum Energy change  :     0.000005234943 (vector 9)
   Maximum residual norm  :     0.000000787496

      *** CONVERGENCE OF RESIDUAL NORM REACHED ***

Storing the converged CI vectors               ... optpbed3-b2plyp-test-36_job2.cis1

                 *** DAVIDSON DONE ***

Total time for solving the CIS problem:  2719.612sec

------------------
DOUBLES CORRECTION (Double precision version)
------------------

The (D) correction will be scaled by  0.2700
Doing v(i,a)*T(i,a) terms (RI)                    ... ok
Doing u(i,j,a,b) terms for state   0              ... ok
Doing u(i,j,a,b) terms for state   1              ... ok
Doing u(i,j,a,b) terms for state   2              ... ok
Doing u(i,j,a,b) terms for state   3              ... ok
Doing u(i,j,a,b) terms for state   4              ... ok
Doing u(i,j,a,b) terms for state   5              ... ok
Doing u(i,j,a,b) terms for state   6              ... ok
Doing u(i,j,a,b) terms for state   7              ... ok
Doing u(i,j,a,b) terms for state   8              ... ok
Doing u(i,j,a,b) terms for state   9              ... ok

Contributions to the (D) correction(s) (in eV)

STATE  Final   Init.   Total   v(ext)   v(int)  v(3)    u
       omega   omega     (D)                             
-----------------------------------------------------------------------------
   0   4.916   5.218  -0.303   0.485   0.953  -0.053  -1.688
   1   5.210   5.445  -0.235   0.509   0.941  -0.051  -1.635
   2   5.449   5.592  -0.143   0.043   0.957  -0.002  -1.140
   3   5.874   6.061  -0.187   0.055   0.944  -0.003  -1.184
   4   5.922   6.157  -0.235   0.038   0.952  -0.001  -1.225
   5   5.986   6.238  -0.252   0.072   0.921  -0.004  -1.241
   6   5.876   6.277  -0.401   0.374   0.891  -0.043  -1.623
   7   6.081   6.332  -0.251   0.180   0.935  -0.021  -1.346
   8   5.997   6.365  -0.368   0.374   0.896  -0.051  -1.587
   9   6.270   6.485  -0.215   0.117   0.929  -0.008  -1.253

(D)-timings
 V(i,a)*T(i,a) terms           ...   314.530 sec
 U(i,j,a,b) 3-internal         ...     4.730 sec
 U(i,j,a,b) 3-external         ...   193.811 sec
 U(i,j,a,b) pair terms         ...   144.795 sec
 Total measured time           ...  1330.050 sec

 Time for (ab|v) I/O           ...    55.931 sec


------------------------------------
TD-DFT/TDA EXCITED STATES (SINGLETS)
------------------------------------

the weight of the individual excitations are printed if larger than 1.0e-02

STATE  1:  E=   0.180645 au      4.916 eV    39647.0 cm**-1 <S**2> =   0.000000
    52a ->  54a  :     0.074527 (c= -0.27299580)
    52a ->  55a  :     0.041638 (c= -0.20405378)
    52a ->  58a  :     0.017058 (c=  0.13060674)
    52a ->  60a  :     0.046981 (c=  0.21675082)
    52a ->  63a  :     0.013335 (c= -0.11547554)
    53a ->  54a  :     0.336545 (c=  0.58012483)
    53a ->  55a  :     0.214719 (c=  0.46337773)
    53a ->  56a  :     0.012018 (c=  0.10962458)
    53a ->  58a  :     0.032706 (c= -0.18084853)
    53a ->  59a  :     0.012587 (c= -0.11219052)
    53a ->  60a  :     0.111398 (c=  0.33376386)

STATE  2:  E=   0.191481 au      5.210 eV    42025.2 cm**-1 <S**2> =   0.000000
    52a ->  54a  :     0.170241 (c= -0.41260291)
    52a ->  55a  :     0.106927 (c= -0.32699705)
    52a ->  58a  :     0.029652 (c=  0.17219842)
    52a ->  60a  :     0.024058 (c= -0.15510617)
    53a ->  54a  :     0.205588 (c= -0.45341846)
    53a ->  55a  :     0.052182 (c= -0.22843391)
    53a ->  59a  :     0.014803 (c= -0.12166733)
    53a ->  60a  :     0.262176 (c=  0.51203097)
    53a ->  63a  :     0.040282 (c= -0.20070424)

STATE  3:  E=   0.200253 au      5.449 eV    43950.5 cm**-1 <S**2> =   0.000000
    53a ->  54a  :     0.199264 (c=  0.44638954)
    53a ->  55a  :     0.549573 (c= -0.74133195)
    53a ->  56a  :     0.025332 (c=  0.15916109)
    53a ->  57a  :     0.046089 (c= -0.21468371)
    53a ->  59a  :     0.063767 (c=  0.25252214)
    53a ->  62a  :     0.032788 (c= -0.18107478)

STATE  4:  E=   0.215852 au      5.874 eV    47374.0 cm**-1 <S**2> =   0.000000
    51a ->  55a  :     0.010914 (c=  0.10447156)
    52a ->  54a  :     0.012386 (c= -0.11129179)
    52a ->  55a  :     0.011302 (c=  0.10631220)
    53a ->  56a  :     0.479242 (c=  0.69227317)
    53a ->  57a  :     0.331826 (c=  0.57604302)
    53a ->  59a  :     0.019326 (c=  0.13901818)
    53a ->  61a  :     0.018336 (c= -0.13540869)
    53a ->  69a  :     0.016681 (c=  0.12915502)

STATE  5:  E=   0.217634 au      5.922 eV    47765.2 cm**-1 <S**2> =   0.000000
    53a ->  54a  :     0.052183 (c=  0.22843658)
    53a ->  55a  :     0.024282 (c= -0.15582542)
    53a ->  56a  :     0.237698 (c= -0.48754249)
    53a ->  57a  :     0.510456 (c=  0.71446193)
    53a ->  58a  :     0.097672 (c= -0.31252561)
    53a ->  66a  :     0.016631 (c=  0.12896021)

STATE  6:  E=   0.219972 au      5.986 eV    48278.3 cm**-1 <S**2> =   0.000000
    52a ->  54a  :     0.154994 (c=  0.39369274)
    52a ->  55a  :     0.482514 (c= -0.69463196)
    52a ->  56a  :     0.070251 (c=  0.26504825)
    52a ->  58a  :     0.010977 (c= -0.10477049)
    52a ->  59a  :     0.109269 (c=  0.33055883)
    52a ->  62a  :     0.019996 (c= -0.14140828)
    53a ->  59a  :     0.010391 (c=  0.10193520)

STATE  7:  E=   0.215928 au      5.876 eV    47390.7 cm**-1 <S**2> =   0.000000
    49a ->  69a  :     0.015723 (c=  0.12538958)
    49a ->  70a  :     0.040090 (c= -0.20022508)
    51a ->  65a  :     0.013234 (c= -0.11504093)
    51a ->  69a  :     0.028479 (c=  0.16875805)
    51a ->  70a  :     0.060425 (c= -0.24581449)
    52a ->  54a  :     0.189599 (c= -0.43543011)
    53a ->  56a  :     0.053254 (c= -0.23076744)
    53a ->  59a  :     0.092195 (c=  0.30363583)
    53a ->  60a  :     0.089751 (c= -0.29958408)
    53a ->  62a  :     0.027824 (c= -0.16680612)
    53a ->  63a  :     0.092920 (c=  0.30482844)
    53a ->  65a  :     0.026376 (c= -0.16240789)
    53a ->  70a  :     0.019485 (c= -0.13958989)
    53a ->  71a  :     0.016180 (c=  0.12719901)

STATE  8:  E=   0.223483 au      6.081 eV    49048.9 cm**-1 <S**2> =   0.000000
    51a ->  70a  :     0.019320 (c= -0.13899810)
    52a ->  54a  :     0.046249 (c=  0.21505494)
    52a ->  55a  :     0.027294 (c=  0.16520900)
    52a ->  60a  :     0.033832 (c=  0.18393344)
    53a ->  54a  :     0.084066 (c= -0.28994198)
    53a ->  58a  :     0.406547 (c= -0.63761031)
    53a ->  60a  :     0.061776 (c=  0.24854716)
    53a ->  61a  :     0.039386 (c= -0.19846015)
    53a ->  62a  :     0.018946 (c= -0.13764619)
    53a ->  64a  :     0.077777 (c=  0.27888445)
    53a ->  67a  :     0.015508 (c= -0.12453122)

STATE  9:  E=   0.220383 au      5.997 eV    48368.5 cm**-1 <S**2> =   0.000000
    49a ->  69a  :     0.016058 (c=  0.12672105)
    49a ->  70a  :     0.039039 (c= -0.19758207)
    51a ->  69a  :     0.022688 (c=  0.15062469)
    51a ->  70a  :     0.057009 (c= -0.23876516)
    52a ->  54a  :     0.079517 (c=  0.28198759)
    52a ->  55a  :     0.100806 (c=  0.31750038)
    52a ->  60a  :     0.029086 (c= -0.17054745)
    53a ->  54a  :     0.027621 (c=  0.16619598)
    53a ->  56a  :     0.025852 (c= -0.16078642)
    53a ->  58a  :     0.100120 (c=  0.31641682)
    53a ->  60a  :     0.128065 (c=  0.35786188)
    53a ->  63a  :     0.096634 (c= -0.31086056)
    53a ->  64a  :     0.016219 (c= -0.12735410)
    53a ->  65a  :     0.019962 (c= -0.14128527)
    53a ->  70a  :     0.034346 (c= -0.18532555)

STATE 10:  E=   0.230420 au      6.270 eV    50571.4 cm**-1 <S**2> =   0.000000
    49a ->  70a  :     0.022992 (c=  0.15163217)
    51a ->  69a  :     0.014440 (c= -0.12016847)
    51a ->  70a  :     0.027488 (c=  0.16579498)
    53a ->  54a  :     0.013638 (c= -0.11678176)
    53a ->  55a  :     0.069469 (c=  0.26356946)
    53a ->  56a  :     0.021893 (c= -0.14796211)
    53a ->  59a  :     0.435124 (c=  0.65963965)
    53a ->  60a  :     0.031267 (c=  0.17682561)
    53a ->  61a  :     0.011738 (c= -0.10834294)
    53a ->  62a  :     0.122980 (c= -0.35068534)
    53a ->  63a  :     0.031398 (c= -0.17719441)
    53a ->  66a  :     0.016669 (c= -0.12910744)
    53a ->  67a  :     0.011380 (c=  0.10667514)
    53a ->  69a  :     0.022681 (c= -0.15060059)


-----------------------------
TD-DFT/TDA-EXCITATION SPECTRA
-----------------------------

Center of mass = (  0.4563, -0.2280,  0.6066)
Calculating the Dipole integrals                  ... done
Transforming integrals                            ... done
Calculating the Linear Momentum integrals         ... done
Transforming integrals                            ... done
Calculating angular momentum integrals            ... done
Transforming integrals                            ... done

-----------------------------------------------------------------------------
         ABSORPTION SPECTRUM VIA TRANSITION ELECTRIC DIPOLE MOMENTS
-----------------------------------------------------------------------------
State   Energy    Wavelength  fosc         T2        TX        TY        TZ  
        (cm-1)      (nm)                 (au**2)    (au)      (au)      (au) 
-----------------------------------------------------------------------------
   1   39647.0    252.2   0.196514437   1.63177  -0.59453   0.00679  -1.13060
   2   42025.2    238.0   0.142744411   1.11821   0.35725   0.12534   0.98736
   3   43950.5    227.5   0.005984486   0.04483  -0.14753  -0.06877   0.13540
   4   47374.0    211.1   0.001934389   0.01344   0.09748   0.06202  -0.00965
   5   47765.2    209.4   0.009940942   0.06852   0.10976   0.22190  -0.08503
   6   48278.3    207.1   0.005674941   0.03870  -0.08826   0.14741  -0.09580
   7   47390.7    211.0   0.194194979   1.34903  -0.94178   0.66605  -0.13586
   8   49048.9    203.9   0.065166338   0.43739   0.55117  -0.31013   0.19343
   9   48368.5    206.7   0.306974595   2.08937   1.14357  -0.87523   0.12485
  10   50571.4    197.7   0.021007108   0.13675   0.27138  -0.24788   0.04073

-----------------------------------------------------------------------------
         ABSORPTION SPECTRUM VIA TRANSITION VELOCITY DIPOLE MOMENTS
-----------------------------------------------------------------------------
State   Energy    Wavelength   fosc        P2         PX        PY        PZ  
        (cm-1)      (nm)                 (au**2)     (au)      (au)      (au) 
-----------------------------------------------------------------------------
   1   39647.0    252.2   0.038906969   0.01054   0.07048  -0.02527   0.07025
   2   42025.2    238.0   0.027077521   0.00778  -0.05116   0.01749  -0.06967
   3   43950.5    227.5   0.001875280   0.00056   0.01666   0.00725  -0.01527
   4   47374.0    211.1   0.002153748   0.00070  -0.02248  -0.00854   0.01091
   5   47765.2    209.4   0.006887088   0.00225  -0.02014  -0.03791   0.02013
   6   48278.3    207.1   0.003872714   0.00128   0.00585  -0.02963   0.01912
   7   47390.7    211.0   0.068585124   0.02221   0.12811  -0.05700   0.05052
   8   49048.9    203.9   0.020466424   0.00686  -0.06436   0.01450  -0.05008
   9   48368.5    206.7   0.090859807   0.03004  -0.14072   0.09625  -0.03116
  10   50571.4    197.7   0.009317592   0.00322  -0.04030   0.03235  -0.02345

-------------------------------------------------------------------
                             CD SPECTRUM
-------------------------------------------------------------------
State  Energy     Wavelength     R         MX        MY        MZ   
       (cm-1)       (nm)     (1e40*cgs)   (au)      (au)      (au)  
-------------------------------------------------------------------
   1   39647.0    252.2     13.22946   0.05848  -0.03291  -0.05577
   2   42025.2    238.0      3.51173   0.03031   0.15217  -0.02274
   3   43950.5    227.5     -6.23432   0.14065  -0.10041   0.00459
   4   47374.0    211.1     -2.07729  -0.12768   0.12582  -0.02456
   5   47765.2    209.4     -1.27190   0.00965   0.01935   0.09468
   6   48278.3    207.1    -15.08230   0.13943  -0.05192   0.12560
   7   47390.7    211.0    119.87836  -0.10662   0.23165   0.00310
   8   49048.9    203.9    -14.35522  -0.07895   0.06857   0.17747
   9   48368.5    206.7    -214.80676  -0.26407   0.20379   0.19792
  10   50571.4    197.7     29.80234   0.12534  -0.11629   0.00915

-------------------------------------------------------------------
         CD SPECTRUM VIA TRANSITION VELOCITY DIPOLE MOMENTS        
-------------------------------------------------------------------
State  Energy     Wavelength     R         MX        MY        MZ   
       (cm-1)       (nm)     (1e40*cgs)   (au)      (au)      (au)  
-------------------------------------------------------------------
   1   39647.0    252.2      2.70296   0.05848  -0.03291  -0.05577
   2   42025.2    238.0      6.63449   0.03031   0.15217  -0.02274
   3   43950.5    227.5      3.63811   0.14065  -0.10041   0.00459
   4   47374.0    211.1      3.33715  -0.12768   0.12582  -0.02456
   5   47765.2    209.4      2.11832   0.00965   0.01935   0.09468
   6   48278.3    207.1     10.19046   0.13943  -0.05192   0.12560
   7   47390.7    211.0    -58.31029  -0.10662   0.23165   0.00310
   8   49048.9    203.9     -5.93451  -0.07895   0.06857   0.17747
   9   48368.5    206.7    108.25911  -0.26407   0.20379   0.19792
  10   50571.4    197.7    -18.47095   0.12534  -0.11629   0.00915

Total run time:     4055.736 sec

           *** ORCA-CIS/TD-DFT FINISHED WITHOUT ERROR ***

Maximum memory used throughout the entire CIS-calculation: 705.6 MB

-----------------------
CIS/TD-DFT TOTAL ENERGY
-----------------------

    E(SCF)  =   -685.188632999 Eh
    DE(CIS) =      0.180644917 Eh (Root  1)
    ----------------------------- ---------
    E(tot)  =   -685.007988081 Eh



-------------------------------------------------------------------------------
                          DFT DISPERSION CORRECTION                            
                                                                               
                              DFTD3 V3.1  Rev 1                                
                          USING Becke-Johnson damping                          
-------------------------------------------------------------------------------
The B2PLYP functional is recognized
Active option DFTDOPT                   ...         4   

molecular C6(AA) [au] = 7825.953843 


            DFT-D V3
 parameters
 s6 scaling factor         :     0.6400 
 a1 scaling factor         :     0.3065 
 s8 scaling factor         :     0.9147 
 a2 scaling factor         :     5.0570 
 ad hoc parameters k1-k3   :    16.0000     1.3333    -4.0000 

 Edisp/kcal,au: -15.232916307280  -0.024275194737 
 E6   /kcal   :  -8.634302629 
 E8   /kcal   :  -6.598613678 
 % E8         :  43.318124678 

-------------------------   ----------------
Dispersion correction           -0.024275195
-------------------------   ----------------


-------------------------   --------------------
FINAL SINGLE POINT ENERGY      -685.032263276186
-------------------------   --------------------


                            ***************************************
                            *     ORCA property calculations      *
                            ***************************************


  WARNING: The energy has been calculated at the MP2 level but the densities
           used in the property calculations are still SCF densities
           MP2 response densities have not been calculated 
           use %mp2 Density relaxed end
           or  %mp2 Density unrelaxed end

                                    ---------------------
                                    Active property flags
                                    ---------------------
   (+) Dipole Moment


------------------------------------------------------------------------------
                       ORCA ELECTRIC PROPERTIES CALCULATION
------------------------------------------------------------------------------

Dipole Moment Calculation                       ... on
Quadrupole Moment Calculation                   ... off
Polarizability Calculation                      ... off
GBWName                                         ... optpbed3-b2plyp-test-36_job2.gbw
Electron density                                ... optpbed3-b2plyp-test-36_job2.scfp
The origin for moment calculation is the CENTER OF MASS  = ( 0.456256, -0.228009  0.606647)

-------------
DIPOLE MOMENT
-------------
                                X             Y             Z
Electronic contribution:      3.88576      -2.33160       6.09980
Nuclear contribution   :     -4.71803       3.02861      -5.75354
                        -----------------------------------------
Total Dipole Moment    :     -0.83227       0.69702       0.34627
                        -----------------------------------------
Magnitude (a.u.)       :      1.13948
Magnitude (Debye)      :      2.89632



--------------------
Rotational spectrum 
--------------------
 
Rotational constants in cm-1:     0.037388     0.011843     0.010470 
Rotational constants in MHz :  1120.853795   355.048769   313.873461 

 Dipole components along the rotational axes: 
x,y,z [a.u.] :     0.987465     0.398125    -0.405977 
x,y,z [Debye]:     2.509936     1.011952    -1.031912 

 

Timings for individual modules:

Sum of individual times         ...     5269.064 sec (=  87.818 min)
GTO integral calculation        ...        4.154 sec (=   0.069 min)   0.1 %
SCF iterations                  ...      650.080 sec (=  10.835 min)  12.3 %
MP2 module                      ...      558.527 sec (=   9.309 min)  10.6 %
CIS module                      ...     4056.303 sec (=  67.605 min)  77.0 %



                             ****ORCA TERMINATED NORMALLY****
TOTAL RUN TIME: 0 days 4 hours 35 minutes 37 seconds 139 msec
