
                                 *****************
                                 * O   R   C   A *
                                 *****************

                                            #,                                       
                                            ###                                      
                                            ####                                     
                                            #####                                    
                                            ######                                   
                                           ########,                                 
                                     ,,################,,,,,                         
                               ,,#################################,,                 
                          ,,##########################################,,             
                       ,#########################################, ''#####,          
                    ,#############################################,,   '####,        
                  ,##################################################,,,,####,       
                ,###########''''           ''''###############################       
              ,#####''   ,,,,##########,,,,          '''####'''          '####       
            ,##' ,,,,###########################,,,                        '##       
           ' ,,###''''                  '''############,,,                           
         ,,##''                                '''############,,,,        ,,,,,,###''
      ,#''                                            '''#######################'''  
     '                                                          ''''####''''         
             ,#######,   #######,   ,#######,      ##                                
            ,#'     '#,  ##    ##  ,#'     '#,    #''#        ######   ,####,        
            ##       ##  ##   ,#'  ##            #'  '#       #        #'  '#        
            ##       ##  #######   ##           ,######,      #####,   #    #        
            '#,     ,#'  ##    ##  '#,     ,#' ,#      #,         ##   #,  ,#        
             '#######'   ##     ##  '#######'  #'      '#     #####' # '####'        



                  #######################################################
                  #                        -***-                        #
                  #          Department of theory and spectroscopy      #
                  #    Directorship and core code : Frank Neese         #
                  #        Max Planck Institute fuer Kohlenforschung    #
                  #                Kaiser Wilhelm Platz 1               #
                  #                 D-45470 Muelheim/Ruhr               #
                  #                      Germany                        #
                  #                                                     #
                  #                  All rights reserved                #
                  #                        -***-                        #
                  #######################################################


                         Program Version 5.0.2 -  RELEASE  -


 With contributions from (in alphabetic order):
   Daniel Aravena         : Magnetic Suceptibility
   Michael Atanasov       : Ab Initio Ligand Field Theory (pilot matlab implementation)
   Alexander A. Auer      : GIAO ZORA, VPT2 properties, NMR spectrum
   Ute Becker             : Parallelization
   Giovanni Bistoni       : ED, misc. LED, open-shell LED, HFLD
   Martin Brehm           : Molecular dynamics
   Dmytro Bykov           : SCF Hessian
   Vijay G. Chilkuri      : MRCI spin determinant printing, contributions to CSF-ICE
   Dipayan Datta          : RHF DLPNO-CCSD density
   Achintya Kumar Dutta   : EOM-CC, STEOM-CC
   Dmitry Ganyushin       : Spin-Orbit,Spin-Spin,Magnetic field MRCI
   Miquel Garcia          : C-PCM and meta-GGA Hessian, CC/C-PCM, Gaussian charge scheme
   Yang Guo               : DLPNO-NEVPT2, F12-NEVPT2, CIM, IAO-localization
   Andreas Hansen         : Spin unrestricted coupled pair/coupled cluster methods
   Benjamin Helmich-Paris : MC-RPA, TRAH-SCF, COSX integrals
   Lee Huntington         : MR-EOM, pCC
   Robert Izsak           : Overlap fitted RIJCOSX, COSX-SCS-MP3, EOM
   Marcus Kettner         : VPT2
   Christian Kollmar      : KDIIS, OOCD, Brueckner-CCSD(T), CCSD density, CASPT2, CASPT2-K
   Simone Kossmann        : Meta GGA functionals, TD-DFT gradient, OOMP2, MP2 Hessian
   Martin Krupicka        : Initial AUTO-CI
   Lucas Lang             : DCDCAS
   Marvin Lechner         : AUTO-CI (C++ implementation), FIC-MRCC
   Dagmar Lenk            : GEPOL surface, SMD
   Dimitrios Liakos       : Extrapolation schemes; Compound Job, initial MDCI parallelization
   Dimitrios Manganas     : Further ROCIS development; embedding schemes
   Dimitrios Pantazis     : SARC Basis sets
   Anastasios Papadopoulos: AUTO-CI, single reference methods and gradients
   Taras Petrenko         : DFT Hessian,TD-DFT gradient, ASA, ECA, R-Raman, ABS, FL, XAS/XES, NRVS
   Peter Pinski           : DLPNO-MP2, DLPNO-MP2 Gradient
   Christoph Reimann      : Effective Core Potentials
   Marius Retegan         : Local ZFS, SOC
   Christoph Riplinger    : Optimizer, TS searches, QM/MM, DLPNO-CCSD(T), (RO)-DLPNO pert. Triples
   Tobias Risthaus        : Range-separated hybrids, TD-DFT gradient, RPA, STAB
   Michael Roemelt        : Original ROCIS implementation
   Masaaki Saitow         : Open-shell DLPNO-CCSD energy and density
   Barbara Sandhoefer     : DKH picture change effects
   Avijit Sen             : IP-ROCIS
   Kantharuban Sivalingam : CASSCF convergence, NEVPT2, FIC-MRCI
   Bernardo de Souza      : ESD, SOC TD-DFT
   Georgi Stoychev        : AutoAux, RI-MP2 NMR, DLPNO-MP2 response
   Willem Van den Heuvel  : Paramagnetic NMR
   Boris Wezisla          : Elementary symmetry handling
   Frank Wennmohs         : Technical directorship


 We gratefully acknowledge several colleagues who have allowed us to
 interface, adapt or use parts of their codes:
   Stefan Grimme, W. Hujo, H. Kruse, P. Pracht,  : VdW corrections, initial TS optimization,
                  C. Bannwarth, S. Ehlert          DFT functionals, gCP, sTDA/sTD-DF
   Ed Valeev, F. Pavosevic, A. Kumar             : LibInt (2-el integral package), F12 methods
   Garnet Chan, S. Sharma, J. Yang, R. Olivares  : DMRG
   Ulf Ekstrom                                   : XCFun DFT Library
   Mihaly Kallay                                 : mrcc  (arbitrary order and MRCC methods)
   Jiri Pittner, Ondrej Demel                    : Mk-CCSD
   Frank Weinhold                                : gennbo (NPA and NBO analysis)
   Christopher J. Cramer and Donald G. Truhlar   : smd solvation model
   Lars Goerigk                                  : TD-DFT with DH, B97 family of functionals
   V. Asgeirsson, H. Jonsson                     : NEB implementation
   FAccTs GmbH                                   : IRC, NEB, NEB-TS, DLPNO-Multilevel, CI-OPT
                                                   MM, QMMM, 2- and 3-layer-ONIOM, Crystal-QMMM,
                                                   LR-CPCM, SF, NACMEs, symmetry and pop. for TD-DFT,
                                                   nearIR, NL-DFT gradient (VV10), updates on ESD,
                                                   ML-optimized integration grids
   S Lehtola, MJT Oliveira, MAL Marques          : LibXC Library
   Liviu Ungur et al                             : ANISO software


 Your calculation uses the libint2 library for the computation of 2-el integrals
 For citations please refer to: http://libint.valeyev.net

 Your ORCA version has been built with support for libXC version: 5.1.0
 For citations please refer to: https://tddft.org/programs/libxc/

 This ORCA versions uses:
   CBLAS   interface :  Fast vector & matrix operations
   LAPACKE interface :  Fast linear algebra routines
   SCALAPACK package :  Parallel linear algebra routines
   Shared memory     :  Shared parallel matrices
   BLAS/LAPACK       :  OpenBLAS 0.3.15  USE64BITINT DYNAMIC_ARCH NO_AFFINITY Haswell SINGLE_THREADED
        Core in use  :  Haswell
   Copyright (c) 2011-2014, The OpenBLAS Project


Your calculation utilizes the atom-pairwise dispersion correction
with the Becke-Johnson damping scheme (D3BJ)
Cite in your paper:
S.Grimme, S.Ehrlich, L.Goerigk, J Comput Chem, (2011), 32, 1456–1465 
S.Grimme, J.Antony, S.Ehrlich and H.Krieg, J.Chem.Phys., 132, (2010), 154104 
   

Your calculation utilizes the SMD solvation module
Please cite in your paper:
A.V. Marenich, C.J. Cramer, D.G. Truhlar J. Phys. Chem. B, 113, (2009), 6378 

================================================================================

----- Orbital basis set information -----
Your calculation utilizes the basis: aug-cc-pVTZ 
    H, B-Ne : Obtained from the ccRepo (grant-hill.group.shef.ac.uk/ccrepo) Feb. 2017
              R. A. Kendall, T. H. Dunning, Jr., R. J. Harrison, J. Chem. Phys. 96, 6796 (1992)
         He : Obtained from the ccRepo (grant-hill.group.shef.ac.uk/ccrepo) Feb. 2017
              D. E. Woon, T. H. Dunning, Jr., J. Chem. Phys. 100, 2975 (1994)
  Li-Be, Na : Obtained from the ccRepo (grant-hill.group.shef.ac.uk/ccrepo) Feb. 2017
              B. P. Prascher, D. E. Woon, K. A. Peterson, T. H. Dunning, Jr., A. K. Wilson, Theor. Chem. Acc. 128, 69 (2011)
         Mg : Obtained from the Peterson Research Group Website (tyr0.chem.wsu.edu/~kipeters) Feb. 2017
              B. P. Prascher, D. E. Woon, K. A. Peterson, T. H. Dunning, Jr., A. K. Wilson, Theor. Chem. Acc. 128, 69 (2011)
      Al-Ar : Obtained from the ccRepo (grant-hill.group.shef.ac.uk/ccrepo) Feb. 2017
              D. E. Woon, T. H. Dunning, Jr., J. Chem. Phys. 98, 1358 (1993)
      Sc-Zn : Obtained from the ccRepo (grant-hill.group.shef.ac.uk/ccrepo) Feb. 2017
              N. B. Balabanov, K. A. Peterson, J. Chem. Phys. 123, 064107 (2005)
              N. B. Balabanov, K. A. Peterson, J. Chem. Phys. 125, 074110 (2006)
      Ga-Kr : Obtained from the ccRepo (grant-hill.group.shef.ac.uk/ccrepo) Feb. 2017
              A. K. Wilson, D. E. Woon, K. A. Peterson, T. H. Dunning, Jr., J. Chem. Phys. 110, 7667 (1999)
     Ag, Au : Obtained from the Peterson Research Group Website (tyr0.chem.wsu.edu/~kipeters) Feb. 2017
              K. A. Peterson, C. Puzzarini, Theor. Chem. Acc. 114, 283 (2005)

The basis set includes element-specific modifications.

Your calculation utilizes the basis: cc-pVTZ 
       H, B-Ne : Obtained from the ccRepo (grant-hill.group.shef.ac.uk/ccrepo) Feb. 2017
                 T. H. Dunning, Jr., J. Chem. Phys. 90, 1007 (1989)
            He : Obtained from the ccRepo (grant-hill.group.shef.ac.uk/ccrepo) Feb. 2017
                 D. E. Woon, T. H. Dunning, Jr., J. Chem. Phys. 100, 2975 (1994)
  Li-Be, Na-Mg : Obtained from the ccRepo (grant-hill.group.shef.ac.uk/ccrepo) Feb. 2017
                 B. P. Prascher, D. E. Woon, K. A. Peterson, T. H. Dunning, Jr., A. K. Wilson, Theor. Chem. Acc. 128, 69 (2011)
         Al-Ar : Obtained from the ccRepo (grant-hill.group.shef.ac.uk/ccrepo) Feb. 2017
                 D. E. Woon, T. H. Dunning, Jr., J. Chem. Phys. 98, 1358 (1993)
            Ca : Obtained from the Peterson Research Group Website (tyr0.chem.wsu.edu/~kipeters) Feb. 2017
                 J. Koput, K. A. Peterson, J. Phys. Chem. 106, 9595 (2002)
         Sc-Zn : Obtained from the ccRepo (grant-hill.group.shef.ac.uk/ccrepo) Feb. 2017
                 N. B. Balabanov, K. A. Peterson, J. Chem. Phys. 123, 064107 (2005)
                 N. B. Balabanov, K. A. Peterson, J. Chem. Phys. 125, 074110 (2006)
         Ga-Kr : Obtained from the ccRepo (grant-hill.group.shef.ac.uk/ccrepo) Feb. 2017
                 A. K. Wilson, D. E. Woon, K. A. Peterson, T. H. Dunning, Jr., J. Chem. Phys. 110, 7667 (1999)
             Y : Obtained from the ccRepo (grant-hill.group.shef.ac.uk/ccrepo) Feb. 2017
                 K. A. Peterson, D. Figgen, M. Dolg, H. Stoll, J. Chem. Phys. 126, 124101 (2007)
        Ag, Au : Obtained from the Peterson Research Group Website (tyr0.chem.wsu.edu/~kipeters) Feb. 2017
                 K. A. Peterson, C. Puzzarini, Theor. Chem. Acc. 114, 283 (2005)

----- AuxJ basis set information -----
Your calculation utilizes the auxiliary basis: aug-cc-pVTZ/JK 
  H, B-F, Al-Cl, Ga-Br : Obtained from the TURBOMOLE 7.0 basis set library

The basis set includes element-specific modifications.

Your calculation utilizes the auxiliary basis: cc-pVTZ/JK 
  H, B-F, Al-Cl, Ga-Br : Obtained from the TURBOMOLE 7.0 basis set library

----- AuxC basis set information -----
Your calculation utilizes the auxiliary basis: aug-cc-pVTZ/C 
  H-He, B-F, Al-Ar, Ga-Kr : Obtained from the EMSL Basis Set Exchange (bse.pnl.gov) Feb. 2017
                            F. Weigend, A. Kohn, C. Hattig, J. Chem. Phys. 116, 3175 (2002)
                   Be, Mg : Obtained from the TURBOMOLE 7.0 basis set library
                            C. Haettig, Phys. Chem. Chem. Phys. 7, 59 (2005)
                       Ne : Obtained from the EMSL Basis Set Exchange (bse.pnl.gov) Feb. 2017
                            C. Haettig, Phys. Chem. Chem. Phys. 7, 59 (2005)
                            F. Weigend, A. Kohn, C. Hattig, J. Chem. Phys. 116, 3175 (2002)
                    Sc-Zn : Obtained from the EMSL Basis Set Exchange (bse.pnl.gov) Feb. 2017
                            J. G. Hill, J. A. Platts, J. Chem. Phys. 128, 044104 (2008)

The basis set includes element-specific modifications.

Your calculation utilizes the auxiliary basis: cc-pVTZ/C 
  Obtained from the EMSL Basis Set Exchange (bse.pnl.gov) Feb. 2017
  H-He, B-F, Al-Ar, Ga-Kr : F. Weigend, A. Kohn, C. Hattig, J. Chem. Phys. 116, 3175 (2002)
             Li-Be, Na-Mg : C. Haettig, Phys. Chem. Chem. Phys. 7, 59 (2005)
                       Ne : C. Haettig, Phys. Chem. Chem. Phys. 7, 59 (2005)
                            F. Weigend, A. Kohn, C. Hattig, J. Chem. Phys. 116, 3175 (2002)
                    Sc-Zn : J. G. Hill, J. A. Platts, J. Chem. Phys. 128, 044104 (2008)

================================================================================
                                        WARNINGS
                       Please study these warnings very carefully!
================================================================================


WARNING: Geometry Optimization
  ===> : Switching off AutoStart
         For restart on a previous wavefunction, please use MOREAD

INFO   : the flag for use of the SHARK integral package has been found!



***************************************
The coordinates will be read from file: 
***************************************


Your calculation utilizes the atom-pairwise dispersion correction
with the Becke-Johnson damping scheme (D3BJ)
Cite in your paper:
S.Grimme, S.Ehrlich, L.Goerigk, J Comput Chem, (2011), 32, 1456–1465 
S.Grimme, J.Antony, S.Ehrlich and H.Krieg, J.Chem.Phys., 132, (2010), 154104 
   

Your calculation utilizes the SMD solvation module
Please cite in your paper:
A.V. Marenich, C.J. Cramer, D.G. Truhlar J. Phys. Chem. B, 113, (2009), 6378 

================================================================================

----- Orbital basis set information -----
Your calculation utilizes the basis: aug-cc-pVTZ 
    H, B-Ne : Obtained from the ccRepo (grant-hill.group.shef.ac.uk/ccrepo) Feb. 2017
              R. A. Kendall, T. H. Dunning, Jr., R. J. Harrison, J. Chem. Phys. 96, 6796 (1992)
         He : Obtained from the ccRepo (grant-hill.group.shef.ac.uk/ccrepo) Feb. 2017
              D. E. Woon, T. H. Dunning, Jr., J. Chem. Phys. 100, 2975 (1994)
  Li-Be, Na : Obtained from the ccRepo (grant-hill.group.shef.ac.uk/ccrepo) Feb. 2017
              B. P. Prascher, D. E. Woon, K. A. Peterson, T. H. Dunning, Jr., A. K. Wilson, Theor. Chem. Acc. 128, 69 (2011)
         Mg : Obtained from the Peterson Research Group Website (tyr0.chem.wsu.edu/~kipeters) Feb. 2017
              B. P. Prascher, D. E. Woon, K. A. Peterson, T. H. Dunning, Jr., A. K. Wilson, Theor. Chem. Acc. 128, 69 (2011)
      Al-Ar : Obtained from the ccRepo (grant-hill.group.shef.ac.uk/ccrepo) Feb. 2017
              D. E. Woon, T. H. Dunning, Jr., J. Chem. Phys. 98, 1358 (1993)
      Sc-Zn : Obtained from the ccRepo (grant-hill.group.shef.ac.uk/ccrepo) Feb. 2017
              N. B. Balabanov, K. A. Peterson, J. Chem. Phys. 123, 064107 (2005)
              N. B. Balabanov, K. A. Peterson, J. Chem. Phys. 125, 074110 (2006)
      Ga-Kr : Obtained from the ccRepo (grant-hill.group.shef.ac.uk/ccrepo) Feb. 2017
              A. K. Wilson, D. E. Woon, K. A. Peterson, T. H. Dunning, Jr., J. Chem. Phys. 110, 7667 (1999)
     Ag, Au : Obtained from the Peterson Research Group Website (tyr0.chem.wsu.edu/~kipeters) Feb. 2017
              K. A. Peterson, C. Puzzarini, Theor. Chem. Acc. 114, 283 (2005)

The basis set includes element-specific modifications.

Your calculation utilizes the basis: cc-pVTZ 
       H, B-Ne : Obtained from the ccRepo (grant-hill.group.shef.ac.uk/ccrepo) Feb. 2017
                 T. H. Dunning, Jr., J. Chem. Phys. 90, 1007 (1989)
            He : Obtained from the ccRepo (grant-hill.group.shef.ac.uk/ccrepo) Feb. 2017
                 D. E. Woon, T. H. Dunning, Jr., J. Chem. Phys. 100, 2975 (1994)
  Li-Be, Na-Mg : Obtained from the ccRepo (grant-hill.group.shef.ac.uk/ccrepo) Feb. 2017
                 B. P. Prascher, D. E. Woon, K. A. Peterson, T. H. Dunning, Jr., A. K. Wilson, Theor. Chem. Acc. 128, 69 (2011)
         Al-Ar : Obtained from the ccRepo (grant-hill.group.shef.ac.uk/ccrepo) Feb. 2017
                 D. E. Woon, T. H. Dunning, Jr., J. Chem. Phys. 98, 1358 (1993)
            Ca : Obtained from the Peterson Research Group Website (tyr0.chem.wsu.edu/~kipeters) Feb. 2017
                 J. Koput, K. A. Peterson, J. Phys. Chem. 106, 9595 (2002)
         Sc-Zn : Obtained from the ccRepo (grant-hill.group.shef.ac.uk/ccrepo) Feb. 2017
                 N. B. Balabanov, K. A. Peterson, J. Chem. Phys. 123, 064107 (2005)
                 N. B. Balabanov, K. A. Peterson, J. Chem. Phys. 125, 074110 (2006)
         Ga-Kr : Obtained from the ccRepo (grant-hill.group.shef.ac.uk/ccrepo) Feb. 2017
                 A. K. Wilson, D. E. Woon, K. A. Peterson, T. H. Dunning, Jr., J. Chem. Phys. 110, 7667 (1999)
             Y : Obtained from the ccRepo (grant-hill.group.shef.ac.uk/ccrepo) Feb. 2017
                 K. A. Peterson, D. Figgen, M. Dolg, H. Stoll, J. Chem. Phys. 126, 124101 (2007)
        Ag, Au : Obtained from the Peterson Research Group Website (tyr0.chem.wsu.edu/~kipeters) Feb. 2017
                 K. A. Peterson, C. Puzzarini, Theor. Chem. Acc. 114, 283 (2005)

----- AuxJ basis set information -----
Your calculation utilizes the auxiliary basis: aug-cc-pVTZ/JK 
  H, B-F, Al-Cl, Ga-Br : Obtained from the TURBOMOLE 7.0 basis set library

The basis set includes element-specific modifications.

Your calculation utilizes the auxiliary basis: cc-pVTZ/JK 
  H, B-F, Al-Cl, Ga-Br : Obtained from the TURBOMOLE 7.0 basis set library

----- AuxC basis set information -----
Your calculation utilizes the auxiliary basis: aug-cc-pVTZ/C 
  H-He, B-F, Al-Ar, Ga-Kr : Obtained from the EMSL Basis Set Exchange (bse.pnl.gov) Feb. 2017
                            F. Weigend, A. Kohn, C. Hattig, J. Chem. Phys. 116, 3175 (2002)
                   Be, Mg : Obtained from the TURBOMOLE 7.0 basis set library
                            C. Haettig, Phys. Chem. Chem. Phys. 7, 59 (2005)
                       Ne : Obtained from the EMSL Basis Set Exchange (bse.pnl.gov) Feb. 2017
                            C. Haettig, Phys. Chem. Chem. Phys. 7, 59 (2005)
                            F. Weigend, A. Kohn, C. Hattig, J. Chem. Phys. 116, 3175 (2002)
                    Sc-Zn : Obtained from the EMSL Basis Set Exchange (bse.pnl.gov) Feb. 2017
                            J. G. Hill, J. A. Platts, J. Chem. Phys. 128, 044104 (2008)

The basis set includes element-specific modifications.

Your calculation utilizes the auxiliary basis: cc-pVTZ/C 
  Obtained from the EMSL Basis Set Exchange (bse.pnl.gov) Feb. 2017
  H-He, B-F, Al-Ar, Ga-Kr : F. Weigend, A. Kohn, C. Hattig, J. Chem. Phys. 116, 3175 (2002)
             Li-Be, Na-Mg : C. Haettig, Phys. Chem. Chem. Phys. 7, 59 (2005)
                       Ne : C. Haettig, Phys. Chem. Chem. Phys. 7, 59 (2005)
                            F. Weigend, A. Kohn, C. Hattig, J. Chem. Phys. 116, 3175 (2002)
                    Sc-Zn : J. G. Hill, J. A. Platts, J. Chem. Phys. 128, 044104 (2008)

================================================================================
                                        WARNINGS
                       Please study these warnings very carefully!
================================================================================

INFO   : Checking CIS options ...
  ===> : (D) CORRECTION FOUND - SETTING MODE=3
  ===> : JK MODE FOUND - ACTIVATING RI-MP2 CODE
  ===> : MP2 AND CIS FOUND - CHECKING
WARNING: CIS(D) and MP2 runs must have the same orbital window
  ===> : adjusting orbital windows

WARNING: No MP2 level density has been requested!
         To caclulate MP2 level properties use
         %mp2 Density relaxed end
         or
         %mp2 Density unrelaxed end
         Otherwise for double-hybrid DFT only the energy is correct!

WARNING: The frozen-core approximation is turned on by default for 
         the MP2 part of double-hybrid DFT.

INFO   : the flag for use of the SHARK integral package has been found!

================================================================================
                                       INPUT FILE
================================================================================
NAME = optpbed3-b2plyp-test-276.inp
|  1> ! pbe0 d3bj aug-cc-PVTZ RIJCOSX Opt
|  2> %maxcore 4000
|  3> %basis
|  4>  AuxJ "aug-cc-PVTZ/JK"
|  5>  AuxC "aug-cc-PVTZ/C"
|  6>  newGTO H "cc-PVTZ" end
|  7>  newAuxJGTO H "cc-PVTZ/JK" end
|  8>  newAuxCGTO H "cc-PVTZ/C" end
|  9> end
| 10> %cpcm
| 11>  SMD true
| 12>  SMDsolvent "dichloromethane"
| 13> end
| 14> %pal nprocs 4 end
| 15> * xyz 0 1
| 16> C         -2.05810        3.91020        0.86340
| 17> O         -3.09020        3.07390        0.40250
| 18> C         -2.78530        1.78880        0.04420
| 19> C         -1.51130        1.25880        0.12630
| 20> C         -1.25920       -0.07410       -0.21430
| 21> C          0.09320       -0.57110       -0.10880
| 22> C          0.52700       -1.79690       -0.45250
| 23> C          1.88850       -2.20820       -0.31790
| 24> N          2.36520       -3.38150       -0.65670
| 25> C          3.68140       -3.33760       -0.36190
| 26> C          3.98780       -2.10380        0.16600
| 27> C          5.21650       -1.52180        0.64760
| 28> C          5.24490       -0.22020        1.15600
| 29> C          6.44960        0.28880        1.60540
| 30> N          7.58590       -0.38810        1.58240
| 31> C          7.56030       -1.62070        1.10140
| 32> C          6.41770       -2.23620        0.62410
| 33> O          2.83250       -1.38700        0.18980
| 34> C         -2.32580       -0.85780       -0.63230
| 35> C         -3.61640       -0.34570       -0.73670
| 36> O         -4.52470       -1.26600       -1.15520
| 37> C         -5.86840       -0.93080       -1.42440
| 38> C         -3.86270        0.99780       -0.41030
| 39> O         -5.14730        1.48050       -0.48970
| 40> C         -5.35950        2.75230       -1.07040
| 41> H         -1.59940        3.51810        1.77640
| 42> H         -2.53420        4.86480        1.08330
| 43> H         -1.28750        4.05910        0.10030
| 44> H         -0.69070        1.86770        0.46900
| 45> H          0.81830        0.13180        0.28280
| 46> H         -0.12310       -2.55410       -0.85890
| 47> H          4.31720       -4.17940       -0.54300
| 48> H          4.34170        0.36810        1.19430
| 49> H          6.51340        1.29220        2.00650
| 50> H          8.51040       -2.13900        1.10070
| 51> H          6.45180       -3.24370        0.24240
| 52> H         -2.19150       -1.89270       -0.89710
| 53> H         -6.37380       -0.53780       -0.54100
| 54> H         -5.94940       -0.20920       -2.24100
| 55> H         -6.33390       -1.86910       -1.72710
| 56> H         -4.70620        2.91100       -1.93240
| 57> H         -6.39970        2.75200       -1.39830
| 58> H         -5.20500        3.55650       -0.34910
| 59> *
| 60> 
| 61> 
| 62> $new_job
| 63> ! b2plyp aug-cc-PVTZ RIJCOSX SP
| 64> %maxcore 4000
| 65> %basis
| 66>  AuxJ "aug-cc-PVTZ/JK"
| 67>  AuxC "aug-cc-PVTZ/C"
| 68>  newGTO H "cc-PVTZ" end
| 69>  newAuxJGTO H "cc-PVTZ/JK" end
| 70>  newAuxCGTO H "cc-PVTZ/C" end
| 71> end
| 72> %cpcm
| 73>  SMD true
| 74>  SMDsolvent "dichloromethane"
| 75> end
| 76> %pal nprocs 4 end
| 77> %tddft
| 78>  nroots 10
| 79>  maxdim 7
| 80> end
| 81> * xyzfile 0 1
| 82> 
| 83>                          ****END OF INPUT****
================================================================================


                 $$$$$$$$$$$$$$$$$$$$$$$$$$$$$$$$$$$$$$$$$$$$$$ 
                 $ THERE ARE  2 JOBS TO BE PROCESSED THIS RUN $
                 $$$$$$$$$$$$$$$$$$$$$$$$$$$$$$$$$$$$$$$$$$$$$$ 




                 $$$$$$$$$$$$$$$$  JOB NUMBER  1 $$$$$$$$$$$$$$


                       *****************************
                       * Geometry Optimization Run *
                       *****************************

Geometry optimization settings:
Update method            Update   .... BFGS
Choice of coordinates    CoordSys .... Z-matrix Internals
Initial Hessian          InHess   .... Almoef's Model

Convergence Tolerances:
Energy Change            TolE     ....  5.0000e-06 Eh
Max. Gradient            TolMAXG  ....  3.0000e-04 Eh/bohr
RMS Gradient             TolRMSG  ....  1.0000e-04 Eh/bohr
Max. Displacement        TolMAXD  ....  4.0000e-03 bohr
RMS Displacement         TolRMSD  ....  2.0000e-03 bohr
Strict Convergence                ....  False
------------------------------------------------------------------------------
                        ORCA OPTIMIZATION COORDINATE SETUP
------------------------------------------------------------------------------

The optimization will be done in new redundant internal coordinates
Making redundant internal coordinates   ...  (new redundants) done
Evaluating the initial hessian          ...  (Almloef) done
Evaluating the coordinates              ...  done
Calculating the B-matrix                .... done
Calculating the G-matrix                .... done
Diagonalizing the G-matrix              .... done
Small eigenvalue found = 9.650e-04
Small eigenvalue found = 5.033e-03
Small eigenvalue found = 6.949e-03
Small eigenvalue found = 1.023e-02
Small eigenvalue found = 1.114e-02
Small eigenvalue found = 1.285e-02
Small eigenvalue found = 1.997e-02
Small eigenvalue found = 2.614e-02
The first mode is                       ....   81
The number of degrees of freedom        ....  123

    -----------------------------------------------------------------
                    Redundant Internal Coordinates


    -----------------------------------------------------------------
         Definition                    Initial Value    Approx d2E/dq
    -----------------------------------------------------------------
      1. B(O   1,C   0)                  1.4061         0.527501   
      2. B(C   2,O   1)                  1.3685         0.605562   
      3. B(C   3,C   2)                  1.3823         0.642754   
      4. B(C   4,C   3)                  1.3986         0.605284   
      5. B(C   5,C   4)                  1.4447         0.511077   
      6. B(C   6,C   5)                  1.3450         0.737240   
      7. B(C   7,C   6)                  1.4286         0.542146   
      8. B(N   8,C   7)                  1.3110         0.748086   
      9. B(C   9,N   8)                  1.3495         0.649309   
     10. B(C  10,C   9)                  1.3765         0.656503   
     11. B(C  11,C  10)                  1.4423         0.515491   
     12. B(C  12,C  11)                  1.3977         0.607471   
     13. B(C  13,C  12)                  1.3829         0.641366   
     14. B(N  14,C  13)                  1.3228         0.716190   
     15. B(C  15,N  14)                  1.3234         0.714781   
     16. B(C  16,C  15)                  1.3828         0.641496   
     17. B(C  16,C  11)                  1.3978         0.607182   
     18. B(O  17,C  10)                  1.3598         0.625230   
     19. B(O  17,C   7)                  1.3503         0.647502   
     20. B(C  18,C   4)                  1.3880         0.629403   
     21. B(C  19,C  18)                  1.3924         0.619299   
     22. B(O  20,C  19)                  1.3591         0.626908   
     23. B(C  21,O  20)                  1.4108         0.518430   
     24. B(C  22,C  19)                  1.4043         0.592717   
     25. B(C  22,C   2)                  1.4118         0.576814   
     26. B(O  23,C  22)                  1.3746         0.592188   
     27. B(C  24,O  23)                  1.4141         0.512158   
     28. B(H  25,C   0)                  1.0944         0.354323   
     29. B(H  26,C   0)                  1.0892         0.361201   
     30. B(H  27,C   0)                  1.0947         0.353966   
     31. B(H  28,C   3)                  1.0778         0.376649   
     32. B(H  29,C   5)                  1.0831         0.369292   
     33. B(H  30,C   6)                  1.0776         0.376934   
     34. B(H  31,C   9)                  1.0704         0.387044   
     35. B(H  32,C  12)                  1.0786         0.375529   
     36. B(H  33,C  13)                  1.0825         0.370187   
     37. B(H  34,C  15)                  1.0823         0.370462   
     38. B(H  35,C  16)                  1.0779         0.376439   
     39. B(H  36,C  18)                  1.0766         0.378202   
     40. B(H  37,C  21)                  1.0910         0.358784   
     41. B(H  38,C  21)                  1.0928         0.356480   
     42. B(H  39,C  21)                  1.0903         0.359721   
     43. B(H  40,C  24)                  1.0932         0.355925   
     44. B(H  41,C  24)                  1.0907         0.359231   
     45. B(H  42,C  24)                  1.0913         0.358417   
     46. A(O   1,C   0,H  27)          111.6613         0.340359   
     47. A(H  26,C   0,H  27)          109.2226         0.290195   
     48. A(O   1,C   0,H  25)          111.5935         0.340417   
     49. A(H  25,C   0,H  27)          109.5870         0.289321   
     50. A(O   1,C   0,H  26)          105.4626         0.341513   
     51. A(H  25,C   0,H  26)          109.1955         0.290241   
     52. A(C   0,O   1,C   2)          118.7380         0.414482   
     53. A(C   3,C   2,C  22)          120.5088         0.431254   
     54. A(O   1,C   2,C   3)          123.3564         0.432195   
     55. A(O   1,C   2,C  22)          116.1297         0.423889   
     56. A(C   2,C   3,C   4)          121.1355         0.435006   
     57. A(C   4,C   3,H  28)          118.5943         0.354161   
     58. A(C   2,C   3,H  28)          120.2655         0.357790   
     59. A(C   5,C   4,C  18)          123.1686         0.420429   
     60. A(C   3,C   4,C   5)          118.6070         0.417511   
     61. A(C   3,C   4,C  18)          118.2237         0.433366   
     62. A(C   4,C   5,C   6)          126.6421         0.432507   
     63. A(C   6,C   5,H  29)          117.8997         0.365030   
     64. A(C   4,C   5,H  29)          115.4568         0.343063   
     65. A(C   5,C   6,C   7)          123.0726         0.437126   
     66. A(C   7,C   6,H  30)          114.0910         0.347675   
     67. A(C   5,C   6,H  30)          122.8357         0.366313   
     68. A(N   8,C   7,O  17)          112.7839         0.446645   
     69. A(C   6,C   7,O  17)          121.7759         0.424267   
     70. A(C   6,C   7,N   8)          125.4402         0.435405   
     71. A(C   7,N   8,C   9)          105.6092         0.446870   
     72. A(N   8,C   9,H  31)          121.1175         0.357843   
     73. A(N   8,C   9,C  10)          109.2703         0.439330   
     74. A(C  10,C   9,H  31)          129.6122         0.360750   
     75. A(C  11,C  10,O  17)          120.3453         0.417847   
     76. A(C   9,C  10,O  17)          106.8625         0.436346   
     77. A(C   9,C  10,C  11)          132.7921         0.424259   
     78. A(C  10,C  11,C  16)          121.3472         0.418385   
     79. A(C  10,C  11,C  12)          120.9670         0.418420   
     80. A(C  12,C  11,C  16)          117.6858         0.430855   
     81. A(C  13,C  12,H  32)          121.1448         0.357478   
     82. A(C  11,C  12,H  32)          120.2554         0.354199   
     83. A(C  11,C  12,C  13)          118.5999         0.435119   
     84. A(C  12,C  13,N  14)          123.6637         0.445304   
     85. A(N  14,C  13,H  33)          115.4762         0.361119   
     86. A(C  12,C  13,H  33)          120.8602         0.356609   
     87. A(C  13,N  14,C  15)          117.7948         0.451148   
     88. A(N  14,C  15,H  34)          115.4232         0.361043   
     89. A(C  16,C  15,H  34)          120.7962         0.356666   
     90. A(N  14,C  15,C  16)          123.7805         0.445162   
     91. A(C  15,C  16,H  35)          120.8046         0.357637   
     92. A(C  11,C  16,H  35)          120.7200         0.354315   
     93. A(C  11,C  16,C  15)          118.4753         0.435098   
     94. A(C   7,O  17,C  10)          105.4741         0.432414   
     95. A(C  19,C  18,H  36)          116.7884         0.355787   
     96. A(C   4,C  18,H  36)          121.3956         0.356766   
     97. A(C   4,C  18,C  19)          121.8151         0.435155   
     98. A(C  18,C  19,C  22)          119.8004         0.430482   
     99. A(C  18,C  19,O  20)          113.1725         0.431998   
    100. A(O  20,C  19,C  22)          127.0251         0.428609   
    101. A(C  19,O  20,C  21)          122.3034         0.415759   
    102. A(H  37,C  21,H  38)          109.4438         0.290212   
    103. A(O  20,C  21,H  38)          111.7211         0.339776   
    104. A(O  20,C  21,H  37)          111.8572         0.340142   
    105. A(H  38,C  21,H  39)          109.2189         0.290330   
    106. A(H  37,C  21,H  39)          109.6959         0.290624   
    107. A(O  20,C  21,H  39)          104.7823         0.340290   
    108. A(C  19,C  22,O  23)          119.1056         0.424258   
    109. A(C   2,C  22,O  23)          122.3470         0.422200   
    110. A(C   2,C  22,C  19)          118.4896         0.425033   
    111. A(C  22,O  23,C  24)          118.6706         0.410685   
    112. A(H  41,C  24,H  42)          109.5085         0.290515   
    113. A(H  40,C  24,H  42)          109.2446         0.290094   
    114. A(O  23,C  24,H  42)          111.7220         0.339393   
    115. A(H  40,C  24,H  41)          109.4475         0.290197   
    116. A(O  23,C  24,H  41)          105.4458         0.339521   
    117. A(O  23,C  24,H  40)          111.3886         0.338998   
    118. D(C   2,O   1,C   0,H  26)    179.9971         0.022088   
    119. D(C   2,O   1,C   0,H  25)    -61.5540         0.022088   
    120. D(C   2,O   1,C   0,H  27)     61.4797         0.022088   
    121. D(C  22,C   2,O   1,C   0)    179.9930         0.026816   
    122. D(C   3,C   2,O   1,C   0)      0.8076         0.026816   
    123. D(C   4,C   3,C   2,O   1)    178.0389         0.028721   
    124. D(C   4,C   3,C   2,C  22)     -1.1122         0.028721   
    125. D(H  28,C   3,C   2,O   1)     -1.1650         0.028721   
    126. D(H  28,C   3,C   2,C  22)    179.6839         0.028721   
    127. D(C  18,C   4,C   3,H  28)    178.8889         0.025281   
    128. D(C  18,C   4,C   3,C   2)     -0.3280         0.025281   
    129. D(C   5,C   4,C   3,H  28)     -0.8138         0.025281   
    130. D(C   5,C   4,C   3,C   2)    179.9693         0.025281   
    131. D(C   6,C   5,C   4,C  18)      3.7176         0.017802   
    132. D(C   6,C   5,C   4,C   3)   -176.5953         0.017802   
    133. D(H  29,C   5,C   4,C   3)      2.9625         0.017802   
    134. D(H  29,C   5,C   4,C  18)   -176.7246         0.017802   
    135. D(C   7,C   6,C   5,H  29)      0.3130         0.038635   
    136. D(H  30,C   6,C   5,H  29)   -179.3711         0.038635   
    137. D(H  30,C   6,C   5,C   4)      0.1771         0.038635   
    138. D(C   7,C   6,C   5,C   4)    179.8612         0.038635   
    139. D(O  17,C   7,C   6,H  30)   -179.1963         0.020088   
    140. D(O  17,C   7,C   6,C   5)      1.0944         0.020088   
    141. D(N   8,C   7,C   6,H  30)      0.8245         0.020088   
    142. D(N   8,C   7,C   6,C   5)   -178.8848         0.020088   
    143. D(C   9,N   8,C   7,O  17)     -0.0158         0.042480   
    144. D(C   9,N   8,C   7,C   6)    179.9650         0.042480   
    145. D(H  31,C   9,N   8,C   7)   -179.9912         0.031153   
    146. D(C  10,C   9,N   8,C   7)      0.0333         0.031153   
    147. D(C  11,C  10,C   9,H  31)     -0.1382         0.030052   
    148. D(C  11,C  10,C   9,N   8)    179.8347         0.030052   
    149. D(O  17,C  10,C   9,H  31)    179.9886         0.030052   
    150. D(O  17,C  10,C   9,N   8)     -0.0386         0.030052   
    151. D(C  16,C  11,C  10,O  17)   -179.5421         0.018116   
    152. D(C  16,C  11,C  10,C   9)      0.5985         0.018116   
    153. D(C  12,C  11,C  10,O  17)      0.5065         0.018116   
    154. D(C  12,C  11,C  10,C   9)   -179.3529         0.018116   
    155. D(H  32,C  12,C  11,C  16)   -179.9498         0.025474   
    156. D(H  32,C  12,C  11,C  10)      0.0034         0.025474   
    157. D(C  13,C  12,C  11,C  16)      0.0036         0.025474   
    158. D(C  13,C  12,C  11,C  10)    179.9568         0.025474   
    159. D(H  33,C  13,C  12,H  32)     -0.0257         0.028588   
    160. D(H  33,C  13,C  12,C  11)   -179.9787         0.028588   
    161. D(N  14,C  13,C  12,H  32)    179.9656         0.028588   
    162. D(N  14,C  13,C  12,C  11)      0.0126         0.028588   
    163. D(C  15,N  14,C  13,H  33)    179.9713         0.038584   
    164. D(C  15,N  14,C  13,C  12)     -0.0204         0.038584   
    165. D(H  34,C  15,N  14,C  13)   -179.9929         0.038417   
    166. D(C  16,C  15,N  14,C  13)      0.0123         0.038417   
    167. D(H  35,C  16,C  15,H  34)      0.0004         0.028601   
    168. D(H  35,C  16,C  15,N  14)    179.9949         0.028601   
    169. D(C  11,C  16,C  15,H  34)   -179.9913         0.028601   
    170. D(C  11,C  16,C  15,N  14)      0.0032         0.028601   
    171. D(H  35,C  16,C  11,C  12)    179.9973         0.025449   
    172. D(H  35,C  16,C  11,C  10)      0.0443         0.025449   
    173. D(C  15,C  16,C  11,C  12)     -0.0109         0.025449   
    174. D(C  15,C  16,C  11,C  10)   -179.9639         0.025449   
    175. D(C   7,O  17,C  10,C  11)   -179.8645         0.028716   
    176. D(C   7,O  17,C  10,C   9)      0.0277         0.028716   
    177. D(C  10,O  17,C   7,N   8)     -0.0078         0.030966   
    178. D(C  10,O  17,C   7,C   6)   -179.9894         0.030966   
    179. D(C  19,C  18,C   4,C   5)   -179.3354         0.027464   
    180. D(C  19,C  18,C   4,C   3)      0.9764         0.027464   
    181. D(H  36,C  18,C   4,C   5)      0.3175         0.027464   
    182. D(H  36,C  18,C   4,C   3)   -179.3707         0.027464   
    183. D(C  22,C  19,C  18,H  36)   -179.8432         0.026536   
    184. D(C  22,C  19,C  18,C   4)     -0.1751         0.026536   
    185. D(O  20,C  19,C  18,H  36)      0.6353         0.026536   
    186. D(O  20,C  19,C  18,C   4)   -179.6966         0.026536   
    187. D(C  21,O  20,C  19,C  22)      5.4184         0.028881   
    188. D(C  21,O  20,C  19,C  18)   -175.1016         0.028881   
    189. D(H  39,C  21,O  20,C  19)   -179.5855         0.021303   
    190. D(H  38,C  21,O  20,C  19)     62.2769         0.021303   
    191. D(H  37,C  21,O  20,C  19)    -60.8079         0.021303   
    192. D(O  23,C  22,C  19,O  20)      0.8969         0.024188   
    193. D(O  23,C  22,C  19,C  18)   -178.5522         0.024188   
    194. D(C   2,C  22,C  19,O  20)    178.1975         0.024188   
    195. D(C   2,C  22,C  19,C  18)     -1.2516         0.024188   
    196. D(O  23,C  22,C   2,C   3)    179.0988         0.022847   
    197. D(O  23,C  22,C   2,O   1)     -0.1115         0.022847   
    198. D(C  19,C  22,C   2,C   3)      1.8906         0.022847   
    199. D(C  19,C  22,C   2,O   1)   -177.3197         0.022847   
    200. D(C  24,O  23,C  22,C  19)   -136.6986         0.025570   
    201. D(C  24,O  23,C  22,C   2)     46.1097         0.025570   
    202. D(H  42,C  24,O  23,C  22)    -83.7121         0.020772   
    203. D(H  41,C  24,O  23,C  22)    157.4050         0.020772   
    204. D(H  40,C  24,O  23,C  22)     38.7726         0.020772   
    -----------------------------------------------------------------

Number of atoms                         .... 43
Number of degrees of freedom            .... 204

         *************************************************************
         *                GEOMETRY OPTIMIZATION CYCLE   1            *
         *************************************************************
---------------------------------
CARTESIAN COORDINATES (ANGSTROEM)
---------------------------------
  C     -2.058100    3.910200    0.863400
  O     -3.090200    3.073900    0.402500
  C     -2.785300    1.788800    0.044200
  C     -1.511300    1.258800    0.126300
  C     -1.259200   -0.074100   -0.214300
  C      0.093200   -0.571100   -0.108800
  C      0.527000   -1.796900   -0.452500
  C      1.888500   -2.208200   -0.317900
  N      2.365200   -3.381500   -0.656700
  C      3.681400   -3.337600   -0.361900
  C      3.987800   -2.103800    0.166000
  C      5.216500   -1.521800    0.647600
  C      5.244900   -0.220200    1.156000
  C      6.449600    0.288800    1.605400
  N      7.585900   -0.388100    1.582400
  C      7.560300   -1.620700    1.101400
  C      6.417700   -2.236200    0.624100
  O      2.832500   -1.387000    0.189800
  C     -2.325800   -0.857800   -0.632300
  C     -3.616400   -0.345700   -0.736700
  O     -4.524700   -1.266000   -1.155200
  C     -5.868400   -0.930800   -1.424400
  C     -3.862700    0.997800   -0.410300
  O     -5.147300    1.480500   -0.489700
  C     -5.359500    2.752300   -1.070400
  H     -1.599400    3.518100    1.776400
  H     -2.534200    4.864800    1.083300
  H     -1.287500    4.059100    0.100300
  H     -0.690700    1.867700    0.469000
  H      0.818300    0.131800    0.282800
  H     -0.123100   -2.554100   -0.858900
  H      4.317200   -4.179400   -0.543000
  H      4.341700    0.368100    1.194300
  H      6.513400    1.292200    2.006500
  H      8.510400   -2.139000    1.100700
  H      6.451800   -3.243700    0.242400
  H     -2.191500   -1.892700   -0.897100
  H     -6.373800   -0.537800   -0.541000
  H     -5.949400   -0.209200   -2.241000
  H     -6.333900   -1.869100   -1.727100
  H     -4.706200    2.911000   -1.932400
  H     -6.399700    2.752000   -1.398300
  H     -5.205000    3.556500   -0.349100

----------------------------
CARTESIAN COORDINATES (A.U.)
----------------------------
  NO LB      ZA    FRAG     MASS         X           Y           Z
   0 C     6.0000    0    12.011   -3.889245    7.389207    1.631590
   1 O     8.0000    0    15.999   -5.839632    5.808829    0.760615
   2 C     6.0000    0    12.011   -5.263454    3.380342    0.083526
   3 C     6.0000    0    12.011   -2.855943    2.378787    0.238672
   4 C     6.0000    0    12.011   -2.379543   -0.140029   -0.404968
   5 C     6.0000    0    12.011    0.176122   -1.079223   -0.205602
   6 C     6.0000    0    12.011    0.995886   -3.395649   -0.855101
   7 C     6.0000    0    12.011    3.568748   -4.172893   -0.600744
   8 N     7.0000    0    14.007    4.469580   -6.390109   -1.240983
   9 C     6.0000    0    12.011    6.956838   -6.307150   -0.683892
  10 C     6.0000    0    12.011    7.535850   -3.975606    0.313695
  11 C     6.0000    0    12.011    9.857756   -2.875785    1.223787
  12 C     6.0000    0    12.011    9.911425   -0.416118    2.184523
  13 C     6.0000    0    12.011   12.187978    0.545753    3.033766
  14 N     7.0000    0    14.007   14.335273   -0.733403    2.990303
  15 C     6.0000    0    12.011   14.286896   -3.062679    2.081344
  16 C     6.0000    0    12.011   12.127695   -4.225806    1.179378
  17 O     8.0000    0    15.999    5.352649   -2.621050    0.358670
  18 C     6.0000    0    12.011   -4.395125   -1.621007   -1.194874
  19 C     6.0000    0    12.011   -6.834006   -0.653278   -1.392161
  20 O     8.0000    0    15.999   -8.550444   -2.392393   -2.183012
  21 C     6.0000    0    12.011  -11.089669   -1.758957   -2.691726
  22 C     6.0000    0    12.011   -7.299445    1.885569   -0.775355
  23 O     8.0000    0    15.999   -9.726987    2.797740   -0.925399
  24 C     6.0000    0    12.011  -10.127987    5.201093   -2.022763
  25 H     1.0000    0     1.008   -3.022428    6.648246    3.356910
  26 H     1.0000    0     1.008   -4.788944    9.193140    2.047140
  27 H     1.0000    0     1.008   -2.433022    7.670587    0.189540
  28 H     1.0000    0     1.008   -1.305234    3.529442    0.886282
  29 H     1.0000    0     1.008    1.546363    0.249066    0.534415
  30 H     1.0000    0     1.008   -0.232625   -4.826550   -1.623086
  31 H     1.0000    0     1.008    8.158326   -7.897921   -1.026121
  32 H     1.0000    0     1.008    8.204624    0.695608    2.256900
  33 H     1.0000    0     1.008   12.308542    2.441904    3.791735
  34 H     1.0000    0     1.008   16.082325   -4.042124    2.080022
  35 H     1.0000    0     1.008   12.192135   -6.129705    0.458070
  36 H     1.0000    0     1.008   -4.141335   -3.576685   -1.695273
  37 H     1.0000    0     1.008  -12.044736   -1.016295   -1.022342
  38 H     1.0000    0     1.008  -11.242737   -0.395331   -4.234876
  39 H     1.0000    0     1.008  -11.969336   -3.532087   -3.263746
  40 H     1.0000    0     1.008   -8.893429    5.500993   -3.651707
  41 H     1.0000    0     1.008  -12.093680    5.200526   -2.642404
  42 H     1.0000    0     1.008   -9.836025    6.720811   -0.659703

--------------------------------
INTERNAL COORDINATES (ANGSTROEM)
--------------------------------
 C      0   0   0     0.000000000000     0.00000000     0.00000000
 O      1   0   0     1.406078557549     0.00000000     0.00000000
 C      2   1   0     1.368511932721   118.73800340     0.00000000
 C      3   2   1     1.382286659850   123.35640521     0.80764594
 C      4   3   2     1.398636900700   121.13553131   178.03888766
 C      5   4   3     1.444688551211   118.60696986   179.96928379
 C      6   5   4     1.344952701771   126.64210143   183.40469015
 C      7   6   5     1.428624198311   123.07261149   179.86120681
 N      8   7   6     1.310977200412   125.44019657   181.11523902
 C      9   8   7     1.349524616300   105.60923190   179.96497203
 C     10   9   8     1.376525266750   109.27029018     0.03325015
 C     11  10   9     1.442347478938   132.79214619   179.83465351
 C     12  11  10     1.397655064742   120.96698943   180.64705767
 C     13  12  11     1.382875066664   118.59985381   179.95683385
 N     14  13  12     1.322837971938   123.66365912     0.00000000
 C     15  14  13     1.323374142108   117.79481079     0.00000000
 C     16  15  14     1.382819691789   123.78052137     0.00000000
 O      8   7   6     1.350283203628   121.77589732     1.09439110
 C      5   4   3     1.388000450288   118.22370562   359.67201200
 C     19   5   4     1.392405878327   121.81514042     0.97638839
 O     20  19   5     1.359081759866   113.17248647   180.30337988
 C     21  20  19     1.410800258718   122.30335678   184.89835051
 C     20  19   5     1.404347855768   119.80037308   359.82494415
 O     23  20  19     1.374591142849   119.10558613   181.44780971
 C     24  23  20     1.414113351185   118.67062836   223.30135769
 H      1   2   3     1.094402622438   111.59346330   298.44597743
 H      1   2   3     1.089168664625   105.46261825   179.99706826
 H      1   2   3     1.094676746807   111.66129484    61.47968157
 H      4   3   2     1.077769390918   120.26547348   358.83500703
 H      6   5   4     1.083138486067   115.45680097     2.96247679
 H      7   6   5     1.077563367046   122.83573553     0.17706097
 H     10   9   8     1.070357926116   121.11748907   180.00880861
 H     13  12  11     1.078579630811   120.25535806     0.00000000
 H     14  13  12     1.082480119910   120.86017655   180.02132749
 H     16  15  14     1.082277870974   115.42323870   180.00711426
 H     17  16  15     1.077921124202   120.80460859   179.99494698
 H     19   5   4     1.076649218641   121.39558792   180.62931532
 H     22  21  20     1.090996663606   111.85722114   299.19212048
 H     22  21  20     1.092750255090   111.72111290    62.27686251
 H     22  21  20     1.090286398154   104.78229396   180.41446881
 H     25  24  23     1.093174542331   111.38864452    38.77262559
 H     25  24  23     1.090657847356   105.44584202   157.40498304
 H     25  24  23     1.091275208185   111.72195652   276.28789067

---------------------------
INTERNAL COORDINATES (A.U.)
---------------------------
 C      0   0   0     0.000000000000     0.00000000     0.00000000
 O      1   0   0     2.657103396547     0.00000000     0.00000000
 C      2   1   0     2.586112763846   118.73800340     0.00000000
 C      3   2   1     2.612143225690   123.35640521     0.80764594
 C      4   3   2     2.643040703120   121.13553131   178.03888766
 C      5   4   3     2.730065710600   118.60696986   179.96928379
 C      6   5   4     2.541592269424   126.64210143   183.40469015
 C      7   6   5     2.699708483101   123.07261149   179.86120681
 N      8   7   6     2.477387876593   125.44019657   181.11523902
 C      9   8   7     2.550231935792   105.60923190   179.96497203
 C     10   9   8     2.601255770580   109.27029018     0.03325015
 C     11  10   9     2.725641725145   132.79214619   179.83465351
 C     12  11  10     2.641185302051   120.96698943   180.64705767
 C     13  12  11     2.613255153422   118.59985381   179.95683385
 N     14  13  12     2.499801486514   123.66365912     0.00000000
 C     15  14  13     2.500814701297   117.79481079     0.00000000
 C     16  15  14     2.613150510075   123.78052137     0.00000000
 O      8   7   6     2.551665458091   121.77589732     1.09439110
 C      5   4   3     2.622940724804   118.22370562   359.67201200
 C     19   5   4     2.631265777300   121.81514042     0.97638839
 O     20  19   5     2.568292319754   113.17248647   180.30337988
 C     21  20  19     2.666026118643   122.30335678   184.89835051
 C     20  19   5     2.653832844161   119.80037308   359.82494415
 O     23  20  19     2.597600806099   119.10558613   181.44780971
 C     24  23  20     2.672286956061   118.67062836   223.30135769
 H      1   2   3     2.068121236654   111.59346330   298.44597743
 H      1   2   3     2.058230489789   105.46261825   179.99706826
 H      1   2   3     2.068639256637   111.66129484    61.47968157
 H      4   3   2     2.036688984358   120.26547348   358.83500703
 H      6   5   4     2.046835103777   115.45680097     2.96247679
 H      7   6   5     2.036299655663   122.83573553     0.17706097
 H     10   9   8     2.022683345632   121.11748907   180.00880861
 H     13  12  11     2.038220115858   120.25535806     0.00000000
 H     14  13  12     2.045590972044   120.86017655   180.02132749
 H     16  15  14     2.045208776944   115.42323870   180.00711426
 H     17  16  15     2.036975718710   120.80460859   179.99494698
 H     19   5   4     2.034572165532   121.39558792   180.62931532
 H     22  21  20     2.061684907238   111.85722114   299.19212048
 H     22  21  20     2.064998714893   111.72111290    62.27686251
 H     22  21  20     2.060342700051   104.78229396   180.41446881
 H     25  24  23     2.065800501580   111.38864452    38.77262559
 H     25  24  23     2.061044637316   105.44584202   157.40498304
 H     25  24  23     2.062211280208   111.72195652   276.28789067

---------------------
BASIS SET INFORMATION
---------------------
There are 4 groups of distinct atoms

 Group   1 Type C   : 19s6p3d2f contracted to 5s4p3d2f pattern {88111/3111/111/11}
 Group   2 Type O   : 19s6p3d2f contracted to 5s4p3d2f pattern {88111/3111/111/11}
 Group   3 Type N   : 19s6p3d2f contracted to 5s4p3d2f pattern {88111/3111/111/11}
 Group   4 Type H   : 5s2p1d contracted to 3s2p1d pattern {311/11/1}

Atom   0C    basis set group =>   1
Atom   1O    basis set group =>   2
Atom   2C    basis set group =>   1
Atom   3C    basis set group =>   1
Atom   4C    basis set group =>   1
Atom   5C    basis set group =>   1
Atom   6C    basis set group =>   1
Atom   7C    basis set group =>   1
Atom   8N    basis set group =>   3
Atom   9C    basis set group =>   1
Atom  10C    basis set group =>   1
Atom  11C    basis set group =>   1
Atom  12C    basis set group =>   1
Atom  13C    basis set group =>   1
Atom  14N    basis set group =>   3
Atom  15C    basis set group =>   1
Atom  16C    basis set group =>   1
Atom  17O    basis set group =>   2
Atom  18C    basis set group =>   1
Atom  19C    basis set group =>   1
Atom  20O    basis set group =>   2
Atom  21C    basis set group =>   1
Atom  22C    basis set group =>   1
Atom  23O    basis set group =>   2
Atom  24C    basis set group =>   1
Atom  25H    basis set group =>   4
Atom  26H    basis set group =>   4
Atom  27H    basis set group =>   4
Atom  28H    basis set group =>   4
Atom  29H    basis set group =>   4
Atom  30H    basis set group =>   4
Atom  31H    basis set group =>   4
Atom  32H    basis set group =>   4
Atom  33H    basis set group =>   4
Atom  34H    basis set group =>   4
Atom  35H    basis set group =>   4
Atom  36H    basis set group =>   4
Atom  37H    basis set group =>   4
Atom  38H    basis set group =>   4
Atom  39H    basis set group =>   4
Atom  40H    basis set group =>   4
Atom  41H    basis set group =>   4
Atom  42H    basis set group =>   4
---------------------------------
AUXILIARY/J BASIS SET INFORMATION
---------------------------------
There are 4 groups of distinct atoms

 Group   1 Type C   : 10s7p5d2f1g contracted to 10s7p5d2f1g pattern {1111111111/1111111/11111/11/1}
 Group   2 Type O   : 10s7p5d2f1g contracted to 10s7p5d2f1g pattern {1111111111/1111111/11111/11/1}
 Group   3 Type N   : 10s7p5d2f1g contracted to 10s7p5d2f1g pattern {1111111111/1111111/11111/11/1}
 Group   4 Type H   : 4s3p2d1f contracted to 4s3p2d1f pattern {1111/111/11/1}

Atom   0C    basis set group =>   1
Atom   1O    basis set group =>   2
Atom   2C    basis set group =>   1
Atom   3C    basis set group =>   1
Atom   4C    basis set group =>   1
Atom   5C    basis set group =>   1
Atom   6C    basis set group =>   1
Atom   7C    basis set group =>   1
Atom   8N    basis set group =>   3
Atom   9C    basis set group =>   1
Atom  10C    basis set group =>   1
Atom  11C    basis set group =>   1
Atom  12C    basis set group =>   1
Atom  13C    basis set group =>   1
Atom  14N    basis set group =>   3
Atom  15C    basis set group =>   1
Atom  16C    basis set group =>   1
Atom  17O    basis set group =>   2
Atom  18C    basis set group =>   1
Atom  19C    basis set group =>   1
Atom  20O    basis set group =>   2
Atom  21C    basis set group =>   1
Atom  22C    basis set group =>   1
Atom  23O    basis set group =>   2
Atom  24C    basis set group =>   1
Atom  25H    basis set group =>   4
Atom  26H    basis set group =>   4
Atom  27H    basis set group =>   4
Atom  28H    basis set group =>   4
Atom  29H    basis set group =>   4
Atom  30H    basis set group =>   4
Atom  31H    basis set group =>   4
Atom  32H    basis set group =>   4
Atom  33H    basis set group =>   4
Atom  34H    basis set group =>   4
Atom  35H    basis set group =>   4
Atom  36H    basis set group =>   4
Atom  37H    basis set group =>   4
Atom  38H    basis set group =>   4
Atom  39H    basis set group =>   4
Atom  40H    basis set group =>   4
Atom  41H    basis set group =>   4
Atom  42H    basis set group =>   4
---------------------------------
AUXILIARY/C BASIS SET INFORMATION
---------------------------------
There are 4 groups of distinct atoms

 Group   1 Type C   : 9s7p6d4f2g contracted to 9s7p6d4f2g pattern {111111111/1111111/111111/1111/11}
 Group   2 Type O   : 9s7p6d4f2g contracted to 9s7p6d4f2g pattern {111111111/1111111/111111/1111/11}
 Group   3 Type N   : 9s7p6d4f2g contracted to 9s7p6d4f2g pattern {111111111/1111111/111111/1111/11}
 Group   4 Type H   : 4s3p2d1f contracted to 4s3p2d1f pattern {1111/111/11/1}

Atom   0C    basis set group =>   1
Atom   1O    basis set group =>   2
Atom   2C    basis set group =>   1
Atom   3C    basis set group =>   1
Atom   4C    basis set group =>   1
Atom   5C    basis set group =>   1
Atom   6C    basis set group =>   1
Atom   7C    basis set group =>   1
Atom   8N    basis set group =>   3
Atom   9C    basis set group =>   1
Atom  10C    basis set group =>   1
Atom  11C    basis set group =>   1
Atom  12C    basis set group =>   1
Atom  13C    basis set group =>   1
Atom  14N    basis set group =>   3
Atom  15C    basis set group =>   1
Atom  16C    basis set group =>   1
Atom  17O    basis set group =>   2
Atom  18C    basis set group =>   1
Atom  19C    basis set group =>   1
Atom  20O    basis set group =>   2
Atom  21C    basis set group =>   1
Atom  22C    basis set group =>   1
Atom  23O    basis set group =>   2
Atom  24C    basis set group =>   1
Atom  25H    basis set group =>   4
Atom  26H    basis set group =>   4
Atom  27H    basis set group =>   4
Atom  28H    basis set group =>   4
Atom  29H    basis set group =>   4
Atom  30H    basis set group =>   4
Atom  31H    basis set group =>   4
Atom  32H    basis set group =>   4
Atom  33H    basis set group =>   4
Atom  34H    basis set group =>   4
Atom  35H    basis set group =>   4
Atom  36H    basis set group =>   4
Atom  37H    basis set group =>   4
Atom  38H    basis set group =>   4
Atom  39H    basis set group =>   4
Atom  40H    basis set group =>   4
Atom  41H    basis set group =>   4
Atom  42H    basis set group =>   4


           ************************************************************
           *        Program running with 4 parallel MPI-processes     *
           *              working on a common directory               *
           ************************************************************
------------------------------------------------------------------------------
                           ORCA GTO INTEGRAL CALCULATION
                           -- RI-GTO INTEGRALS CHOSEN --
------------------------------------------------------------------------------
------------------------------------------------------------------------------
                   ___                                                        
                  /   \      - P O W E R E D   B Y -                         
                 /     \                                                     
                 |  |  |   _    _      __       _____    __    __             
                 |  |  |  | |  | |    /  \     |  _  \  |  |  /  |          
                  \  \/   | |  | |   /    \    | | | |  |  | /  /          
                 / \  \   | |__| |  /  /\  \   | |_| |  |  |/  /          
                |  |  |   |  __  | /  /__\  \  |    /   |      \           
                |  |  |   | |  | | |   __   |  |    \   |  |\   \          
                \     /   | |  | | |  |  |  |  | |\  \  |  | \   \       
                 \___/    |_|  |_| |__|  |__|  |_| \__\ |__|  \__/        
                                                                              
                      - O R C A' S   B I G   F R I E N D -                    
                                      &                                       
                       - I N T E G R A L  F E E D E R -                       
                                                                              
 v1 FN, 2020, v2 2021                                                         
------------------------------------------------------------------------------


Reading SHARK input file optpbed3-b2plyp-test-276.SHARKINP.tmp ... ok
----------------------
SHARK INTEGRAL PACKAGE
----------------------

Number of atoms                             ...     43
Number of basis functions                   ...   1552
Number of shells                            ...    608
Maximum angular momentum                    ...      3
Integral batch strategy                     ... SHARK/LIBINT Hybrid
RI-J (if used) integral strategy            ... SPLIT-RIJ (Revised 2003 algorithm where possible)
Printlevel                                  ...      1
Contraction scheme used                     ... PARTIAL GENERAL contraction
Coulomb Range Separation                    ... NOT USED
Exchange Range Separation                   ... NOT USED
Finite Nucleus Model                        ... NOT USED
Auxiliary Coulomb fitting basis             ... AVAILABLE
   # of basis functions in Aux-J            ...   2515
   # of shells in Aux-J                     ...    805
   Maximum angular momentum in Aux-J        ...      4
Auxiliary J/K fitting basis                 ... NOT available
Auxiliary Correlation fitting basis         ... AVAILABLE
   # of basis functions in Aux-C            ...   3190
   # of shells in Aux-C                     ...    880
   Maximum angular momentum in Aux-C        ...      4
Auxiliary 'external' fitting basis          ... NOT available
Integral threshold                          ...     2.500000e-11
Primitive cut-off                           ...     2.500000e-12
Primitive pair pre-selection threshold      ...     2.500000e-12

Calculating pre-screening integrals         ... done (  0.4 sec) Dimension = 608
Calculating pre-screening integrals (ORCA)  ... done (  0.8 sec) Dimension = 458
Organizing shell pair data                  ... done (  1.9 sec)
Shell pair information
Total number of shell pairs                 ...    185136
Shell pairs after pre-screening             ...     99231
Total number of primitive shell pairs       ...    241294
Primitive shell pairs kept                  ...    115679
          la=0 lb=0:  22616 shell pairs
          la=1 lb=0:  26022 shell pairs
          la=1 lb=1:   6538 shell pairs
          la=2 lb=0:  16265 shell pairs
          la=2 lb=1:   8373 shell pairs
          la=2 lb=2:   2743 shell pairs
          la=3 lb=0:   8555 shell pairs
          la=3 lb=1:   4453 shell pairs
          la=3 lb=2:   2875 shell pairs
          la=3 lb=3:    791 shell pairs

Calculating one electron integrals          ... done (  0.4 sec)
Calculating RI/J V-Matrix + Cholesky decomp.... done (  0.7 sec)
Calculating RI/C V-Matrix + Cholesky decomp.... done (  0.8 sec)
Calculating Nuclear repulsion               ... done (  0.0 sec) ENN=   1973.999878599274 Eh

SHARK setup successfully completed in   8.6 seconds

Maximum memory used throughout the entire GTOINT-calculation: 168.9 MB


           ************************************************************
           *        Program running with 4 parallel MPI-processes     *
           *              working on a common directory               *
           ************************************************************
-------------------------------------------------------------------------------
                                 ORCA SCF
-------------------------------------------------------------------------------

------------
SCF SETTINGS
------------
Hamiltonian:
 Density Functional     Method          .... DFT(GTOs)
 Exchange Functional    Exchange        .... PBE
   PBE kappa parameter   XKappa         ....  0.804000
   PBE mue parameter    XMuePBE         ....  0.219520
 Correlation Functional Correlation     .... PBE
   PBE beta parameter  CBetaPBE         ....  0.066725
 LDA part of GGA corr.  LDAOpt          .... PW91-LDA
 Gradients option       PostSCFGGA      .... off
 Hybrid DFT is turned on
   Fraction HF Exchange ScalHFX         ....  0.250000
   Scaling of DF-GGA-X  ScalDFX         ....  0.750000
   Scaling of DF-GGA-C  ScalDFC         ....  1.000000
   Scaling of DF-LDA-C  ScalLDAC        ....  1.000000
   Perturbative correction              ....  0.000000
   Density functional embedding theory  .... OFF
   NL short-range parameter             ....  6.900000
 RI-approximation to the Coulomb term is turned on
   Number of AuxJ basis functions       .... 2515
   RIJ-COSX (HFX calculated with COS-X)).... on


General Settings:
 Integral files         IntName         .... optpbed3-b2plyp-test-276
 Hartree-Fock type      HFTyp           .... RHF
 Total Charge           Charge          ....    0
 Multiplicity           Mult            ....    1
 Number of Electrons    NEL             ....  178
 Basis Dimension        Dim             .... 1402
 Nuclear Repulsion      ENuc            ....   1973.9998785993 Eh

Convergence Acceleration:
 DIIS                   CNVDIIS         .... on
   Start iteration      DIISMaxIt       ....    12
   Startup error        DIISStart       ....  0.200000
   # of expansion vecs  DIISMaxEq       ....     5
   Bias factor          DIISBfac        ....   1.050
   Max. coefficient     DIISMaxC        ....  10.000
 Trust-Rad. Augm. Hess. CNVTRAH         .... auto
   Auto Start mean grad. ratio tolernc. ....  1.125000
   Auto Start start iteration           ....    20
   Auto Start num. interpolation iter.  ....    10
   Max. Number of Micro iterations      ....    16
   Max. Number of Macro iterations      .... Maxiter - #DIIS iter
   Number of Davidson start vectors     ....     2
   Converg. threshold I  (grad. norm)   ....   1.000e-05
   Converg. threshold II (energy diff.) ....   1.000e-08
   Grad. Scal. Fac. for Micro threshold ....   0.100
   Minimum threshold for Micro iter.    ....   0.010
   NR start threshold (gradient norm)   ....   0.001
   Initial trust radius                 ....   0.400
   Minimum AH scaling param. (alpha)    ....   1.000
   Maximum AH scaling param. (alpha)    .... 1000.000
   Orbital update algorithm             .... Taylor
   White noise on init. David. guess    .... on
   Maximum white noise                  ....   0.010
   Quad. conv. algorithm                .... NR
 SOSCF                  CNVSOSCF        .... on
   Start iteration      SOSCFMaxIt      ....   150
   Startup grad/error   SOSCFStart      ....  0.003300
 Level Shifting         CNVShift        .... on
   Level shift para.    LevelShift      ....    0.2500
   Turn off err/grad.   ShiftErr        ....    0.0010
 Zerner damping         CNVZerner       .... off
 Static damping         CNVDamp         .... on
   Fraction old density DampFac         ....    0.7000
   Max. Damping (<1)    DampMax         ....    0.9800
   Min. Damping (>=0)   DampMin         ....    0.0000
   Turn off err/grad.   DampErr         ....    0.1000
 Fernandez-Rico         CNVRico         .... off

SCF Procedure:
 Maximum # iterations   MaxIter         ....   125
 SCF integral mode      SCFMode         .... Direct
   Integral package                     .... SHARK and LIBINT hybrid scheme
 Reset frequency        DirectResetFreq ....    20
 Integral Threshold     Thresh          ....  2.500e-11 Eh
 Primitive CutOff       TCut            ....  2.500e-12 Eh

Convergence Tolerance:
 Convergence Check Mode ConvCheckMode   .... Total+1el-Energy
 Convergence forced     ConvForced      .... 0
 Energy Change          TolE            ....  1.000e-08 Eh
 1-El. energy change                    ....  1.000e-05 Eh
 Orbital Gradient       TolG            ....  1.000e-05
 Orbital Rotation angle TolX            ....  1.000e-05
 DIIS Error             TolErr          ....  5.000e-07


Diagonalization of the overlap matrix:
Smallest eigenvalue                        ... 2.406e-07
Time for diagonalization                   ...    0.492 sec
Threshold for overlap eigenvalues          ... 1.000e-08
Number of eigenvalues below threshold      ... 0
Time for construction of square roots      ...    0.316 sec
Total time needed                          ...    0.819 sec

Time for model grid setup =    0.935 sec

------------------------------
INITIAL GUESS: MODEL POTENTIAL
------------------------------
Loading Hartree-Fock densities                     ... done
Calculating cut-offs                               ... done
Initializing the effective Hamiltonian             ... done
Setting up the integral package (SHARK)            ... done
Starting the Coulomb interaction                   ... done (   4.4 sec)
Reading the grid                                   ... done
Mapping shells                                     ... done
Starting the XC term evaluation                    ... done (   2.6 sec)
  promolecular density results
     # of electrons  =    177.983221080
     EX              =   -148.303781811
     EC              =     -6.000528583
     EX+EC           =   -154.304310393
Transforming the Hamiltonian                       ... done (   0.3 sec)
Diagonalizing the Hamiltonian                      ... done (   0.5 sec)
Back transforming the eigenvectors                 ... done (   0.1 sec)
Now organizing SCF variables                       ... done
                      ------------------
                      INITIAL GUESS DONE (   8.9 sec)
                      ------------------
-------------------
DFT GRID GENERATION
-------------------

General Integration Accuracy     IntAcc      ... 4.388
Radial Grid Type                 RadialGrid  ... OptM3 with GC (2021)
Angular Grid (max. ang.)         AngularGrid ... 4 (Lebedev-302)
Angular grid pruning method      GridPruning ... 4 (adaptive)
Weight generation scheme         WeightScheme... Becke
Basis function cutoff            BFCut       ... 1.0000e-11
Integration weight cutoff        WCut        ... 1.0000e-14
Angular grids for H and He will be reduced by one unit
Partially contracted basis set               ... off
Rotationally invariant grid construction     ... off

Total number of grid points                  ...   213699
Total number of batches                      ...     3361
Average number of points per batch           ...       63
Average number of grid points per atom       ...     4970
Time for grid setup =    3.194 sec

--------------------
COSX GRID GENERATION
--------------------

GRIDX 1
-------
General Integration Accuracy     IntAcc      ... 3.816
Radial Grid Type                 RadialGrid  ... OptM3 with GC (2021)
Angular Grid (max. ang.)         AngularGrid ... 1 (Lebedev-50)
Angular grid pruning method      GridPruning ... 4 (adaptive)
Weight generation scheme         WeightScheme... Becke
Basis function cutoff            BFCut       ... 1.0000e-11
Integration weight cutoff        WCut        ... 1.0000e-14
Angular grids for H and He will be reduced by one unit
Partially contracted basis set               ... on
Rotationally invariant grid construction     ... off

Total number of grid points                  ...    27221
Total number of batches                      ...      448
Average number of points per batch           ...       60
Average number of grid points per atom       ...      633
UseSFitting                                  ... on

GRIDX 2
-------
General Integration Accuracy     IntAcc      ... 4.020
Radial Grid Type                 RadialGrid  ... OptM3 with GC (2021)
Angular Grid (max. ang.)         AngularGrid ... 2 (Lebedev-110)
Angular grid pruning method      GridPruning ... 4 (adaptive)
Weight generation scheme         WeightScheme... Becke
Basis function cutoff            BFCut       ... 1.0000e-11
Integration weight cutoff        WCut        ... 1.0000e-14
Angular grids for H and He will be reduced by one unit
Partially contracted basis set               ... on
Rotationally invariant grid construction     ... off

Total number of grid points                  ...    64325
Total number of batches                      ...     1029
Average number of points per batch           ...       62
Average number of grid points per atom       ...     1496
UseSFitting                                  ... on

GRIDX 3
-------
General Integration Accuracy     IntAcc      ... 4.338
Radial Grid Type                 RadialGrid  ... OptM3 with GC (2021)
Angular Grid (max. ang.)         AngularGrid ... 3 (Lebedev-194)
Angular grid pruning method      GridPruning ... 4 (adaptive)
Weight generation scheme         WeightScheme... Becke
Basis function cutoff            BFCut       ... 1.0000e-11
Integration weight cutoff        WCut        ... 1.0000e-14
Angular grids for H and He will be reduced by one unit
Partially contracted basis set               ... on
Rotationally invariant grid construction     ... off

Total number of grid points                  ...   138799
Total number of batches                      ...     2187
Average number of points per batch           ...       63
Average number of grid points per atom       ...     3228
UseSFitting                                  ... on

Time for X-Grid setup             =    8.148 sec


--------------------
CPCM SOLVATION MODEL
--------------------
CPCM parameters:
  Epsilon                                         ...       8.9300
  Refrac                                          ...       1.4242
  Rsolv                                           ...       1.3000
  Surface type                                    ... GAUSSIAN VDW
  Epsilon function type                           ...         CPCM
Solvent:                                     ... DICHLOROMETHANE
SMD-CDS solvent descriptors:
  Soln                                       ...    1.4242
  Soln25                                     ...    1.4212
  Sola                                       ...    0.1000
  Solb                                       ...    0.0500
  Solg                                       ...   39.1500
  Solc                                       ...    0.0000
  Solh                                       ...    0.6670
Radii:
 Radius for C  used is    3.4960 Bohr (=   1.8500 Ang.)
 Radius for O  used is    3.9949 Bohr (=   2.1140 Ang.)
 Radius for N  used is    3.5716 Bohr (=   1.8900 Ang.)
 Radius for H  used is    2.2677 Bohr (=   1.2000 Ang.)
Calculating surface                               ...        done! (  0.0s)
GEPOL surface points                              ...         2353
GEPOL Volume                                      ...    2445.8599
GEPOL Surface-area                                ...    1321.3538
Calculating surface distance matrix               ...        done! (  0.1s)
Performing Cholesky decomposition & store         ...        done! (  0.3s)
Overall time for CPCM initialization              ...                 0.4s
 re-compute Schwartz prescreening matrix in partically contracted basis (1) ...done (   0.300 sec)
--------------
SCF ITERATIONS
--------------
ITER       Energy         Delta-E        Max-DP      RMS-DP      [F,P]     Damp
               ***  Starting incremental Fock matrix formation  ***
  0  -1143.8399769386   0.000000000000 0.32260311  0.00136339  0.2155081 0.7000
  1  -1144.0422623896  -0.202285450964 0.20934528  0.00100914  0.1040152 0.7000
                               ***Turning on DIIS***
  2  -1144.1335828483  -0.091320458643 0.40056363  0.00199475  0.0393839 0.0000
  3  -1144.2744858586  -0.140903010325 0.10936264  0.00054867  0.0474816 0.0000
  4  -1144.3025035977  -0.028017739127 0.01681867  0.00013041  0.0080079 0.0000
  5  -1144.3038726273  -0.001369029620 0.01298844  0.00008485  0.0041957 0.0000
                      *** Initiating the SOSCF procedure ***
                           *** Shutting down DIIS ***
                      *** Re-Reading the Fockian *** 
                      *** Removing any level shift *** 
ITER      Energy       Delta-E        Grad      Rot      Max-DP    RMS-DP
  6  -1144.30398215  -0.0001095201  0.000306  0.000306  0.024299  0.000103
               *** Restarting incremental Fock matrix formation ***
  7  -1144.30399033  -0.0000081858  0.000329  0.001382  0.080257  0.000608
  8  -1144.30398276   0.0000075706  0.000602  0.000929  0.012688  0.000060
  9  -1144.30399647  -0.0000137037  0.000023  0.000126  0.013425  0.000074
 10  -1144.30399637   0.0000000974  0.000029  0.000052  0.007220  0.000040
 11  -1144.30399646  -0.0000000953  0.000003  0.000019  0.050985  0.000232
 12  -1144.30399645   0.0000000122  0.000004  0.000008  0.020019  0.000080
                  ***Gradient check signals convergence***
              ***Rediagonalizing the Fockian in SOSCF/NRSCF***

               *****************************************************
               *                     SUCCESS                       *
               *           SCF CONVERGED AFTER  13 CYCLES          *
               *****************************************************

Old exchange energy                            =    -37.780836395 Eh
New exchange energy                            =    -37.780766461 Eh
Exchange energy change after final integration =      0.000069933 Eh
Total energy after final integration           =  -1144.303926535 Eh
Final COS-X integration done in                =   223.156 sec

SMD CDS free energy correction energy :                -3.90637     Kcal/mol
Total Energy after SMD CDS correction =             -1144.310151731 Eh

----------------
TOTAL SCF ENERGY
----------------

Total Energy       :        -1144.31015173 Eh          -31138.26227 eV

Components:
Nuclear Repulsion  :         1973.99987860 Eh           53715.26753 eV
Electronic Energy  :        -3118.31003033 Eh          -84853.52980 eV
One Electron Energy:        -5478.40638602 Eh         -149075.01659 eV
Two Electron Energy:         2360.09635569 Eh           64221.48680 eV
Max COSX asymmetry :            0.00007753 Eh               0.00211 eV
CPCM Dielectric    :           -0.02587998 Eh              -0.70423 eV
SMD CDS (Gcds)     :           -0.00622520 Eh              -0.16940 eV

Virial components:
Potential Energy   :        -2282.15308146 Eh          -62100.54248 eV
Kinetic Energy     :         1137.84292972 Eh           30962.28021 eV
Virial Ratio       :            2.00568376


DFT components:
N(Alpha)           :       88.999956809164 electrons
N(Beta)            :       88.999956809164 electrons
N(Total)           :      177.999913618328 electrons
E(X)               :     -113.117277724549 Eh       
E(C)               :       -5.998708917225 Eh       
E(XC)              :     -119.115986641773 Eh       
DFET-embed. en.    :        0.000000000000 Eh       
CPCM Solvation Model Properties:
Surface-charge          :           -0.05959207
Charge-correction       :            0.00022153 Eh               0.00603 eV
Free-energy (cav+disp)  :           -0.00622520 Eh              -0.16940 eV

---------------
SCF CONVERGENCE
---------------

  Last Energy change         ...   -1.6387e-08  Tolerance :   1.0000e-08
  Last MAX-Density change    ...    4.2188e-15  Tolerance :   1.0000e-07
  Last RMS-Density change    ...    1.7551e-17  Tolerance :   5.0000e-09
  Last Orbital Gradient      ...    2.1461e-06  Tolerance :   1.0000e-05
[...]
   Done building sigma-vectors             Size of expansion space: 50
   Lowest Energy          :     0.133626389772
   Maximum Energy change  :     0.001115798641 (vector 6)
   Maximum residual norm  :     0.000120326722

                       ****Iteration    9****
              <<< Entering MO-section for Build Sigma(Double) >>>
   Forming the XC and CPCM contribution:
   Time for densities:            0.415
   Time for XC-Integration:      23.059
   Time for LR-CPCM terms:       17.314
   Time for Sigma-Completion:     0.281
   Time for building 10 sigma-vectors
   Data Preparation Phase         ...     0.01 sec
   Transformed RI Coulomb         ...     1.55 sec
   Transformed RI-exchange        ...  1252.26 sec
   (ab|v) reading and digestion   ...  1205.31 sec
   Final sigma-completion         ...     0.01 sec
   Done building sigma-vectors             Size of expansion space: 60
   Lowest Energy          :     0.133626389752
   Maximum Energy change  :     0.000225459889 (vector 6)
   Maximum residual norm  :     0.000024246983

                       ****Iteration   10****
              <<< Entering MO-section for Build Sigma(Double) >>>
   Forming the XC and CPCM contribution:
   Time for densities:            0.418
   Time for XC-Integration:      23.191
   Time for LR-CPCM terms:       17.372
   Time for Sigma-Completion:     0.289
   Time for building 10 sigma-vectors
   Data Preparation Phase         ...     0.01 sec
   Transformed RI Coulomb         ...     1.54 sec
   Transformed RI-exchange        ...  1249.69 sec
   (ab|v) reading and digestion   ...  1203.76 sec
   Final sigma-completion         ...     0.01 sec
   Done building sigma-vectors             Size of expansion space: 70
   Lowest Energy          :     0.133626389751
   Maximum Energy change  :     0.000057559376 (vector 6)
   Maximum residual norm  :     0.000005070873
   Rebuilding the expansion space

                       ****Iteration   11****
              <<< Entering MO-section for Build Sigma(Double) >>>
   Forming the XC and CPCM contribution:
   Time for densities:            0.821
   Time for XC-Integration:      43.694
   Time for LR-CPCM terms:       27.492
   Time for Sigma-Completion:     0.577
   Time for building 20 sigma-vectors
   Data Preparation Phase         ...     0.02 sec
   Transformed RI Coulomb         ...     2.53 sec
   Transformed RI-exchange        ...  2477.05 sec
   (ab|v) reading and digestion   ...  2384.02 sec
   Final sigma-completion         ...     0.02 sec
   Done building sigma-vectors             Size of expansion space: 20
   Lowest Energy          :     0.133626389748
   Maximum Energy change  :     0.000009268882 (vector 6)
   Maximum residual norm  :     0.000001435912

                       ****Iteration   12****
              <<< Entering MO-section for Build Sigma(Double) >>>
   Forming the XC and CPCM contribution:
   Time for densities:            0.408
   Time for XC-Integration:      23.516
   Time for LR-CPCM terms:       17.631
   Time for Sigma-Completion:     0.291
   Time for building 10 sigma-vectors
   Data Preparation Phase         ...     0.01 sec
   Transformed RI Coulomb         ...     1.53 sec
   Transformed RI-exchange        ...  1226.66 sec
   (ab|v) reading and digestion   ...  1180.75 sec
   Final sigma-completion         ...     0.01 sec
   Done building sigma-vectors             Size of expansion space: 30
   Lowest Energy          :     0.133626389748
   Maximum Energy change  :     0.000002771485 (vector 6)
   Maximum residual norm  :     0.000000382252

      *** CONVERGENCE OF RESIDUAL NORM REACHED ***

Storing the converged CI vectors               ... optpbed3-b2plyp-test-276_job2.cis1

                 *** DAVIDSON DONE ***

Total time for solving the CIS problem: 18730.591sec

------------------
DOUBLES CORRECTION (Double precision version)
------------------

The (D) correction will be scaled by  0.2700
Doing v(i,a)*T(i,a) terms (RI)                    ... ok
Doing u(i,j,a,b) terms for state   0              ... ok
Doing u(i,j,a,b) terms for state   1              ... ok
Doing u(i,j,a,b) terms for state   2              ... ok
Doing u(i,j,a,b) terms for state   3              ... ok
Doing u(i,j,a,b) terms for state   4              ... ok
Doing u(i,j,a,b) terms for state   5              ... ok
Doing u(i,j,a,b) terms for state   6              ... ok
Doing u(i,j,a,b) terms for state   7              ... ok
Doing u(i,j,a,b) terms for state   8              ... ok
Doing u(i,j,a,b) terms for state   9              ... ok

Contributions to the (D) correction(s) (in eV)

STATE  Final   Init.   Total   v(ext)   v(int)  v(3)    u
       omega   omega     (D)                             
-----------------------------------------------------------------------------
   0   3.403   3.636  -0.233   0.658   1.021  -0.050  -1.861
   1   3.890   4.543  -0.653   0.639   0.935  -0.037  -2.190
   2   4.488   4.835  -0.347   0.555   1.001  -0.073  -1.830
   3   4.417   5.110  -0.693   0.607   0.976  -0.031  -2.245
   4   4.681   5.210  -0.528   0.580   0.952  -0.031  -2.030
   5   5.140   5.334  -0.194   0.075   1.006  -0.003  -1.272
   6   4.689   5.345  -0.656   0.618   0.729  -0.028  -1.976
   7   5.338   5.577  -0.238   0.048   1.012  -0.003  -1.296
   8   5.185   5.756  -0.572   0.433   0.986  -0.039  -1.952
   9   5.483   5.769  -0.286   0.115   1.016  -0.008  -1.409

(D)-timings
 V(i,a)*T(i,a) terms           ...  1819.133 sec
 U(i,j,a,b) 3-internal         ...    36.901 sec
 U(i,j,a,b) 3-external         ...   795.918 sec
 U(i,j,a,b) pair terms         ...   885.658 sec
 Total measured time           ...  8249.836 sec

 Time for (ab|v) I/O           ...   186.065 sec


------------------------------------
TD-DFT/TDA EXCITED STATES (SINGLETS)
------------------------------------

the weight of the individual excitations are printed if larger than 1.0e-02

STATE  1:  E=   0.125069 au      3.403 eV    27449.6 cm**-1 <S**2> =   0.000000
    86a ->  90a  :     0.019084 (c=  0.13814468)
    88a ->  89a  :     0.931056 (c= -0.96491236)

STATE  2:  E=   0.142962 au      3.890 eV    31376.5 cm**-1 <S**2> =   0.000000
    86a -> 101a  :     0.010917 (c= -0.10448641)
    87a ->  89a  :     0.747019 (c=  0.86430234)
    87a ->  90a  :     0.101263 (c=  0.31821913)
    88a -> 101a  :     0.022784 (c=  0.15094320)
    88a -> 102a  :     0.019078 (c=  0.13812174)

STATE  3:  E=   0.164938 au      4.488 eV    36199.7 cm**-1 <S**2> =   0.000000
    86a ->  89a  :     0.247217 (c= -0.49720887)
    87a ->  90a  :     0.013339 (c= -0.11549352)
    88a ->  90a  :     0.629926 (c=  0.79367875)

STATE  4:  E=   0.162321 au      4.417 eV    35625.2 cm**-1 <S**2> =   0.000000
    85a ->  89a  :     0.052028 (c= -0.22809738)
    85a ->  90a  :     0.030025 (c=  0.17327686)
    86a ->  89a  :     0.506810 (c= -0.71190615)
    86a ->  90a  :     0.054247 (c= -0.23291029)
    86a ->  95a  :     0.018153 (c=  0.13473390)
    87a ->  89a  :     0.021059 (c=  0.14511578)
    88a ->  90a  :     0.177591 (c= -0.42141506)
    88a ->  95a  :     0.053851 (c=  0.23205750)

STATE  5:  E=   0.172040 au      4.681 eV    37758.4 cm**-1 <S**2> =   0.000000
    83a ->  95a  :     0.014857 (c=  0.12189013)
    85a ->  89a  :     0.338852 (c=  0.58211011)
    85a ->  90a  :     0.145722 (c= -0.38173575)
    86a ->  89a  :     0.087661 (c= -0.29607553)
    86a ->  95a  :     0.060917 (c= -0.24681355)
    88a ->  90a  :     0.068330 (c= -0.26140068)
    88a ->  95a  :     0.196132 (c= -0.44286818)

STATE  6:  E=   0.188886 au      5.140 eV    41455.8 cm**-1 <S**2> =   0.000000
    84a ->  89a  :     0.028116 (c= -0.16767838)
    84a ->  90a  :     0.020684 (c=  0.14382091)
    86a ->  92a  :     0.015891 (c=  0.12605901)
    88a ->  91a  :     0.485932 (c= -0.69708795)
    88a ->  93a  :     0.190459 (c=  0.43641665)
    88a ->  94a  :     0.107807 (c= -0.32834011)
    88a ->  98a  :     0.027011 (c= -0.16435063)
    88a -> 100a  :     0.023382 (c= -0.15291271)

STATE  7:  E=   0.172312 au      4.689 eV    37818.2 cm**-1 <S**2> =   0.000000
    84a ->  89a  :     0.484449 (c= -0.69602347)
    84a ->  90a  :     0.356345 (c=  0.59694599)
    84a -> 102a  :     0.010185 (c=  0.10092282)
    84a -> 113a  :     0.014227 (c= -0.11927721)
    88a ->  91a  :     0.028288 (c=  0.16819148)
    88a ->  93a  :     0.011008 (c= -0.10491964)

STATE  8:  E=   0.196179 au      5.338 eV    43056.3 cm**-1 <S**2> =   0.000000
    86a ->  91a  :     0.035797 (c=  0.18920016)
    86a ->  93a  :     0.024083 (c= -0.15518858)
    87a ->  91a  :     0.016090 (c= -0.12684638)
    88a ->  92a  :     0.587758 (c= -0.76665370)
    88a ->  96a  :     0.032713 (c=  0.18086763)
    88a ->  97a  :     0.068169 (c= -0.26109194)
    88a ->  99a  :     0.065105 (c=  0.25515666)
    88a -> 100a  :     0.021874 (c= -0.14789783)
    88a -> 103a  :     0.029824 (c=  0.17269505)

STATE  9:  E=   0.190530 au      5.185 eV    41816.4 cm**-1 <S**2> =   0.000000
    85a ->  89a  :     0.022397 (c=  0.14965646)
    86a ->  89a  :     0.052469 (c=  0.22906070)
    86a ->  90a  :     0.016748 (c= -0.12941355)
    86a -> 101a  :     0.013785 (c=  0.11740844)
    86a -> 102a  :     0.014289 (c=  0.11953768)
    87a ->  89a  :     0.094322 (c=  0.30711949)
    87a ->  90a  :     0.016540 (c= -0.12860729)
    87a -> 113a  :     0.022329 (c= -0.14942785)
    88a ->  91a  :     0.033847 (c=  0.18397647)
    88a ->  93a  :     0.124470 (c=  0.35280264)
    88a ->  95a  :     0.041976 (c=  0.20487977)
    88a ->  98a  :     0.045326 (c=  0.21290003)
    88a -> 101a  :     0.206789 (c= -0.45474034)
    88a -> 102a  :     0.135019 (c= -0.36744972)
    88a -> 107a  :     0.012643 (c= -0.11244212)

STATE 10:  E=   0.201492 au      5.483 eV    44222.4 cm**-1 <S**2> =   0.000000
    85a ->  89a  :     0.010978 (c=  0.10477517)
    87a ->  89a  :     0.013700 (c=  0.11704888)
    88a ->  91a  :     0.215176 (c= -0.46387074)
    88a ->  93a  :     0.434218 (c= -0.65895188)
    88a ->  94a  :     0.020250 (c=  0.14230177)
    88a ->  96a  :     0.024120 (c=  0.15530555)
    88a ->  97a  :     0.020340 (c=  0.14261835)
    88a ->  98a  :     0.010562 (c=  0.10277147)
    88a ->  99a  :     0.026213 (c= -0.16190543)
    88a -> 100a  :     0.056877 (c= -0.23848838)
    88a -> 101a  :     0.032299 (c= -0.17971840)
    88a -> 102a  :     0.022227 (c= -0.14908804)


-----------------------------
TD-DFT/TDA-EXCITATION SPECTRA
-----------------------------

Center of mass = (  0.6090, -0.5314,  0.1104)
Calculating the Dipole integrals                  ... done
Transforming integrals                            ... done
Calculating the Linear Momentum integrals         ... done
Transforming integrals                            ... done
Calculating angular momentum integrals            ... done
Transforming integrals                            ... done

-----------------------------------------------------------------------------
         ABSORPTION SPECTRUM VIA TRANSITION ELECTRIC DIPOLE MOMENTS
-----------------------------------------------------------------------------
State   Energy    Wavelength  fosc         T2        TX        TY        TZ  
        (cm-1)      (nm)                 (au**2)    (au)      (au)      (au) 
-----------------------------------------------------------------------------
   1   27449.6    364.3   1.374588025  16.48591   3.93141  -0.91516   0.43862
   2   31376.5    318.7   0.016372881   0.17179   0.07945  -0.38088  -0.14285
   3   36199.7    276.2   0.303595914   2.76100   0.02450   1.63058   0.31875
   4   35625.2    280.7   0.015857583   0.14654   0.32182  -0.20551  -0.02717
   5   37758.4    264.8   0.006980733   0.06086  -0.10896   0.22033   0.02119
   6   41455.8    241.2   0.002179292   0.01731   0.01010  -0.00885  -0.13087
   7   37818.2    264.4   0.007057913   0.06144  -0.03513  -0.04111   0.24190
   8   43056.3    232.3   0.004820320   0.03686  -0.01723  -0.16260  -0.10060
   9   41816.4    239.1   0.134181476   1.05638   0.24573  -0.96963  -0.23627
  10   44222.4    226.1   0.013499818   0.10050   0.04994  -0.30395  -0.07498

-----------------------------------------------------------------------------
         ABSORPTION SPECTRUM VIA TRANSITION VELOCITY DIPOLE MOMENTS
-----------------------------------------------------------------------------
State   Energy    Wavelength   fosc        P2         PX        PY        PZ  
        (cm-1)      (nm)                 (au**2)     (au)      (au)      (au) 
-----------------------------------------------------------------------------
   1   27449.6    364.3   1.063174743   0.19946  -0.42878   0.10958  -0.05998
   2   31376.5    318.7   0.004753211   0.00102  -0.03185   0.00077   0.00208
   3   36199.7    276.2   0.079903477   0.01977   0.03062  -0.13704  -0.00720
   4   35625.2    280.7   0.009192181   0.00224  -0.04727   0.00026   0.00202
   5   37758.4    264.8   0.000861245   0.00022  -0.00971  -0.01117  -0.00179
   6   41455.8    241.2   0.000863326   0.00024   0.00132  -0.00046   0.01558
   7   37818.2    264.4   0.000009207   0.00000  -0.00098  -0.00109   0.00048
   8   43056.3    232.3   0.001496769   0.00044   0.00501   0.02008  -0.00348
   9   41816.4    239.1   0.062375720   0.01783  -0.07226   0.11124   0.01522
  10   44222.4    226.1   0.007093242   0.00214  -0.02720   0.03645   0.00868

-------------------------------------------------------------------
                             CD SPECTRUM
-------------------------------------------------------------------
State  Energy     Wavelength     R         MX        MY        MZ   
       (cm-1)       (nm)     (1e40*cgs)   (au)      (au)      (au)  
-------------------------------------------------------------------
   1   27449.6    364.3     36.52340  -0.10807  -0.08861   0.96039
   2   31376.5    318.7      1.71789  -0.00724  -0.04688   0.09546
   3   36199.7    276.2    -100.91632  -0.12078  -0.21635   0.44447
   4   35625.2    280.7     -4.23880  -0.08120  -0.13216   0.36880
   5   37758.4    264.8     -0.63540  -0.00779  -0.01360   0.03778
   6   41455.8    241.2     -0.82106   0.07268   0.00842   0.01835
   7   37818.2    264.4     -1.75207   0.16095  -0.29238  -0.04167
   8   43056.3    232.3     -2.61357  -0.10020  -0.00393   0.07863
   9   41816.4    239.1    -18.06095  -0.08717  -0.15173   0.69414
  10   44222.4    226.1     12.50044  -0.03836  -0.16679   0.29695

-------------------------------------------------------------------
         CD SPECTRUM VIA TRANSITION VELOCITY DIPOLE MOMENTS        
-------------------------------------------------------------------
State  Energy     Wavelength     R         MX        MY        MZ   
       (cm-1)       (nm)     (1e40*cgs)   (au)      (au)      (au)  
-------------------------------------------------------------------
   1   27449.6    364.3    -79.06189  -0.10807  -0.08861   0.96039
   2   31376.5    318.7      1.29700  -0.00724  -0.04688   0.09546
   3   36199.7    276.2     65.02891  -0.12078  -0.21635   0.44447
   4   35625.2    280.7     13.20827  -0.08120  -0.13216   0.36880
   5   37758.4    264.8      0.43839  -0.00779  -0.01360   0.03778
   6   41455.8    241.2      0.94281   0.07268   0.00842   0.01835
   7   37818.2    264.4      0.38453   0.16095  -0.29238  -0.04167
   8   43056.3    232.3     -2.05415  -0.10020  -0.00393   0.07863
   9   41816.4    239.1     -0.03004  -0.08717  -0.15173   0.69414
  10   44222.4    226.1     -5.75473  -0.03836  -0.16679   0.29695

Total run time:    26992.574 sec

           *** ORCA-CIS/TD-DFT FINISHED WITHOUT ERROR ***

Maximum memory used throughout the entire CIS-calculation: 2636.9 MB

-----------------------
CIS/TD-DFT TOTAL ENERGY
-----------------------

    E(SCF)  =  -1143.291536435 Eh
    DE(CIS) =      0.125069381 Eh (Root  1)
    ----------------------------- ---------
    E(tot)  =  -1143.166467055 Eh



-------------------------------------------------------------------------------
                          DFT DISPERSION CORRECTION                            
                                                                               
                              DFTD3 V3.1  Rev 1                                
                          USING Becke-Johnson damping                          
-------------------------------------------------------------------------------
The B2PLYP functional is recognized
Active option DFTDOPT                   ...         4   

molecular C6(AA) [au] = 20987.180897 


            DFT-D V3
 parameters
 s6 scaling factor         :     0.6400 
 a1 scaling factor         :     0.3065 
 s8 scaling factor         :     0.9147 
 a2 scaling factor         :     5.0570 
 ad hoc parameters k1-k3   :    16.0000     1.3333    -4.0000 

 Edisp/kcal,au: -25.339819158634  -0.040381567933 
 E6   /kcal   : -14.360535247 
 E8   /kcal   : -10.979283912 
 % E8         :  43.328185742 

-------------------------   ----------------
Dispersion correction           -0.040381568
-------------------------   ----------------


-------------------------   --------------------
FINAL SINGLE POINT ENERGY     -1143.206848622555
-------------------------   --------------------


                            ***************************************
                            *     ORCA property calculations      *
                            ***************************************


  WARNING: The energy has been calculated at the MP2 level but the densities
           used in the property calculations are still SCF densities
           MP2 response densities have not been calculated 
           use %mp2 Density relaxed end
           or  %mp2 Density unrelaxed end

                                    ---------------------
                                    Active property flags
                                    ---------------------
   (+) Dipole Moment


------------------------------------------------------------------------------
                       ORCA ELECTRIC PROPERTIES CALCULATION
------------------------------------------------------------------------------

Dipole Moment Calculation                       ... on
Quadrupole Moment Calculation                   ... off
Polarizability Calculation                      ... off
GBWName                                         ... optpbed3-b2plyp-test-276_job2.gbw
Electron density                                ... optpbed3-b2plyp-test-276_job2.scfp
The origin for moment calculation is the CENTER OF MASS  = ( 0.608958, -0.531368  0.110367)

-------------
DIPOLE MOMENT
-------------
                                X             Y             Z
Electronic contribution:     15.72431     -11.34725       3.64024
Nuclear contribution   :    -16.61081      12.90971      -4.40797
                        -----------------------------------------
Total Dipole Moment    :     -0.88650       1.56246      -0.76774
                        -----------------------------------------
Magnitude (a.u.)       :      1.95360
Magnitude (Debye)      :      4.96567



--------------------
Rotational spectrum 
--------------------
 
Rotational constants in cm-1:     0.016464     0.002481     0.002174 
Rotational constants in MHz :   493.583151    74.370098    65.166899 

 Dipole components along the rotational axes: 
x,y,z [a.u.] :     1.330346    -1.024464     0.998611 
x,y,z [Debye]:     3.381472    -2.603979     2.538268 

 

Timings for individual modules:

Sum of individual times         ...    31369.131 sec (= 522.819 min)
GTO integral calculation        ...        7.732 sec (=   0.129 min)   0.0 %
SCF iterations                  ...     1873.476 sec (=  31.225 min)   6.0 %
MP2 module                      ...     2493.173 sec (=  41.553 min)   7.9 %
CIS module                      ...    26994.750 sec (= 449.913 min)  86.1 %



                             ****ORCA TERMINATED NORMALLY****
TOTAL RUN TIME: 0 days 18 hours 52 minutes 39 seconds 231 msec
