
                                 *****************
                                 * O   R   C   A *
                                 *****************

                                            #,                                       
                                            ###                                      
                                            ####                                     
                                            #####                                    
                                            ######                                   
                                           ########,                                 
                                     ,,################,,,,,                         
                               ,,#################################,,                 
                          ,,##########################################,,             
                       ,#########################################, ''#####,          
                    ,#############################################,,   '####,        
                  ,##################################################,,,,####,       
                ,###########''''           ''''###############################       
              ,#####''   ,,,,##########,,,,          '''####'''          '####       
            ,##' ,,,,###########################,,,                        '##       
           ' ,,###''''                  '''############,,,                           
         ,,##''                                '''############,,,,        ,,,,,,###''
      ,#''                                            '''#######################'''  
     '                                                          ''''####''''         
             ,#######,   #######,   ,#######,      ##                                
            ,#'     '#,  ##    ##  ,#'     '#,    #''#        ######   ,####,        
            ##       ##  ##   ,#'  ##            #'  '#       #        #'  '#        
            ##       ##  #######   ##           ,######,      #####,   #    #        
            '#,     ,#'  ##    ##  '#,     ,#' ,#      #,         ##   #,  ,#        
             '#######'   ##     ##  '#######'  #'      '#     #####' # '####'        



                  #######################################################
                  #                        -***-                        #
                  #          Department of theory and spectroscopy      #
                  #    Directorship and core code : Frank Neese         #
                  #        Max Planck Institute fuer Kohlenforschung    #
                  #                Kaiser Wilhelm Platz 1               #
                  #                 D-45470 Muelheim/Ruhr               #
                  #                      Germany                        #
                  #                                                     #
                  #                  All rights reserved                #
                  #                        -***-                        #
                  #######################################################


                         Program Version 5.0.2 -  RELEASE  -


 With contributions from (in alphabetic order):
   Daniel Aravena         : Magnetic Suceptibility
   Michael Atanasov       : Ab Initio Ligand Field Theory (pilot matlab implementation)
   Alexander A. Auer      : GIAO ZORA, VPT2 properties, NMR spectrum
   Ute Becker             : Parallelization
   Giovanni Bistoni       : ED, misc. LED, open-shell LED, HFLD
   Martin Brehm           : Molecular dynamics
   Dmytro Bykov           : SCF Hessian
   Vijay G. Chilkuri      : MRCI spin determinant printing, contributions to CSF-ICE
   Dipayan Datta          : RHF DLPNO-CCSD density
   Achintya Kumar Dutta   : EOM-CC, STEOM-CC
   Dmitry Ganyushin       : Spin-Orbit,Spin-Spin,Magnetic field MRCI
   Miquel Garcia          : C-PCM and meta-GGA Hessian, CC/C-PCM, Gaussian charge scheme
   Yang Guo               : DLPNO-NEVPT2, F12-NEVPT2, CIM, IAO-localization
   Andreas Hansen         : Spin unrestricted coupled pair/coupled cluster methods
   Benjamin Helmich-Paris : MC-RPA, TRAH-SCF, COSX integrals
   Lee Huntington         : MR-EOM, pCC
   Robert Izsak           : Overlap fitted RIJCOSX, COSX-SCS-MP3, EOM
   Marcus Kettner         : VPT2
   Christian Kollmar      : KDIIS, OOCD, Brueckner-CCSD(T), CCSD density, CASPT2, CASPT2-K
   Simone Kossmann        : Meta GGA functionals, TD-DFT gradient, OOMP2, MP2 Hessian
   Martin Krupicka        : Initial AUTO-CI
   Lucas Lang             : DCDCAS
   Marvin Lechner         : AUTO-CI (C++ implementation), FIC-MRCC
   Dagmar Lenk            : GEPOL surface, SMD
   Dimitrios Liakos       : Extrapolation schemes; Compound Job, initial MDCI parallelization
   Dimitrios Manganas     : Further ROCIS development; embedding schemes
   Dimitrios Pantazis     : SARC Basis sets
   Anastasios Papadopoulos: AUTO-CI, single reference methods and gradients
   Taras Petrenko         : DFT Hessian,TD-DFT gradient, ASA, ECA, R-Raman, ABS, FL, XAS/XES, NRVS
   Peter Pinski           : DLPNO-MP2, DLPNO-MP2 Gradient
   Christoph Reimann      : Effective Core Potentials
   Marius Retegan         : Local ZFS, SOC
   Christoph Riplinger    : Optimizer, TS searches, QM/MM, DLPNO-CCSD(T), (RO)-DLPNO pert. Triples
   Tobias Risthaus        : Range-separated hybrids, TD-DFT gradient, RPA, STAB
   Michael Roemelt        : Original ROCIS implementation
   Masaaki Saitow         : Open-shell DLPNO-CCSD energy and density
   Barbara Sandhoefer     : DKH picture change effects
   Avijit Sen             : IP-ROCIS
   Kantharuban Sivalingam : CASSCF convergence, NEVPT2, FIC-MRCI
   Bernardo de Souza      : ESD, SOC TD-DFT
   Georgi Stoychev        : AutoAux, RI-MP2 NMR, DLPNO-MP2 response
   Willem Van den Heuvel  : Paramagnetic NMR
   Boris Wezisla          : Elementary symmetry handling
   Frank Wennmohs         : Technical directorship


 We gratefully acknowledge several colleagues who have allowed us to
 interface, adapt or use parts of their codes:
   Stefan Grimme, W. Hujo, H. Kruse, P. Pracht,  : VdW corrections, initial TS optimization,
                  C. Bannwarth, S. Ehlert          DFT functionals, gCP, sTDA/sTD-DF
   Ed Valeev, F. Pavosevic, A. Kumar             : LibInt (2-el integral package), F12 methods
   Garnet Chan, S. Sharma, J. Yang, R. Olivares  : DMRG
   Ulf Ekstrom                                   : XCFun DFT Library
   Mihaly Kallay                                 : mrcc  (arbitrary order and MRCC methods)
   Jiri Pittner, Ondrej Demel                    : Mk-CCSD
   Frank Weinhold                                : gennbo (NPA and NBO analysis)
   Christopher J. Cramer and Donald G. Truhlar   : smd solvation model
   Lars Goerigk                                  : TD-DFT with DH, B97 family of functionals
   V. Asgeirsson, H. Jonsson                     : NEB implementation
   FAccTs GmbH                                   : IRC, NEB, NEB-TS, DLPNO-Multilevel, CI-OPT
                                                   MM, QMMM, 2- and 3-layer-ONIOM, Crystal-QMMM,
                                                   LR-CPCM, SF, NACMEs, symmetry and pop. for TD-DFT,
                                                   nearIR, NL-DFT gradient (VV10), updates on ESD,
                                                   ML-optimized integration grids
   S Lehtola, MJT Oliveira, MAL Marques          : LibXC Library
   Liviu Ungur et al                             : ANISO software


 Your calculation uses the libint2 library for the computation of 2-el integrals
 For citations please refer to: http://libint.valeyev.net

 Your ORCA version has been built with support for libXC version: 5.1.0
 For citations please refer to: https://tddft.org/programs/libxc/

 This ORCA versions uses:
   CBLAS   interface :  Fast vector & matrix operations
   LAPACKE interface :  Fast linear algebra routines
   SCALAPACK package :  Parallel linear algebra routines
   Shared memory     :  Shared parallel matrices
   BLAS/LAPACK       :  OpenBLAS 0.3.15  USE64BITINT DYNAMIC_ARCH NO_AFFINITY Sandybridge SINGLE_THREADED
        Core in use  :  Sandybridge
   Copyright (c) 2011-2014, The OpenBLAS Project


Your calculation utilizes the atom-pairwise dispersion correction
with the Becke-Johnson damping scheme (D3BJ)
Cite in your paper:
S.Grimme, S.Ehrlich, L.Goerigk, J Comput Chem, (2011), 32, 1456–1465 
S.Grimme, J.Antony, S.Ehrlich and H.Krieg, J.Chem.Phys., 132, (2010), 154104 
   

Your calculation utilizes the SMD solvation module
Please cite in your paper:
A.V. Marenich, C.J. Cramer, D.G. Truhlar J. Phys. Chem. B, 113, (2009), 6378 

================================================================================

----- Orbital basis set information -----
Your calculation utilizes the basis: aug-cc-pVTZ 
    H, B-Ne : Obtained from the ccRepo (grant-hill.group.shef.ac.uk/ccrepo) Feb. 2017
              R. A. Kendall, T. H. Dunning, Jr., R. J. Harrison, J. Chem. Phys. 96, 6796 (1992)
         He : Obtained from the ccRepo (grant-hill.group.shef.ac.uk/ccrepo) Feb. 2017
              D. E. Woon, T. H. Dunning, Jr., J. Chem. Phys. 100, 2975 (1994)
  Li-Be, Na : Obtained from the ccRepo (grant-hill.group.shef.ac.uk/ccrepo) Feb. 2017
              B. P. Prascher, D. E. Woon, K. A. Peterson, T. H. Dunning, Jr., A. K. Wilson, Theor. Chem. Acc. 128, 69 (2011)
         Mg : Obtained from the Peterson Research Group Website (tyr0.chem.wsu.edu/~kipeters) Feb. 2017
              B. P. Prascher, D. E. Woon, K. A. Peterson, T. H. Dunning, Jr., A. K. Wilson, Theor. Chem. Acc. 128, 69 (2011)
      Al-Ar : Obtained from the ccRepo (grant-hill.group.shef.ac.uk/ccrepo) Feb. 2017
              D. E. Woon, T. H. Dunning, Jr., J. Chem. Phys. 98, 1358 (1993)
      Sc-Zn : Obtained from the ccRepo (grant-hill.group.shef.ac.uk/ccrepo) Feb. 2017
              N. B. Balabanov, K. A. Peterson, J. Chem. Phys. 123, 064107 (2005)
              N. B. Balabanov, K. A. Peterson, J. Chem. Phys. 125, 074110 (2006)
      Ga-Kr : Obtained from the ccRepo (grant-hill.group.shef.ac.uk/ccrepo) Feb. 2017
              A. K. Wilson, D. E. Woon, K. A. Peterson, T. H. Dunning, Jr., J. Chem. Phys. 110, 7667 (1999)
     Ag, Au : Obtained from the Peterson Research Group Website (tyr0.chem.wsu.edu/~kipeters) Feb. 2017
              K. A. Peterson, C. Puzzarini, Theor. Chem. Acc. 114, 283 (2005)

The basis set includes element-specific modifications.

Your calculation utilizes the basis: cc-pVTZ 
       H, B-Ne : Obtained from the ccRepo (grant-hill.group.shef.ac.uk/ccrepo) Feb. 2017
                 T. H. Dunning, Jr., J. Chem. Phys. 90, 1007 (1989)
            He : Obtained from the ccRepo (grant-hill.group.shef.ac.uk/ccrepo) Feb. 2017
                 D. E. Woon, T. H. Dunning, Jr., J. Chem. Phys. 100, 2975 (1994)
  Li-Be, Na-Mg : Obtained from the ccRepo (grant-hill.group.shef.ac.uk/ccrepo) Feb. 2017
                 B. P. Prascher, D. E. Woon, K. A. Peterson, T. H. Dunning, Jr., A. K. Wilson, Theor. Chem. Acc. 128, 69 (2011)
         Al-Ar : Obtained from the ccRepo (grant-hill.group.shef.ac.uk/ccrepo) Feb. 2017
                 D. E. Woon, T. H. Dunning, Jr., J. Chem. Phys. 98, 1358 (1993)
            Ca : Obtained from the Peterson Research Group Website (tyr0.chem.wsu.edu/~kipeters) Feb. 2017
                 J. Koput, K. A. Peterson, J. Phys. Chem. 106, 9595 (2002)
         Sc-Zn : Obtained from the ccRepo (grant-hill.group.shef.ac.uk/ccrepo) Feb. 2017
                 N. B. Balabanov, K. A. Peterson, J. Chem. Phys. 123, 064107 (2005)
                 N. B. Balabanov, K. A. Peterson, J. Chem. Phys. 125, 074110 (2006)
         Ga-Kr : Obtained from the ccRepo (grant-hill.group.shef.ac.uk/ccrepo) Feb. 2017
                 A. K. Wilson, D. E. Woon, K. A. Peterson, T. H. Dunning, Jr., J. Chem. Phys. 110, 7667 (1999)
             Y : Obtained from the ccRepo (grant-hill.group.shef.ac.uk/ccrepo) Feb. 2017
                 K. A. Peterson, D. Figgen, M. Dolg, H. Stoll, J. Chem. Phys. 126, 124101 (2007)
        Ag, Au : Obtained from the Peterson Research Group Website (tyr0.chem.wsu.edu/~kipeters) Feb. 2017
                 K. A. Peterson, C. Puzzarini, Theor. Chem. Acc. 114, 283 (2005)

----- AuxJ basis set information -----
Your calculation utilizes the auxiliary basis: aug-cc-pVTZ/JK 
  H, B-F, Al-Cl, Ga-Br : Obtained from the TURBOMOLE 7.0 basis set library

The basis set includes element-specific modifications.

Your calculation utilizes the auxiliary basis: cc-pVTZ/JK 
  H, B-F, Al-Cl, Ga-Br : Obtained from the TURBOMOLE 7.0 basis set library

----- AuxC basis set information -----
Your calculation utilizes the auxiliary basis: aug-cc-pVTZ/C 
  H-He, B-F, Al-Ar, Ga-Kr : Obtained from the EMSL Basis Set Exchange (bse.pnl.gov) Feb. 2017
                            F. Weigend, A. Kohn, C. Hattig, J. Chem. Phys. 116, 3175 (2002)
                   Be, Mg : Obtained from the TURBOMOLE 7.0 basis set library
                            C. Haettig, Phys. Chem. Chem. Phys. 7, 59 (2005)
                       Ne : Obtained from the EMSL Basis Set Exchange (bse.pnl.gov) Feb. 2017
                            C. Haettig, Phys. Chem. Chem. Phys. 7, 59 (2005)
                            F. Weigend, A. Kohn, C. Hattig, J. Chem. Phys. 116, 3175 (2002)
                    Sc-Zn : Obtained from the EMSL Basis Set Exchange (bse.pnl.gov) Feb. 2017
                            J. G. Hill, J. A. Platts, J. Chem. Phys. 128, 044104 (2008)

The basis set includes element-specific modifications.

Your calculation utilizes the auxiliary basis: cc-pVTZ/C 
  Obtained from the EMSL Basis Set Exchange (bse.pnl.gov) Feb. 2017
  H-He, B-F, Al-Ar, Ga-Kr : F. Weigend, A. Kohn, C. Hattig, J. Chem. Phys. 116, 3175 (2002)
             Li-Be, Na-Mg : C. Haettig, Phys. Chem. Chem. Phys. 7, 59 (2005)
                       Ne : C. Haettig, Phys. Chem. Chem. Phys. 7, 59 (2005)
                            F. Weigend, A. Kohn, C. Hattig, J. Chem. Phys. 116, 3175 (2002)
                    Sc-Zn : J. G. Hill, J. A. Platts, J. Chem. Phys. 128, 044104 (2008)

================================================================================
                                        WARNINGS
                       Please study these warnings very carefully!
================================================================================


WARNING: Geometry Optimization
  ===> : Switching off AutoStart
         For restart on a previous wavefunction, please use MOREAD

INFO   : the flag for use of the SHARK integral package has been found!



***************************************
The coordinates will be read from file: 
***************************************


Your calculation utilizes the atom-pairwise dispersion correction
with the Becke-Johnson damping scheme (D3BJ)
Cite in your paper:
S.Grimme, S.Ehrlich, L.Goerigk, J Comput Chem, (2011), 32, 1456–1465 
S.Grimme, J.Antony, S.Ehrlich and H.Krieg, J.Chem.Phys., 132, (2010), 154104 
   

Your calculation utilizes the SMD solvation module
Please cite in your paper:
A.V. Marenich, C.J. Cramer, D.G. Truhlar J. Phys. Chem. B, 113, (2009), 6378 

================================================================================

----- Orbital basis set information -----
Your calculation utilizes the basis: aug-cc-pVTZ 
    H, B-Ne : Obtained from the ccRepo (grant-hill.group.shef.ac.uk/ccrepo) Feb. 2017
              R. A. Kendall, T. H. Dunning, Jr., R. J. Harrison, J. Chem. Phys. 96, 6796 (1992)
         He : Obtained from the ccRepo (grant-hill.group.shef.ac.uk/ccrepo) Feb. 2017
              D. E. Woon, T. H. Dunning, Jr., J. Chem. Phys. 100, 2975 (1994)
  Li-Be, Na : Obtained from the ccRepo (grant-hill.group.shef.ac.uk/ccrepo) Feb. 2017
              B. P. Prascher, D. E. Woon, K. A. Peterson, T. H. Dunning, Jr., A. K. Wilson, Theor. Chem. Acc. 128, 69 (2011)
         Mg : Obtained from the Peterson Research Group Website (tyr0.chem.wsu.edu/~kipeters) Feb. 2017
              B. P. Prascher, D. E. Woon, K. A. Peterson, T. H. Dunning, Jr., A. K. Wilson, Theor. Chem. Acc. 128, 69 (2011)
      Al-Ar : Obtained from the ccRepo (grant-hill.group.shef.ac.uk/ccrepo) Feb. 2017
              D. E. Woon, T. H. Dunning, Jr., J. Chem. Phys. 98, 1358 (1993)
      Sc-Zn : Obtained from the ccRepo (grant-hill.group.shef.ac.uk/ccrepo) Feb. 2017
              N. B. Balabanov, K. A. Peterson, J. Chem. Phys. 123, 064107 (2005)
              N. B. Balabanov, K. A. Peterson, J. Chem. Phys. 125, 074110 (2006)
      Ga-Kr : Obtained from the ccRepo (grant-hill.group.shef.ac.uk/ccrepo) Feb. 2017
              A. K. Wilson, D. E. Woon, K. A. Peterson, T. H. Dunning, Jr., J. Chem. Phys. 110, 7667 (1999)
     Ag, Au : Obtained from the Peterson Research Group Website (tyr0.chem.wsu.edu/~kipeters) Feb. 2017
              K. A. Peterson, C. Puzzarini, Theor. Chem. Acc. 114, 283 (2005)

The basis set includes element-specific modifications.

Your calculation utilizes the basis: cc-pVTZ 
       H, B-Ne : Obtained from the ccRepo (grant-hill.group.shef.ac.uk/ccrepo) Feb. 2017
                 T. H. Dunning, Jr., J. Chem. Phys. 90, 1007 (1989)
            He : Obtained from the ccRepo (grant-hill.group.shef.ac.uk/ccrepo) Feb. 2017
                 D. E. Woon, T. H. Dunning, Jr., J. Chem. Phys. 100, 2975 (1994)
  Li-Be, Na-Mg : Obtained from the ccRepo (grant-hill.group.shef.ac.uk/ccrepo) Feb. 2017
                 B. P. Prascher, D. E. Woon, K. A. Peterson, T. H. Dunning, Jr., A. K. Wilson, Theor. Chem. Acc. 128, 69 (2011)
         Al-Ar : Obtained from the ccRepo (grant-hill.group.shef.ac.uk/ccrepo) Feb. 2017
                 D. E. Woon, T. H. Dunning, Jr., J. Chem. Phys. 98, 1358 (1993)
            Ca : Obtained from the Peterson Research Group Website (tyr0.chem.wsu.edu/~kipeters) Feb. 2017
                 J. Koput, K. A. Peterson, J. Phys. Chem. 106, 9595 (2002)
         Sc-Zn : Obtained from the ccRepo (grant-hill.group.shef.ac.uk/ccrepo) Feb. 2017
                 N. B. Balabanov, K. A. Peterson, J. Chem. Phys. 123, 064107 (2005)
                 N. B. Balabanov, K. A. Peterson, J. Chem. Phys. 125, 074110 (2006)
         Ga-Kr : Obtained from the ccRepo (grant-hill.group.shef.ac.uk/ccrepo) Feb. 2017
                 A. K. Wilson, D. E. Woon, K. A. Peterson, T. H. Dunning, Jr., J. Chem. Phys. 110, 7667 (1999)
             Y : Obtained from the ccRepo (grant-hill.group.shef.ac.uk/ccrepo) Feb. 2017
                 K. A. Peterson, D. Figgen, M. Dolg, H. Stoll, J. Chem. Phys. 126, 124101 (2007)
        Ag, Au : Obtained from the Peterson Research Group Website (tyr0.chem.wsu.edu/~kipeters) Feb. 2017
                 K. A. Peterson, C. Puzzarini, Theor. Chem. Acc. 114, 283 (2005)

----- AuxJ basis set information -----
Your calculation utilizes the auxiliary basis: aug-cc-pVTZ/JK 
  H, B-F, Al-Cl, Ga-Br : Obtained from the TURBOMOLE 7.0 basis set library

The basis set includes element-specific modifications.

Your calculation utilizes the auxiliary basis: cc-pVTZ/JK 
  H, B-F, Al-Cl, Ga-Br : Obtained from the TURBOMOLE 7.0 basis set library

----- AuxC basis set information -----
Your calculation utilizes the auxiliary basis: aug-cc-pVTZ/C 
  H-He, B-F, Al-Ar, Ga-Kr : Obtained from the EMSL Basis Set Exchange (bse.pnl.gov) Feb. 2017
                            F. Weigend, A. Kohn, C. Hattig, J. Chem. Phys. 116, 3175 (2002)
                   Be, Mg : Obtained from the TURBOMOLE 7.0 basis set library
                            C. Haettig, Phys. Chem. Chem. Phys. 7, 59 (2005)
                       Ne : Obtained from the EMSL Basis Set Exchange (bse.pnl.gov) Feb. 2017
                            C. Haettig, Phys. Chem. Chem. Phys. 7, 59 (2005)
                            F. Weigend, A. Kohn, C. Hattig, J. Chem. Phys. 116, 3175 (2002)
                    Sc-Zn : Obtained from the EMSL Basis Set Exchange (bse.pnl.gov) Feb. 2017
                            J. G. Hill, J. A. Platts, J. Chem. Phys. 128, 044104 (2008)

The basis set includes element-specific modifications.

Your calculation utilizes the auxiliary basis: cc-pVTZ/C 
  Obtained from the EMSL Basis Set Exchange (bse.pnl.gov) Feb. 2017
  H-He, B-F, Al-Ar, Ga-Kr : F. Weigend, A. Kohn, C. Hattig, J. Chem. Phys. 116, 3175 (2002)
             Li-Be, Na-Mg : C. Haettig, Phys. Chem. Chem. Phys. 7, 59 (2005)
                       Ne : C. Haettig, Phys. Chem. Chem. Phys. 7, 59 (2005)
                            F. Weigend, A. Kohn, C. Hattig, J. Chem. Phys. 116, 3175 (2002)
                    Sc-Zn : J. G. Hill, J. A. Platts, J. Chem. Phys. 128, 044104 (2008)

================================================================================
                                        WARNINGS
                       Please study these warnings very carefully!
================================================================================

INFO   : Checking CIS options ...
  ===> : (D) CORRECTION FOUND - SETTING MODE=3
  ===> : JK MODE FOUND - ACTIVATING RI-MP2 CODE
  ===> : MP2 AND CIS FOUND - CHECKING
WARNING: CIS(D) and MP2 runs must have the same orbital window
  ===> : adjusting orbital windows

WARNING: No MP2 level density has been requested!
         To caclulate MP2 level properties use
         %mp2 Density relaxed end
         or
         %mp2 Density unrelaxed end
         Otherwise for double-hybrid DFT only the energy is correct!

WARNING: The frozen-core approximation is turned on by default for 
         the MP2 part of double-hybrid DFT.

INFO   : the flag for use of the SHARK integral package has been found!

================================================================================
                                       INPUT FILE
================================================================================
NAME = optpbed3-b2plyp-test-167.inp
|  1> ! pbe0 d3bj aug-cc-PVTZ RIJCOSX Opt
|  2> %maxcore 4000
|  3> %basis
|  4>  AuxJ "aug-cc-PVTZ/JK"
|  5>  AuxC "aug-cc-PVTZ/C"
|  6>  newGTO H "cc-PVTZ" end
|  7>  newAuxJGTO H "cc-PVTZ/JK" end
|  8>  newAuxCGTO H "cc-PVTZ/C" end
|  9> end
| 10> %cpcm
| 11>  SMD true
| 12>  SMDsolvent "n-hexane"
| 13> end
| 14> %pal nprocs 4 end
| 15> * xyz 0 1
| 16> C         -2.27790        1.26930       -0.28090
| 17> N         -1.57150        0.07320        0.10600
| 18> C         -2.32770       -1.05760        0.58460
| 19> C         -0.21130        0.01010        0.01480
| 20> C          0.49890       -1.12150        0.45560
| 21> C          1.86910       -1.18450        0.36430
| 22> C          2.59680       -0.11950       -0.17130
| 23> C          3.99930       -0.18390       -0.26400
| 24> N          5.14420       -0.23590       -0.34020
| 25> C          1.90560        1.01080       -0.61320
| 26> C          0.53540        1.07420       -0.52310
| 27> H         -3.33270        1.16200       -0.04070
| 28> H         -2.18960        1.45690       -1.35630
| 29> H         -1.89630        2.14080        0.25850
| 30> H         -2.11330       -1.26530        1.63820
| 31> H         -2.10480       -1.95420       -0.00080
| 32> H         -3.39060       -0.85050        0.48920
| 33> H         -0.02380       -1.96190        0.88120
| 34> H          2.39250       -2.06390        0.71100
| 35> H          2.45720        1.84050       -1.03130
| 36> H          0.04050        1.96130       -0.88180
| 37> *
| 38> 
| 39> 
| 40> $new_job
| 41> ! b2plyp aug-cc-PVTZ RIJCOSX SP
| 42> %maxcore 4000
| 43> %basis
| 44>  AuxJ "aug-cc-PVTZ/JK"
| 45>  AuxC "aug-cc-PVTZ/C"
| 46>  newGTO H "cc-PVTZ" end
| 47>  newAuxJGTO H "cc-PVTZ/JK" end
| 48>  newAuxCGTO H "cc-PVTZ/C" end
| 49> end
| 50> %cpcm
| 51>  SMD true
| 52>  SMDsolvent "n-hexane"
| 53> end
| 54> %pal nprocs 4 end
| 55> %tddft
| 56>  nroots 10
| 57>  maxdim 7
| 58> end
| 59> * xyzfile 0 1
| 60> 
| 61>                          ****END OF INPUT****
================================================================================


                 $$$$$$$$$$$$$$$$$$$$$$$$$$$$$$$$$$$$$$$$$$$$$$ 
                 $ THERE ARE  2 JOBS TO BE PROCESSED THIS RUN $
                 $$$$$$$$$$$$$$$$$$$$$$$$$$$$$$$$$$$$$$$$$$$$$$ 




                 $$$$$$$$$$$$$$$$  JOB NUMBER  1 $$$$$$$$$$$$$$


                       *****************************
                       * Geometry Optimization Run *
                       *****************************

Geometry optimization settings:
Update method            Update   .... BFGS
Choice of coordinates    CoordSys .... Z-matrix Internals
Initial Hessian          InHess   .... Almoef's Model

Convergence Tolerances:
Energy Change            TolE     ....  5.0000e-06 Eh
Max. Gradient            TolMAXG  ....  3.0000e-04 Eh/bohr
RMS Gradient             TolRMSG  ....  1.0000e-04 Eh/bohr
Max. Displacement        TolMAXD  ....  4.0000e-03 bohr
RMS Displacement         TolRMSD  ....  2.0000e-03 bohr
Strict Convergence                ....  False
------------------------------------------------------------------------------
                        ORCA OPTIMIZATION COORDINATE SETUP
------------------------------------------------------------------------------

The optimization will be done in new redundant internal coordinates
Making redundant internal coordinates   ...  (new redundants) done
Evaluating the initial hessian          ...  (Almloef) done
Evaluating the coordinates              ...  done
Calculating the B-matrix                .... done
Calculating the G-matrix                .... done
Diagonalizing the G-matrix              .... done
Small eigenvalue found = 1.531e-02
The first mode is                       ....   39
The number of degrees of freedom        ....   57

    -----------------------------------------------------------------
                    Redundant Internal Coordinates


    -----------------------------------------------------------------
         Definition                    Initial Value    Approx d2E/dq
    -----------------------------------------------------------------
      1. B(N   1,C   0)                  1.4420         0.462298   
      2. B(C   2,N   1)                  1.4421         0.462146   
      3. B(C   3,N   1)                  1.3647         0.614071   
      4. B(C   4,C   3)                  1.4068         0.587309   
      5. B(C   5,C   4)                  1.3747         0.660962   
      6. B(C   6,C   5)                  1.3967         0.609711   
      7. B(C   7,C   6)                  1.4070         0.586895   
      8. B(N   8,C   7)                  1.1486         1.358303   
      9. B(C   9,C   6)                  1.3966         0.609734   
     10. B(C  10,C   9)                  1.3746         0.661109   
     11. B(C  10,C   3)                  1.4068         0.587310   
     12. B(H  11,C   0)                  1.0871         0.363941   
     13. B(H  12,C   0)                  1.0952         0.353279   
     14. B(H  13,C   0)                  1.0937         0.355296   
     15. B(H  14,C   2)                  1.0951         0.353454   
     16. B(H  15,C   2)                  1.0937         0.355185   
     17. B(H  16,C   2)                  1.0871         0.363980   
     18. B(H  17,C   4)                  1.0773         0.377268   
     19. B(H  18,C   5)                  1.0805         0.372881   
     20. B(H  19,C   9)                  1.0805         0.372894   
     21. B(H  20,C  10)                  1.0773         0.377322   
     22. A(H  11,C   0,H  13)          107.9524         0.290711   
     23. A(N   1,C   0,H  13)          110.9604         0.333171   
     24. A(N   1,C   0,H  12)          111.4718         0.332857   
     25. A(N   1,C   0,H  11)          109.5216         0.334503   
     26. A(H  12,C   0,H  13)          108.6424         0.289358   
     27. A(H  11,C   0,H  12)          108.1853         0.290451   
     28. A(C   2,N   1,C   3)          120.5685         0.405882   
     29. A(C   0,N   1,C   3)          120.5759         0.405905   
     30. A(C   0,N   1,C   2)          118.8549         0.386160   
     31. A(N   1,C   2,H  15)          110.9963         0.333136   
     32. A(H  14,C   2,H  16)          108.1798         0.290478   
     33. A(H  15,C   2,H  16)          107.9667         0.290701   
     34. A(H  14,C   2,H  15)          108.6373         0.289366   
     35. A(N   1,C   2,H  16)          109.5241         0.334491   
     36. A(N   1,C   2,H  14)          111.4305         0.332866   
     37. A(C   4,C   3,C  10)          117.4034         0.425708   
     38. A(N   1,C   3,C  10)          121.3045         0.426322   
     39. A(N   1,C   3,C   4)          121.2921         0.426322   
     40. A(C   3,C   4,H  17)          120.4185         0.352456   
     41. A(C   5,C   4,H  17)          118.3001         0.359596   
     42. A(C   3,C   4,C   5)          121.2803         0.434833   
     43. A(C   4,C   5,H  18)          119.9214         0.358880   
     44. A(C   6,C   5,H  18)          119.4243         0.353995   
     45. A(C   4,C   5,C   6)          120.6542         0.437775   
     46. A(C   5,C   6,C   7)          120.6449         0.428518   
     47. A(C   7,C   6,C   9)          120.6307         0.428521   
     48. A(C   5,C   6,C   9)          118.7244         0.431465   
     49. L(C   6,C   7,N   8,C   9, 2) 180.0251         0.492656   
     50. L(C   6,C   7,N   8,C   9, 1) 179.9633         0.492656   
     51. A(C   6,C   9,C  10)          120.6569         0.437796   
     52. A(C  10,C   9,H  19)          119.9213         0.358896   
     53. A(C   6,C   9,H  19)          119.4216         0.353999   
     54. A(C   3,C  10,C   9)          121.2807         0.434850   
     55. A(C   9,C  10,H  20)          118.2991         0.359618   
     56. A(C   3,C  10,H  20)          120.4192         0.352464   
     57. D(C   3,N   1,C   0,H  13)    -55.1059         0.018247   
     58. D(C   3,N   1,C   0,H  12)     66.1271         0.018247   
     59. D(C   2,N   1,C   0,H  12)   -113.5629         0.018247   
     60. D(C   2,N   1,C   0,H  11)      6.1252         0.018247   
     61. D(C   2,N   1,C   0,H  13)    125.2042         0.018247   
     62. D(C   3,N   1,C   0,H  11)   -174.1849         0.018247   
     63. D(H  14,C   2,N   1,C   0)   -114.2657         0.018235   
     64. D(H  16,C   2,N   1,C   0)      5.3910         0.018235   
     65. D(H  16,C   2,N   1,C   3)   -174.2990         0.018235   
     66. D(H  15,C   2,N   1,C   0)    124.5114         0.018235   
     67. D(H  15,C   2,N   1,C   3)    -55.1786         0.018235   
     68. D(H  14,C   2,N   1,C   3)     66.0443         0.018235   
     69. D(C  10,C   3,N   1,C   0)     -3.4603         0.030489   
     70. D(C   4,C   3,N   1,C   2)     -3.8027         0.030489   
     71. D(C   4,C   3,N   1,C   0)    176.5127         0.030489   
     72. D(C  10,C   3,N   1,C   2)    176.2243         0.030489   
     73. D(H  17,C   4,C   3,C  10)    179.6277         0.023726   
     74. D(H  17,C   4,C   3,N   1)     -0.3463         0.023726   
     75. D(C   5,C   4,C   3,C  10)      0.0105         0.023726   
     76. D(C   5,C   4,C   3,N   1)   -179.9635         0.023726   
     77. D(H  18,C   5,C   4,H  17)      0.2825         0.030491   
     78. D(H  18,C   5,C   4,C   3)    179.9076         0.030491   
     79. D(C   6,C   5,C   4,H  17)   -179.5906         0.030491   
     80. D(C   6,C   5,C   4,C   3)      0.0345         0.030491   
     81. D(C   9,C   6,C   5,H  18)   -179.9085         0.025673   
     82. D(C   9,C   6,C   5,C   4)     -0.0349         0.025673   
     83. D(C   7,C   6,C   5,H  18)      0.0923         0.025673   
     84. D(C   7,C   6,C   5,C   4)    179.9659         0.025673   
     85. D(H  19,C   9,C   6,C   5)   -179.8802         0.025675   
     86. D(C  10,C   9,C   6,C   7)    179.9889         0.025675   
     87. D(C  10,C   9,C   6,C   5)     -0.0103         0.025675   
     88. D(H  19,C   9,C   6,C   7)      0.1190         0.025675   
     89. D(H  20,C  10,C   9,H  19)      0.2973         0.030506   
     90. D(C   3,C  10,C   9,H  19)    179.9258         0.030506   
     91. D(C   3,C  10,C   9,C   6)      0.0565         0.030506   
     92. D(H  20,C  10,C   3,C   4)    179.5648         0.023727   
     93. D(H  20,C  10,C   3,N   1)     -0.4612         0.023727   
     94. D(H  20,C  10,C   9,C   6)   -179.5720         0.030506   
     95. D(C   9,C  10,C   3,C   4)     -0.0559         0.023727   
     96. D(C   9,C  10,C   3,N   1)    179.9181         0.023727   
    -----------------------------------------------------------------

Number of atoms                         .... 21
Number of degrees of freedom            .... 96

         *************************************************************
         *                GEOMETRY OPTIMIZATION CYCLE   1            *
         *************************************************************
---------------------------------
CARTESIAN COORDINATES (ANGSTROEM)
---------------------------------
  C     -2.277900    1.269300   -0.280900
  N     -1.571500    0.073200    0.106000
  C     -2.327700   -1.057600    0.584600
  C     -0.211300    0.010100    0.014800
  C      0.498900   -1.121500    0.455600
  C      1.869100   -1.184500    0.364300
  C      2.596800   -0.119500   -0.171300
  C      3.999300   -0.183900   -0.264000
  N      5.144200   -0.235900   -0.340200
  C      1.905600    1.010800   -0.613200
  C      0.535400    1.074200   -0.523100
  H     -3.332700    1.162000   -0.040700
  H     -2.189600    1.456900   -1.356300
  H     -1.896300    2.140800    0.258500
  H     -2.113300   -1.265300    1.638200
  H     -2.104800   -1.954200   -0.000800
  H     -3.390600   -0.850500    0.489200
  H     -0.023800   -1.961900    0.881200
  H      2.392500   -2.063900    0.711000
  H      2.457200    1.840500   -1.031300
  H      0.040500    1.961300   -0.881800

----------------------------
CARTESIAN COORDINATES (A.U.)
----------------------------
  NO LB      ZA    FRAG     MASS         X           Y           Z
   0 C     6.0000    0    12.011   -4.304607    2.398629   -0.530824
   1 N     7.0000    0    14.007   -2.969705    0.138328    0.200311
   2 C     6.0000    0    12.011   -4.398716   -1.998574    1.104734
   3 C     6.0000    0    12.011   -0.399299    0.019086    0.027968
   4 C     6.0000    0    12.011    0.942784   -2.119328    0.860959
   5 C     6.0000    0    12.011    3.532087   -2.238381    0.688427
   6 C     6.0000    0    12.011    4.907241   -0.225822   -0.323710
   7 C     6.0000    0    12.011    7.557582   -0.347521   -0.498888
   8 N     7.0000    0    14.007    9.721129   -0.445786   -0.642885
   9 C     6.0000    0    12.011    3.601062    1.910135   -1.158780
  10 C     6.0000    0    12.011    1.011759    2.029944   -0.988516
  11 H     1.0000    0     1.008   -6.297890    2.195862   -0.076912
  12 H     1.0000    0     1.008   -4.137744    2.753142   -2.563036
  13 H     1.0000    0     1.008   -3.583488    4.045526    0.488494
  14 H     1.0000    0     1.008   -3.993558   -2.391070    3.095749
  15 H     1.0000    0     1.008   -3.977496   -3.692903   -0.001512
  16 H     1.0000    0     1.008   -6.407305   -1.607212    0.924454
  17 H     1.0000    0     1.008   -0.044975   -3.707454    1.665227
  18 H     1.0000    0     1.008    4.521170   -3.900206    1.343595
  19 H     1.0000    0     1.008    4.643435    3.478041   -1.948875
  20 H     1.0000    0     1.008    0.076534    3.706320   -1.666361

--------------------------------
INTERNAL COORDINATES (ANGSTROEM)
--------------------------------
 C      0   0   0     0.000000000000     0.00000000     0.00000000
 N      1   0   0     1.441994375856     0.00000000     0.00000000
 C      2   1   0     1.442083575941   118.85488549     0.00000000
 C      2   1   3     1.364713556026   120.57587146   179.68996555
 C      4   2   1     1.406843004745   121.29206177   176.51271300
 C      5   4   2     1.374682774316   121.28027836   180.03647745
 C      6   5   4     1.396653017038   120.65421496     0.03452130
 C      7   6   5     1.407034789904   120.64492750   179.96592724
 N      8   7   6     1.148610660755   179.96124345   161.34556790
 C      7   6   5     1.396642810457   118.72440655   359.96512754
 C     10   7   6     1.374621988039   120.65694484     0.00000000
 H      1   2   3     1.087111939958   109.52160123     6.12515801
 H      1   2   3     1.095205829970   111.47181888   246.43711559
 H      1   2   3     1.093655873664   110.96040623   125.20415870
 H      3   2   1     1.095070595898   111.43053537   245.73433720
 H      3   2   1     1.093740887962   110.99627865   124.51138636
 H      3   2   1     1.087082324389   109.52407982     5.39099587
 H      5   4   2     1.077322054912   120.41854904   359.65368196
 H      6   5   4     1.080505812108   119.92140716   179.90755180
 H     10   7   6     1.080496302631   119.42159770   180.11980515
 H     11  10   7     1.077282743759   118.29906058   180.42798842

---------------------------
INTERNAL COORDINATES (A.U.)
---------------------------
 C      0   0   0     0.000000000000     0.00000000     0.00000000
 N      1   0   0     2.724974457022     0.00000000     0.00000000
 C      2   1   0     2.725143020755   118.85488549     0.00000000
 C      2   1   3     2.578934872138   120.57587146   179.68996555
 C      4   2   1     2.658547992391   121.29206177   176.51271300
 C      5   4   2     2.597773964476   121.28027836   180.03647745
 C      6   5   4     2.639291706316   120.65421496     0.03452130
 C      7   6   5     2.658910413818   120.64492750   179.96592724
 N      8   7   6     2.170559583329   179.96124345   161.34556790
 C      7   6   5     2.639272418673   118.72440655   359.96512754
 C     10   7   6     2.597659095060   120.65694484     0.00000000
 H      1   2   3     2.054343843437   109.52160123     6.12515801
 H      1   2   3     2.069639078917   111.47181888   246.43711559
 H      1   2   3     2.066710085980   110.96040623   125.20415870
 H      3   2   1     2.069383523557   111.43053537   245.73433720
 H      3   2   1     2.066870739720   110.99627865   124.51138636
 H      3   2   1     2.054287878123   109.52407982     5.39099587
 H      5   4   2     2.035843641817   120.41854904   359.65368196
 H      6   5   4     2.041860070995   119.92140716   179.90755180
 H     10   7   6     2.041842100688   119.42159770   180.11980515
 H     11  10   7     2.035769354503   118.29906058   180.42798842

---------------------
BASIS SET INFORMATION
---------------------
There are 3 groups of distinct atoms

 Group   1 Type C   : 19s6p3d2f contracted to 5s4p3d2f pattern {88111/3111/111/11}
 Group   2 Type N   : 19s6p3d2f contracted to 5s4p3d2f pattern {88111/3111/111/11}
 Group   3 Type H   : 5s2p1d contracted to 3s2p1d pattern {311/11/1}

Atom   0C    basis set group =>   1
Atom   1N    basis set group =>   2
Atom   2C    basis set group =>   1
Atom   3C    basis set group =>   1
Atom   4C    basis set group =>   1
Atom   5C    basis set group =>   1
Atom   6C    basis set group =>   1
Atom   7C    basis set group =>   1
Atom   8N    basis set group =>   2
Atom   9C    basis set group =>   1
Atom  10C    basis set group =>   1
Atom  11H    basis set group =>   3
Atom  12H    basis set group =>   3
Atom  13H    basis set group =>   3
Atom  14H    basis set group =>   3
Atom  15H    basis set group =>   3
Atom  16H    basis set group =>   3
Atom  17H    basis set group =>   3
Atom  18H    basis set group =>   3
Atom  19H    basis set group =>   3
Atom  20H    basis set group =>   3
---------------------------------
AUXILIARY/J BASIS SET INFORMATION
---------------------------------
There are 3 groups of distinct atoms

 Group   1 Type C   : 10s7p5d2f1g contracted to 10s7p5d2f1g pattern {1111111111/1111111/11111/11/1}
 Group   2 Type N   : 10s7p5d2f1g contracted to 10s7p5d2f1g pattern {1111111111/1111111/11111/11/1}
 Group   3 Type H   : 4s3p2d1f contracted to 4s3p2d1f pattern {1111/111/11/1}

Atom   0C    basis set group =>   1
Atom   1N    basis set group =>   2
Atom   2C    basis set group =>   1
Atom   3C    basis set group =>   1
Atom   4C    basis set group =>   1
Atom   5C    basis set group =>   1
Atom   6C    basis set group =>   1
Atom   7C    basis set group =>   1
Atom   8N    basis set group =>   2
Atom   9C    basis set group =>   1
Atom  10C    basis set group =>   1
Atom  11H    basis set group =>   3
Atom  12H    basis set group =>   3
Atom  13H    basis set group =>   3
Atom  14H    basis set group =>   3
Atom  15H    basis set group =>   3
Atom  16H    basis set group =>   3
Atom  17H    basis set group =>   3
Atom  18H    basis set group =>   3
Atom  19H    basis set group =>   3
Atom  20H    basis set group =>   3
---------------------------------
AUXILIARY/C BASIS SET INFORMATION
---------------------------------
There are 3 groups of distinct atoms

 Group   1 Type C   : 9s7p6d4f2g contracted to 9s7p6d4f2g pattern {111111111/1111111/111111/1111/11}
 Group   2 Type N   : 9s7p6d4f2g contracted to 9s7p6d4f2g pattern {111111111/1111111/111111/1111/11}
 Group   3 Type H   : 4s3p2d1f contracted to 4s3p2d1f pattern {1111/111/11/1}

Atom   0C    basis set group =>   1
Atom   1N    basis set group =>   2
Atom   2C    basis set group =>   1
Atom   3C    basis set group =>   1
Atom   4C    basis set group =>   1
Atom   5C    basis set group =>   1
Atom   6C    basis set group =>   1
Atom   7C    basis set group =>   1
Atom   8N    basis set group =>   2
Atom   9C    basis set group =>   1
Atom  10C    basis set group =>   1
Atom  11H    basis set group =>   3
Atom  12H    basis set group =>   3
Atom  13H    basis set group =>   3
Atom  14H    basis set group =>   3
Atom  15H    basis set group =>   3
Atom  16H    basis set group =>   3
Atom  17H    basis set group =>   3
Atom  18H    basis set group =>   3
Atom  19H    basis set group =>   3
Atom  20H    basis set group =>   3


           ************************************************************
           *        Program running with 4 parallel MPI-processes     *
           *              working on a common directory               *
           ************************************************************
------------------------------------------------------------------------------
                           ORCA GTO INTEGRAL CALCULATION
                           -- RI-GTO INTEGRALS CHOSEN --
------------------------------------------------------------------------------
------------------------------------------------------------------------------
                   ___                                                        
                  /   \      - P O W E R E D   B Y -                         
                 /     \                                                     
                 |  |  |   _    _      __       _____    __    __             
                 |  |  |  | |  | |    /  \     |  _  \  |  |  /  |          
                  \  \/   | |  | |   /    \    | | | |  |  | /  /          
                 / \  \   | |__| |  /  /\  \   | |_| |  |  |/  /          
                |  |  |   |  __  | /  /__\  \  |    /   |      \           
                |  |  |   | |  | | |   __   |  |    \   |  |\   \          
                \     /   | |  | | |  |  |  |  | |\  \  |  | \   \       
                 \___/    |_|  |_| |__|  |__|  |_| \__\ |__|  \__/        
                                                                              
                      - O R C A' S   B I G   F R I E N D -                    
                                      &                                       
                       - I N T E G R A L  F E E D E R -                       
                                                                              
 v1 FN, 2020, v2 2021                                                         
------------------------------------------------------------------------------


Reading SHARK input file optpbed3-b2plyp-test-167.SHARKINP.tmp ... ok
----------------------
SHARK INTEGRAL PACKAGE
----------------------

Number of atoms                             ...     21
Number of basis functions                   ...    712
Number of shells                            ...    280
Maximum angular momentum                    ...      3
Integral batch strategy                     ... SHARK/LIBINT Hybrid
RI-J (if used) integral strategy            ... SPLIT-RIJ (Revised 2003 algorithm where possible)
Printlevel                                  ...      1
Contraction scheme used                     ... PARTIAL GENERAL contraction
Coulomb Range Separation                    ... NOT USED
Exchange Range Separation                   ... NOT USED
Finite Nucleus Model                        ... NOT USED
Auxiliary Coulomb fitting basis             ... AVAILABLE
   # of basis functions in Aux-J            ...   1169
   # of shells in Aux-J                     ...    375
   Maximum angular momentum in Aux-J        ...      4
Auxiliary J/K fitting basis                 ... NOT available
Auxiliary Correlation fitting basis         ... AVAILABLE
   # of basis functions in Aux-C            ...   1466
   # of shells in Aux-C                     ...    408
   Maximum angular momentum in Aux-C        ...      4
Auxiliary 'external' fitting basis          ... NOT available
Integral threshold                          ...     2.500000e-11
Primitive cut-off                           ...     2.500000e-12
Primitive pair pre-selection threshold      ...     2.500000e-12

Calculating pre-screening integrals         ... done (  0.1 sec) Dimension = 280
Calculating pre-screening integrals (ORCA)  ... done (  0.3 sec) Dimension = 214
Organizing shell pair data                  ... done (  0.5 sec)
Shell pair information
Total number of shell pairs                 ...     39340
Shell pairs after pre-screening             ...     30452
Total number of primitive shell pairs       ...     52066
Primitive shell pairs kept                  ...     36959
          la=0 lb=0:   7248 shell pairs
          la=1 lb=0:   7765 shell pairs
          la=1 lb=1:   1881 shell pairs
          la=2 lb=0:   5119 shell pairs
          la=2 lb=1:   2442 shell pairs
          la=2 lb=2:    836 shell pairs
          la=3 lb=0:   2771 shell pairs
          la=3 lb=1:   1290 shell pairs
          la=3 lb=2:    862 shell pairs
          la=3 lb=3:    238 shell pairs

Calculating one electron integrals          ... done (  0.1 sec)
Calculating RI/J V-Matrix + Cholesky decomp.... done (  0.1 sec)
Calculating RI/C V-Matrix + Cholesky decomp.... done (  0.2 sec)
Calculating Nuclear repulsion               ... done (  0.0 sec) ENN=    550.701279752208 Eh

SHARK setup successfully completed in   1.9 seconds

Maximum memory used throughout the entire GTOINT-calculation: 46.0 MB


           ************************************************************
           *        Program running with 4 parallel MPI-processes     *
           *              working on a common directory               *
           ************************************************************
-------------------------------------------------------------------------------
                                 ORCA SCF
-------------------------------------------------------------------------------

------------
SCF SETTINGS
------------
Hamiltonian:
 Density Functional     Method          .... DFT(GTOs)
 Exchange Functional    Exchange        .... PBE
   PBE kappa parameter   XKappa         ....  0.804000
   PBE mue parameter    XMuePBE         ....  0.219520
 Correlation Functional Correlation     .... PBE
   PBE beta parameter  CBetaPBE         ....  0.066725
 LDA part of GGA corr.  LDAOpt          .... PW91-LDA
 Gradients option       PostSCFGGA      .... off
 Hybrid DFT is turned on
   Fraction HF Exchange ScalHFX         ....  0.250000
   Scaling of DF-GGA-X  ScalDFX         ....  0.750000
   Scaling of DF-GGA-C  ScalDFC         ....  1.000000
   Scaling of DF-LDA-C  ScalLDAC        ....  1.000000
   Perturbative correction              ....  0.000000
   Density functional embedding theory  .... OFF
   NL short-range parameter             ....  6.900000
 RI-approximation to the Coulomb term is turned on
   Number of AuxJ basis functions       .... 1169
   RIJ-COSX (HFX calculated with COS-X)).... on


General Settings:
 Integral files         IntName         .... optpbed3-b2plyp-test-167
 Hartree-Fock type      HFTyp           .... RHF
 Total Charge           Charge          ....    0
 Multiplicity           Mult            ....    1
 Number of Electrons    NEL             ....   78
 Basis Dimension        Dim             ....  646
 Nuclear Repulsion      ENuc            ....    550.7012797522 Eh

Convergence Acceleration:
 DIIS                   CNVDIIS         .... on
   Start iteration      DIISMaxIt       ....    12
   Startup error        DIISStart       ....  0.200000
   # of expansion vecs  DIISMaxEq       ....     5
   Bias factor          DIISBfac        ....   1.050
   Max. coefficient     DIISMaxC        ....  10.000
 Trust-Rad. Augm. Hess. CNVTRAH         .... auto
   Auto Start mean grad. ratio tolernc. ....  1.125000
   Auto Start start iteration           ....    20
   Auto Start num. interpolation iter.  ....    10
   Max. Number of Micro iterations      ....    16
   Max. Number of Macro iterations      .... Maxiter - #DIIS iter
   Number of Davidson start vectors     ....     2
   Converg. threshold I  (grad. norm)   ....   1.000e-05
   Converg. threshold II (energy diff.) ....   1.000e-08
   Grad. Scal. Fac. for Micro threshold ....   0.100
   Minimum threshold for Micro iter.    ....   0.010
   NR start threshold (gradient norm)   ....   0.001
   Initial trust radius                 ....   0.400
   Minimum AH scaling param. (alpha)    ....   1.000
   Maximum AH scaling param. (alpha)    .... 1000.000
   Orbital update algorithm             .... Taylor
   White noise on init. David. guess    .... on
   Maximum white noise                  ....   0.010
   Quad. conv. algorithm                .... NR
 SOSCF                  CNVSOSCF        .... on
   Start iteration      SOSCFMaxIt      ....   150
   Startup grad/error   SOSCFStart      ....  0.003300
 Level Shifting         CNVShift        .... on
   Level shift para.    LevelShift      ....    0.2500
   Turn off err/grad.   ShiftErr        ....    0.0010
 Zerner damping         CNVZerner       .... off
 Static damping         CNVDamp         .... on
   Fraction old density DampFac         ....    0.7000
   Max. Damping (<1)    DampMax         ....    0.9800
   Min. Damping (>=0)   DampMin         ....    0.0000
   Turn off err/grad.   DampErr         ....    0.1000
 Fernandez-Rico         CNVRico         .... off

SCF Procedure:
 Maximum # iterations   MaxIter         ....   125
 SCF integral mode      SCFMode         .... Direct
   Integral package                     .... SHARK and LIBINT hybrid scheme
 Reset frequency        DirectResetFreq ....    20
 Integral Threshold     Thresh          ....  2.500e-11 Eh
 Primitive CutOff       TCut            ....  2.500e-12 Eh

Convergence Tolerance:
 Convergence Check Mode ConvCheckMode   .... Total+1el-Energy
 Convergence forced     ConvForced      .... 0
 Energy Change          TolE            ....  1.000e-08 Eh
 1-El. energy change                    ....  1.000e-05 Eh
 Orbital Gradient       TolG            ....  1.000e-05
 Orbital Rotation angle TolX            ....  1.000e-05
 DIIS Error             TolErr          ....  5.000e-07


Diagonalization of the overlap matrix:
Smallest eigenvalue                        ... 7.592e-07
Time for diagonalization                   ...    0.143 sec
Threshold for overlap eigenvalues          ... 1.000e-08
Number of eigenvalues below threshold      ... 0
Time for construction of square roots      ...    0.084 sec
Total time needed                          ...    0.230 sec

Time for model grid setup =    0.336 sec

------------------------------
INITIAL GUESS: MODEL POTENTIAL
------------------------------
Loading Hartree-Fock densities                     ... done
Calculating cut-offs                               ... done
Initializing the effective Hamiltonian             ... done
Setting up the integral package (SHARK)            ... done
Starting the Coulomb interaction                   ... done (   0.7 sec)
Reading the grid                                   ... done
Mapping shells                                     ... done
Starting the XC term evaluation                    ... done (   1.4 sec)
  promolecular density results
     # of electrons  =     77.994046672
     EX              =    -62.053493513
     EC              =     -2.582625240
     EX+EC           =    -64.636118753
Transforming the Hamiltonian                       ... done (   0.1 sec)
Diagonalizing the Hamiltonian                      ... done (   0.2 sec)
Back transforming the eigenvectors                 ... done (   0.0 sec)
Now organizing SCF variables                       ... done
                      ------------------
                      INITIAL GUESS DONE (   2.7 sec)
                      ------------------
-------------------
DFT GRID GENERATION
-------------------

General Integration Accuracy     IntAcc      ... 4.388
Radial Grid Type                 RadialGrid  ... OptM3 with GC (2021)
Angular Grid (max. ang.)         AngularGrid ... 4 (Lebedev-302)
Angular grid pruning method      GridPruning ... 4 (adaptive)
Weight generation scheme         WeightScheme... Becke
Basis function cutoff            BFCut       ... 1.0000e-11
Integration weight cutoff        WCut        ... 1.0000e-14
Angular grids for H and He will be reduced by one unit
Partially contracted basis set               ... off
Rotationally invariant grid construction     ... off

Total number of grid points                  ...   100857
Total number of batches                      ...     1587
Average number of points per batch           ...       63
Average number of grid points per atom       ...     4803
Time for grid setup =    1.190 sec

--------------------
COSX GRID GENERATION
--------------------

GRIDX 1
-------
General Integration Accuracy     IntAcc      ... 3.816
Radial Grid Type                 RadialGrid  ... OptM3 with GC (2021)
Angular Grid (max. ang.)         AngularGrid ... 1 (Lebedev-50)
Angular grid pruning method      GridPruning ... 4 (adaptive)
Weight generation scheme         WeightScheme... Becke
Basis function cutoff            BFCut       ... 1.0000e-11
Integration weight cutoff        WCut        ... 1.0000e-14
Angular grids for H and He will be reduced by one unit
Partially contracted basis set               ... on
Rotationally invariant grid construction     ... off

Total number of grid points                  ...    12893
Total number of batches                      ...      211
Average number of points per batch           ...       61
Average number of grid points per atom       ...      614
UseSFitting                                  ... on

GRIDX 2
-------
General Integration Accuracy     IntAcc      ... 4.020
Radial Grid Type                 RadialGrid  ... OptM3 with GC (2021)
Angular Grid (max. ang.)         AngularGrid ... 2 (Lebedev-110)
Angular grid pruning method      GridPruning ... 4 (adaptive)
Weight generation scheme         WeightScheme... Becke
Basis function cutoff            BFCut       ... 1.0000e-11
Integration weight cutoff        WCut        ... 1.0000e-14
Angular grids for H and He will be reduced by one unit
Partially contracted basis set               ... on
Rotationally invariant grid construction     ... off

Total number of grid points                  ...    30373
Total number of batches                      ...      486
Average number of points per batch           ...       62
Average number of grid points per atom       ...     1446
UseSFitting                                  ... on

GRIDX 3
-------
General Integration Accuracy     IntAcc      ... 4.338
Radial Grid Type                 RadialGrid  ... OptM3 with GC (2021)
Angular Grid (max. ang.)         AngularGrid ... 3 (Lebedev-194)
Angular grid pruning method      GridPruning ... 4 (adaptive)
Weight generation scheme         WeightScheme... Becke
Basis function cutoff            BFCut       ... 1.0000e-11
Integration weight cutoff        WCut        ... 1.0000e-14
Angular grids for H and He will be reduced by one unit
Partially contracted basis set               ... on
Rotationally invariant grid construction     ... off

Total number of grid points                  ...    65571
Total number of batches                      ...     1035
Average number of points per batch           ...       63
Average number of grid points per atom       ...     3122
UseSFitting                                  ... on

Time for X-Grid setup             =    2.962 sec


--------------------
CPCM SOLVATION MODEL
--------------------
CPCM parameters:
  Epsilon                                         ...       1.8819
  Refrac                                          ...       1.3749
  Rsolv                                           ...       1.3000
  Surface type                                    ... GAUSSIAN VDW
  Epsilon function type                           ...         CPCM
Solvent:                                     ... N-HEXANE
SMD-CDS solvent descriptors:
  Soln                                       ...    1.3749
  Soln25                                     ...    1.3722
  Sola                                       ...    0.0000
  Solb                                       ...    0.0000
  Solg                                       ...   25.7500
  Solc                                       ...    0.0000
  Solh                                       ...    0.0000
Radii:
 Radius for C  used is    3.4960 Bohr (=   1.8500 Ang.)
 Radius for N  used is    3.5716 Bohr (=   1.8900 Ang.)
 Radius for H  used is    2.2677 Bohr (=   1.2000 Ang.)
Calculating surface                               ...        done! (  0.0s)
GEPOL surface points                              ...         1265
GEPOL Volume                                      ...    1124.8777
GEPOL Surface-area                                ...     680.6530
Calculating surface distance matrix               ...        done! (  0.0s)
Performing Cholesky decomposition & store         ...        done! (  0.1s)
Overall time for CPCM initialization              ...                 0.1s
 re-compute Schwartz prescreening matrix in partically contracted basis (1) ...done (   0.165 sec)
--------------
SCF ITERATIONS
--------------
ITER       Energy         Delta-E        Max-DP      RMS-DP      [F,P]     Damp
               ***  Starting incremental Fock matrix formation  ***
  0   -457.8206060664   0.000000000000 0.07354994  0.00085040  0.2498378 0.7000
  1   -457.9352850330  -0.114678966563 0.05540977  0.00065351  0.1083310 0.7000
                               ***Turning on DIIS***
  2   -457.9852256318  -0.049940598865 0.09448909  0.00135049  0.0378523 0.0000
  3   -458.0622313763  -0.077005744425 0.04362107  0.00034052  0.0529939 0.0000
  4   -458.0777439763  -0.015512600019 0.01127204  0.00011408  0.0215911 0.0000
  5   -458.0788503938  -0.001106417534 0.00405881  0.00004002  0.0071622 0.0000
                      *** Initiating the SOSCF procedure ***
                           *** Shutting down DIIS ***
                      *** Re-Reading the Fockian *** 
                      *** Removing any level shift *** 
ITER      Energy       Delta-E        Grad      Rot      Max-DP    RMS-DP
  6   -458.07894562  -0.0000952233  0.000240  0.000240  0.001663  0.000020
               *** Restarting incremental Fock matrix formation ***
  7   -458.07895684  -0.0000112213  0.000126  0.000670  0.003141  0.000063
  8   -458.07895604   0.0000007998  0.000257  0.000559  0.000383  0.000005
  9   -458.07895789  -0.0000018465  0.000032  0.000069  0.000434  0.000006
 10   -458.07895785   0.0000000316  0.000055  0.000053  0.000366  0.000005
 11   -458.07895794  -0.0000000873  0.000012  0.000025  0.001325  0.000015
 12   -458.07895792   0.0000000211  0.000021  0.000017  0.000179  0.000003
                  ***Gradient check signals convergence***
              ***Rediagonalizing the Fockian in SOSCF/NRSCF***

               *****************************************************
               *                     SUCCESS                       *
               *           SCF CONVERGED AFTER  13 CYCLES          *
               *****************************************************

Old exchange energy                            =    -15.861471541 Eh
New exchange energy                            =    -15.861486634 Eh
Exchange energy change after final integration =     -0.000015093 Eh
Total energy after final integration           =   -458.078973054 Eh
Final COS-X integration done in                =    39.919 sec

SMD CDS free energy correction energy :                -3.23520     Kcal/mol
Total Energy after SMD CDS correction =              -458.084128677 Eh

----------------
TOTAL SCF ENERGY
----------------

Total Energy       :         -458.08412868 Eh          -12465.10285 eV

Components:
Nuclear Repulsion  :          550.70127975 Eh           14985.34366 eV
Electronic Energy  :        -1008.78540843 Eh          -27450.44652 eV
One Electron Energy:        -1709.30085978 Eh          -46512.44104 eV
Two Electron Energy:          700.51545135 Eh           19061.99452 eV
Max COSX asymmetry :            0.00001667 Eh               0.00045 eV
CPCM Dielectric    :           -0.00861290 Eh              -0.23437 eV
SMD CDS (Gcds)     :           -0.00515562 Eh              -0.14029 eV

Virial components:
Potential Energy   :         -913.57278838 Eh          -24859.57941 eV
Kinetic Energy     :          455.48865970 Eh           12394.47655 eV
Virial Ratio       :            2.00569821


DFT components:
N(Alpha)           :       39.000037558845 electrons
N(Beta)            :       39.000037558845 electrons
N(Total)           :       78.000075117690 electrons
E(X)               :      -47.452364007251 Eh       
E(C)               :       -2.585458257959 Eh       
E(XC)              :      -50.037822265210 Eh       
DFET-embed. en.    :        0.000000000000 Eh       
CPCM Solvation Model Properties:
Surface-charge          :           -0.04724002
Charge-correction       :            0.00005395 Eh               0.00147 eV
Free-energy (cav+disp)  :           -0.00515562 Eh              -0.14029 eV

---------------
SCF CONVERGENCE
---------------

  Last Energy change         ...   -4.1928e-08  Tolerance :   1.0000e-08
  Last MAX-Density change    ...    3.5527e-15  Tolerance :   1.0000e-07
  Last RMS-Density change    ...    1.4290e-17  Tolerance :   5.0000e-09
  Last Orbital Gradient      ...    2.2410e-06  Tolerance :   1.0000e-05
  Last Orbital Rotation      ...    8.2389e-06  Tolerance :   1.0000e-05

             **** THE GBW FILE WAS UPDATED (optpbed3-b2plyp-test-167.gbw) ****
             **** DENSITY optpbed3-b2plyp-test-167.scfp WAS UPDATED ****
             **** ENERGY FILE WAS UPDATED (optpbed3-b2plyp-test-167.en.tmp) ****
             **** THE GBW FILE WAS UPDATED (optpbed3-b2plyp-test-167.gbw) ****
             **** DENSITY optpbed3-b2plyp-test-167.scfp WAS UPDATED ****
----------------
ORBITAL ENERGIES
----------------

  NO   OCC          E(Eh)            E(eV) 
   0   2.0000     -14.424880      -392.5209 
   1   2.0000     -14.370519      -391.0417 
   2   2.0000     -10.285725      -279.8888 
   3   2.0000     -10.259675      -279.1800 
   4   2.0000     -10.259666      -279.1797 
   5   2.0000     -10.254756      -279.0461 
   6   2.0000     -10.253922      -279.0234 
   7   2.0000     -10.246165      -278.8123 
   8   2.0000     -10.246153      -278.8120 
   9   2.0000     -10.233330      -278.4631 
  10   2.0000     -10.233309      -278.4625 
  11   2.0000      -0.999340       -27.1934 
  12   2.0000      -0.932264       -25.3682 
  13   2.0000      -0.893032       -24.3006 
  14   2.0000      -0.801631       -21.8135 
  15   2.0000      -0.792067       -21.5532 
  16   2.0000      -0.756739       -20.5919 
  17   2.0000      -0.713471       -19.4145 
  18   2.0000      -0.640791       -17.4368 
  19   2.0000      -0.626983       -17.0611 
  20   2.0000      -0.578478       -15.7412 
  21   2.0000      -0.540453       -14.7065 
  22   2.0000      -0.518373       -14.1056 
  23   2.0000      -0.495822       -13.4920 
  24   2.0000      -0.474661       -12.9162 
  25   2.0000      -0.456072       -12.4103 
  26   2.0000      -0.449449       -12.2301 
  27   2.0000      -0.429662       -11.6917 
  28   2.0000      -0.428673       -11.6648 
  29   2.0000      -0.417280       -11.3548 
  30   2.0000      -0.410574       -11.1723 
  31   2.0000      -0.400452       -10.8969 
  32   2.0000      -0.373218       -10.1558 
  33   2.0000      -0.368891       -10.0380 
  34   2.0000      -0.368209       -10.0195 
  35   2.0000      -0.340143        -9.2558 
  36   2.0000      -0.306774        -8.3478 
  37   2.0000      -0.283473        -7.7137 
  38   2.0000      -0.218902        -5.9566 
  39   0.0000      -0.030927        -0.8416 
  40   0.0000      -0.018934        -0.5152 
  41   0.0000      -0.003630        -0.0988 
  42   0.0000       0.012926         0.3517 
  43   0.0000       0.014833         0.4036 
  44   0.0000       0.028729         0.7818 
  45   0.0000       0.033493         0.9114 
  46   0.0000       0.034868         0.9488 
  47   0.0000       0.034887         0.9493 
  48   0.0000       0.046324         1.2605 
  49   0.0000       0.052360         1.4248 
  50   0.0000       0.055008         1.4968 
  51   0.0000       0.058210         1.5840 
  52   0.0000       0.063916         1.7392 
  53   0.0000       0.069081         1.8798 
  54   0.0000       0.077105         2.0981 
  55   0.0000       0.084810         2.3078 
  56   0.0000       0.087718         2.3869 
  57   0.0000       0.088967         2.4209 
  58   0.0000       0.093374         2.5408 
  59   0.0000       0.097082         2.6417 
  60   0.0000       0.100094         2.7237 
  61   0.0000       0.108906         2.9635 
  62   0.0000       0.117996         3.2108 
  63   0.0000       0.119162         3.2426 
  64   0.0000       0.119397         3.2490 
  65   0.0000       0.122105         3.3226 
  66   0.0000       0.127675         3.4742 
  67   0.0000       0.131319         3.5734 
  68   0.0000       0.135290         3.6814 
  69   0.0000       0.139190         3.7876 
  70   0.0000       0.144158         3.9227 
  71   0.0000       0.146133         3.9765 
  72   0.0000       0.148291         4.0352 
  73   0.0000       0.155601         4.2341 
  74   0.0000       0.161345         4.3904 
  75   0.0000       0.169522         4.6129 
  76   0.0000       0.174724         4.7545 
  77   0.0000       0.176044         4.7904 
  78   0.0000       0.177342         4.8257 
  79   0.0000       0.180885         4.9221 
  80   0.0000       0.189877         5.1668 
  81   0.0000       0.191320         5.2061 
  82   0.0000       0.191392         5.2080 
  83   0.0000       0.194238         5.2855 
  84   0.0000       0.195744         5.3265 
  85   0.0000       0.205188         5.5834 
  86   0.0000       0.206663         5.6236 
  87   0.0000       0.217430         5.9166 
  88   0.0000       0.221049         6.0150 
  89   0.0000       0.223453         6.0805 
  90   0.0000       0.235298         6.4028 
  91   0.0000       0.237268         6.4564 
  92   0.0000       0.242148         6.5892 
  93   0.0000       0.247744         6.7415 
  94   0.0000       0.250496         6.8163 
  95   0.0000       0.252556         6.8724 
  96   0.0000       0.254192         6.9169 
  97   0.0000       0.264958         7.2099 
  98   0.0000       0.275174         7.4879 
  99   0.0000       0.276875         7.5342 
 100   0.0000       0.280580         7.6350 
 101   0.0000       0.283104         7.7037 
 102   0.0000       0.291438         7.9304 
 103   0.0000       0.292900         7.9702 
 104   0.0000       0.294321         8.0089 
 105   0.0000       0.295002         8.0274 
 106   0.0000       0.302269         8.2252 
 107   0.0000       0.311031         8.4636 
 108   0.0000       0.314072         8.5463 
 109   0.0000       0.318754         8.6737 
 110   0.0000       0.324544         8.8313 
 111   0.0000       0.330563         8.9951 
 112   0.0000       0.344801         9.3825 
 113   0.0000       0.350282         9.5317 
 114   0.0000       0.351583         9.5671 
 115   0.0000       0.355190         9.6652 
 116   0.0000       0.358270         9.7490 
 117   0.0000       0.365322         9.9409 
 118   0.0000       0.375979        10.2309 
 119   0.0000       0.380358        10.3501 
 120   0.0000       0.382168        10.3993 
 121   0.0000       0.388166        10.5625 
 122   0.0000       0.394583        10.7372 
 123   0.0000       0.396821        10.7980 
 124   0.0000       0.396932        10.8011 
 125   0.0000       0.399561        10.8726 
 126   0.0000       0.402286        10.9468 
 127   0.0000       0.413353        11.2479 
 128   0.0000       0.415930        11.3180 
 129   0.0000       0.421412        11.4672 
 130   0.0000       0.422000        11.4832 
 131   0.0000       0.428427        11.6581 
 132   0.0000       0.430255        11.7078 
 133   0.0000       0.436094        11.8667 
 134   0.0000       0.436925        11.8893 
 135   0.0000       0.442842        12.0503 
 136   0.0000       0.455455        12.3936 
 137   0.0000       0.471798        12.8383 
 138   0.0000       0.472637        12.8611 
 139   0.0000       0.474846        12.9212 
 140   0.0000       0.485690        13.2163 
 141   0.0000       0.491444        13.3729 
 142   0.0000       0.496956        13.5229 
 143   0.0000       0.503145        13.6913 
 144   0.0000       0.507926        13.8214 
 145   0.0000       0.510971        13.9042 
 146   0.0000       0.517107        14.0712 
 147   0.0000       0.520996        14.1770 
 148   0.0000       0.542961        14.7747 
 149   0.0000       0.544971        14.8294 
 150   0.0000       0.553829        15.0704 
 151   0.0000       0.569185        15.4883 
 152   0.0000       0.570627        15.5275 
 153   0.0000       0.572348        15.5744 
 154   0.0000       0.574200        15.6248 
 155   0.0000       0.575121        15.6498 
 156   0.0000       0.595808        16.2128 
 157   0.0000       0.596850        16.2411 
 158   0.0000       0.605823        16.4853 
 159   0.0000       0.616865        16.7858 
 160   0.0000       0.630532        17.1577 
 161   0.0000       0.630718        17.1627 
 162   0.0000       0.633228        17.2310 
 163   0.0000       0.640418        17.4267 
 164   0.0000       0.644043        17.5253 
 165   0.0000       0.648786        17.6544 
 166   0.0000       0.664282        18.0760 
 167   0.0000       0.666107        18.1257 
 168   0.0000       0.666925        18.1480 
 169   0.0000       0.674541        18.3552 
 170   0.0000       0.677524        18.4364 
 171   0.0000       0.683573        18.6010 
 172   0.0000       0.701321        19.0839 
 173   0.0000       0.702974        19.1289 
 174   0.0000       0.707595        19.2547 
 175   0.0000       0.712934        19.3999 
 176   0.0000       0.719820        19.5873 
 177   0.0000       0.723436        19.6857 
 178   0.0000       0.727388        19.7932 
 179   0.0000       0.732959        19.9448 
 180   0.0000       0.735076        20.0024 
 181   0.0000       0.741540        20.1783 
 182   0.0000       0.748458        20.3666 
 183   0.0000       0.762147        20.7391 
 184   0.0000       0.763562        20.7776 
 185   0.0000       0.770262        20.9599 
 186   0.0000       0.775624        21.1058 
 187   0.0000       0.777681        21.1618 
 188   0.0000       0.781542        21.2668 
 189   0.0000       0.787676        21.4337 
 190   0.0000       0.793961        21.6048 
 191   0.0000       0.804520        21.8921 
 192   0.0000       0.808667        22.0049 
 193   0.0000       0.813913        22.1477 
 194   0.0000       0.832717        22.6594 
 195   0.0000       0.839288        22.8382 
 196   0.0000       0.847303        23.0563 
 197   0.0000       0.850570        23.1452 
 198   0.0000       0.851464        23.1695 
 199   0.0000       0.865421        23.5493 
 200   0.0000       0.876111        23.8402 
 201   0.0000       0.877024        23.8650 
 202   0.0000       0.883680        24.0462 
 203   0.0000       0.898662        24.4538 
 204   0.0000       0.903207        24.5775 
 205   0.0000       0.915409        24.9096 
 206   0.0000       0.922544        25.1037 
 207   0.0000       0.923913        25.1410 
 208   0.0000       0.925713        25.1899 
 209   0.0000       0.940957        25.6047 
 210   0.0000       0.953287        25.9403 
 211   0.0000       0.957892        26.0656 
 212   0.0000       0.971072        26.4242 
 213   0.0000       0.975636        26.5484 
 214   0.0000       0.984189        26.7811 
 215   0.0000       0.987622        26.8746 
 216   0.0000       0.990013        26.9396 
 217   0.0000       0.997093        27.1323 
 218   0.0000       1.010326        27.4924 
 219   0.0000       1.019898        27.7528 
 220   0.0000       1.028471        27.9861 
 221   0.0000       1.028627        27.9904 
 222   0.0000       1.042871        28.3780 
 223   0.0000       1.045509        28.4497 
 224   0.0000       1.054350        28.6903 
 225   0.0000       1.056394        28.7459 
 226   0.0000       1.068053        29.0632 
 227   0.0000       1.069229        29.0952 
 228   0.0000       1.077143        29.3105 
 229   0.0000       1.084615        29.5139 
 230   0.0000       1.111324        30.2407 
 231   0.0000       1.122802        30.5530 
 232   0.0000       1.130564        30.7642 
 233   0.0000       1.131659        30.7940 
 234   0.0000       1.147637        31.2288 
 235   0.0000       1.152840        31.3704 
 236   0.0000       1.168746        31.8032 
 237   0.0000       1.172824        31.9142 
 238   0.0000       1.173798        31.9407 
 239   0.0000       1.183255        32.1980 
 240   0.0000       1.187715        32.3194 
 241   0.0000       1.197057        32.5736 
 242   0.0000       1.200726        32.6734 
 243   0.0000       1.208545        32.8862 
 244   0.0000       1.220317        33.2065 
 245   0.0000       1.227386        33.3989 
 246   0.0000       1.228997        33.4427 
 247   0.0000       1.229784        33.4641 
 248   0.0000       1.241609        33.7859 
 249   0.0000       1.245831        33.9008 
 250   0.0000       1.265391        34.4330 
 251   0.0000       1.265516        34.4364 
 252   0.0000       1.269301        34.5394 
 253   0.0000       1.291894        35.1542 
 254   0.0000       1.307556        35.5804 
 255   0.0000       1.311655        35.6919 
 256   0.0000       1.312738        35.7214 
 257   0.0000       1.312940        35.7269 
 258   0.0000       1.321438        35.9581 
 259   0.0000       1.331822        36.2407 
 260   0.0000       1.344360        36.5819 
 261   0.0000       1.349514        36.7221 
 262   0.0000       1.360557        37.0226 
 263   0.0000       1.371898        37.3313 
 264   0.0000       1.372848        37.3571 
 265   0.0000       1.374937        37.4139 
 266   0.0000       1.400578        38.1117 
 267   0.0000       1.401944        38.1488 
 268   0.0000       1.406788        38.2806 
 269   0.0000       1.413043        38.4509 
 270   0.0000       1.414036        38.4779 
 271   0.0000       1.421141        38.6712 
 272   0.0000       1.422476        38.7076 
 273   0.0000       1.451906        39.5084 
 274   0.0000       1.453971        39.5646 
 275   0.0000       1.457307        39.6553 
 276   0.0000       1.464728        39.8573 
 277   0.0000       1.469316        39.9821 
 278   0.0000       1.478812        40.2405 
 279   0.0000       1.480956        40.2989 
 280   0.0000       1.498747        40.7830 
 281   0.0000       1.509752        41.0824 
 282   0.0000       1.517882        41.3037 
 283   0.0000       1.524856        41.4934 
 284   0.0000       1.531975        41.6872 
 285   0.0000       1.547629        42.1131 
 286   0.0000       1.553981        42.2860 
 287   0.0000       1.560743        42.4700 
 288   0.0000       1.567167        42.6448 
 289   0.0000       1.567769        42.6612 
 290   0.0000       1.570195        42.7272 
 291   0.0000       1.584822        43.1252 
 292   0.0000       1.590275        43.2736 
 293   0.0000       1.595142        43.4060 
 294   0.0000       1.597780        43.4778 
 295   0.0000       1.604080        43.6492 
 296   0.0000       1.616579        43.9894 
 297   0.0000       1.635546        44.5055 
 298   0.0000       1.656818        45.0843 
 299   0.0000       1.665928        45.3322 
 300   0.0000       1.673372        45.5348 
 301   0.0000       1.674960        45.5780 
 302   0.0000       1.677636        45.6508 
 303   0.0000       1.680968        45.7415 
 304   0.0000       1.686968        45.9047 
 305   0.0000       1.690827        46.0097 
 306   0.0000       1.697991        46.2047 
 307   0.0000       1.707918        46.4748 
 308   0.0000       1.715493        46.6809 
 309   0.0000       1.722553        46.8730 
 310   0.0000       1.722905        46.8826 
 311   0.0000       1.726168        46.9714 
 312   0.0000       1.735409        47.2229 
 313   0.0000       1.753574        47.7172 
 314   0.0000       1.766657        48.0732 
 315   0.0000       1.769047        48.1382 
 316   0.0000       1.791523        48.7498 
 317   0.0000       1.803210        49.0678 
 318   0.0000       1.819072        49.4995 
 319   0.0000       1.827050        49.7166 
 320   0.0000       1.838351        50.0241 
 321   0.0000       1.852001        50.3955 
 322   0.0000       1.871583        50.9284 
 323   0.0000       1.874880        51.0181 
 324   0.0000       1.876540        51.0632 
 325   0.0000       1.878398        51.1138 
 326   0.0000       1.889763        51.4231 
 327   0.0000       1.893892        51.5354 
 328   0.0000       1.900940        51.7272 
 329   0.0000       1.913635        52.0726 
 330   0.0000       1.919414        52.2299 
 331   0.0000       1.920650        52.2636 
 332   0.0000       1.935691        52.6728 
 333   0.0000       1.938919        52.7607 
 334   0.0000       1.963828        53.4385 
 335   0.0000       1.971264        53.6408 
 336   0.0000       1.985369        54.0246 
 337   0.0000       2.000681        54.4413 
 338   0.0000       2.006420        54.5975 
 339   0.0000       2.042334        55.5747 
 340   0.0000       2.045935        55.6727 
 341   0.0000       2.062125        56.1133 
 342   0.0000       2.082641        56.6715 
 343   0.0000       2.091575        56.9146 
 344   0.0000       2.117136        57.6102 
 345   0.0000       2.119756        57.6815 
 346   0.0000       2.136400        58.1344 
 347   0.0000       2.146479        58.4087 
 348   0.0000       2.162552        58.8460 
 349   0.0000       2.164158        58.8897 
 350   0.0000       2.175619        59.2016 
 351   0.0000       2.186195        59.4894 
 352   0.0000       2.194883        59.7258 
 353   0.0000       2.225479        60.5584 
 354   0.0000       2.253816        61.3294 
 355   0.0000       2.263368        61.5894 
 356   0.0000       2.269439        61.7546 
 357   0.0000       2.269817        61.7649 
 358   0.0000       2.311204        62.8911 
 359   0.0000       2.333067        63.4860 
 360   0.0000       2.374270        64.6072 
 361   0.0000       2.381133        64.7939 
 362   0.0000       2.396750        65.2189 
 363   0.0000       2.414700        65.7073 
[...]
   Transformed RI-exchange        ...    26.91 sec
   (ab|v) reading and digestion   ...    24.80 sec
   Final sigma-completion         ...     0.00 sec
   Done building sigma-vectors             Size of expansion space: 40
   Lowest Energy          :     0.181717841273
   Maximum Energy change  :     0.015280477573 (vector 2)
   Maximum residual norm  :     0.000938298473

                       ****Iteration    2****
              <<< Entering MO-section for Build Sigma(Double) >>>
   Forming the XC and CPCM contribution:
   Time for densities:            0.083
   Time for XC-Integration:       8.571
   Time for LR-CPCM terms:        4.055
   Time for Sigma-Completion:     0.060
   Time for building 10 sigma-vectors
   Data Preparation Phase         ...     0.00 sec
   Transformed RI Coulomb         ...     0.16 sec
   Transformed RI-exchange        ...    34.17 sec
   (ab|v) reading and digestion   ...    30.87 sec
   Final sigma-completion         ...     0.00 sec
   Done building sigma-vectors             Size of expansion space: 50
   Lowest Energy          :     0.180979082263
   Maximum Energy change  :     0.001624397807 (vector 1)
   Maximum residual norm  :     0.000124380275

                       ****Iteration    3****
              <<< Entering MO-section for Build Sigma(Double) >>>
   Forming the XC and CPCM contribution:
   Time for densities:            0.090
   Time for XC-Integration:       8.592
   Time for LR-CPCM terms:        4.029
   Time for Sigma-Completion:     0.060
   Time for building 10 sigma-vectors
   Data Preparation Phase         ...     0.00 sec
   Transformed RI Coulomb         ...     0.15 sec
   Transformed RI-exchange        ...    27.71 sec
   (ab|v) reading and digestion   ...    26.03 sec
   Final sigma-completion         ...     0.00 sec
   Done building sigma-vectors             Size of expansion space: 60
   Lowest Energy          :     0.180925976697
   Maximum Energy change  :     0.003566711779 (vector 9)
   Maximum residual norm  :     0.001586041200

                       ****Iteration    4****
              <<< Entering MO-section for Build Sigma(Double) >>>
   Forming the XC and CPCM contribution:
   Time for densities:            0.095
   Time for XC-Integration:       8.693
   Time for LR-CPCM terms:        4.067
   Time for Sigma-Completion:     0.063
   Time for building 10 sigma-vectors
   Data Preparation Phase         ...     0.00 sec
   Transformed RI Coulomb         ...     0.16 sec
   Transformed RI-exchange        ...    32.45 sec
   (ab|v) reading and digestion   ...    30.74 sec
   Final sigma-completion         ...     0.00 sec
   Done building sigma-vectors             Size of expansion space: 70
   Lowest Energy          :     0.180922416039
   Maximum Energy change  :     0.004821394728 (vector 9)
   Maximum residual norm  :     0.000137445754
   Rebuilding the expansion space

                       ****Iteration    5****
              <<< Entering MO-section for Build Sigma(Double) >>>
   Forming the XC and CPCM contribution:
   Time for densities:            0.170
   Time for XC-Integration:      16.804
   Time for LR-CPCM terms:        6.295
   Time for Sigma-Completion:     0.130
   Time for building 20 sigma-vectors
   Data Preparation Phase         ...     0.01 sec
   Transformed RI Coulomb         ...     0.23 sec
   Transformed RI-exchange        ...   109.93 sec
   (ab|v) reading and digestion   ...   104.93 sec
   Final sigma-completion         ...     0.01 sec
   Done building sigma-vectors             Size of expansion space: 20
   Lowest Energy          :     0.180922246566
   Maximum Energy change  :     0.000226457163 (vector 9)
   Maximum residual norm  :     0.000016932535

                       ****Iteration    6****
              <<< Entering MO-section for Build Sigma(Double) >>>
   Forming the XC and CPCM contribution:
   Time for densities:            0.081
   Time for XC-Integration:       8.699
   Time for LR-CPCM terms:        3.934
   Time for Sigma-Completion:     0.048
   Time for building 10 sigma-vectors
   Data Preparation Phase         ...     0.00 sec
   Transformed RI Coulomb         ...     0.14 sec
   Transformed RI-exchange        ...    32.63 sec
   (ab|v) reading and digestion   ...    30.50 sec
   Final sigma-completion         ...     0.00 sec
   Done building sigma-vectors             Size of expansion space: 30
   Lowest Energy          :     0.180922227532
   Maximum Energy change  :     0.000038022965 (vector 9)
   Maximum residual norm  :     0.000001972545

                       ****Iteration    7****
              <<< Entering MO-section for Build Sigma(Double) >>>
   Forming the XC and CPCM contribution:
   Time for densities:            0.083
   Time for XC-Integration:       8.441
   Time for LR-CPCM terms:        4.018
   Time for Sigma-Completion:     0.061
   Time for building 10 sigma-vectors
   Data Preparation Phase         ...     0.00 sec
   Transformed RI Coulomb         ...     0.11 sec
   Transformed RI-exchange        ...    26.08 sec
   (ab|v) reading and digestion   ...    24.14 sec
   Final sigma-completion         ...     0.00 sec
   Done building sigma-vectors             Size of expansion space: 40
   Lowest Energy          :     0.180922226661
   Maximum Energy change  :     0.000011204870 (vector 9)
   Maximum residual norm  :     0.000000810827

      *** CONVERGENCE OF RESIDUAL NORM REACHED ***

Storing the converged CI vectors               ... optpbed3-b2plyp-test-167_job2.cis1

                 *** DAVIDSON DONE ***

Total time for solving the CIS problem:   430.583sec

------------------
DOUBLES CORRECTION (Double precision version)
------------------

The (D) correction will be scaled by  0.2700
Doing v(i,a)*T(i,a) terms (RI)                    ... ok
Doing u(i,j,a,b) terms for state   0              ... ok
Doing u(i,j,a,b) terms for state   1              ... ok
Doing u(i,j,a,b) terms for state   2              ... ok
Doing u(i,j,a,b) terms for state   3              ... ok
Doing u(i,j,a,b) terms for state   4              ... ok
Doing u(i,j,a,b) terms for state   5              ... ok
Doing u(i,j,a,b) terms for state   6              ... ok
Doing u(i,j,a,b) terms for state   7              ... ok
Doing u(i,j,a,b) terms for state   8              ... ok
Doing u(i,j,a,b) terms for state   9              ... ok

Contributions to the (D) correction(s) (in eV)

STATE  Final   Init.   Total   v(ext)   v(int)  v(3)    u
       omega   omega     (D)                             
-----------------------------------------------------------------------------
   0   4.385   4.923  -0.539   0.465   0.928  -0.046  -1.886
   1   4.618   5.014  -0.396   0.572   0.928  -0.077  -1.818
   2   4.792   5.164  -0.372   0.038   0.917  -0.002  -1.325
   3   5.341   5.710  -0.368   0.033   0.920  -0.001  -1.321
   4   5.404   5.763  -0.359   0.034   0.933  -0.001  -1.325
   5   5.699   6.009  -0.310   0.034   0.922  -0.002  -1.264
   6   5.719   6.059  -0.340   0.040   0.921  -0.002  -1.298
   7   5.961   6.337  -0.376   0.041   0.926  -0.001  -1.342
   8   6.024   6.371  -0.346   0.076   0.932  -0.004  -1.351
   9   6.371   6.517  -0.147   0.450   0.965  -0.025  -1.537

(D)-timings
 V(i,a)*T(i,a) terms           ...    56.685 sec
 U(i,j,a,b) 3-internal         ...     1.324 sec
 U(i,j,a,b) 3-external         ...    52.429 sec
 U(i,j,a,b) pair terms         ...    33.195 sec
 Total measured time           ...   291.025 sec

 Time for (ab|v) I/O           ...    23.857 sec


------------------------------------
TD-DFT/TDA EXCITED STATES (SINGLETS)
------------------------------------

the weight of the individual excitations are printed if larger than 1.0e-02

STATE  1:  E=   0.161130 au      4.385 eV    35364.0 cm**-1 <S**2> =   0.000000
    37a ->  40a  :     0.120055 (c= -0.34648992)
    38a ->  43a  :     0.851741 (c= -0.92289798)

STATE  2:  E=   0.169722 au      4.618 eV    37249.7 cm**-1 <S**2> =   0.000000
    37a ->  43a  :     0.038870 (c=  0.19715477)
    38a ->  40a  :     0.914351 (c= -0.95621694)

STATE  3:  E=   0.176091 au      4.792 eV    38647.4 cm**-1 <S**2> =   0.000000
    38a ->  39a  :     0.823197 (c=  0.90730195)
    38a ->  42a  :     0.052038 (c= -0.22811818)
    38a ->  46a  :     0.019159 (c=  0.13841495)
    38a ->  47a  :     0.075910 (c= -0.27551812)

STATE  4:  E=   0.196296 au      5.341 eV    43081.9 cm**-1 <S**2> =   0.000000
    38a ->  41a  :     0.944163 (c=  0.97168075)
    38a ->  45a  :     0.011225 (c= -0.10594660)

STATE  5:  E=   0.198588 au      5.404 eV    43585.1 cm**-1 <S**2> =   0.000000
    38a ->  39a  :     0.056359 (c=  0.23740148)
    38a ->  42a  :     0.873958 (c=  0.93485733)
    38a ->  52a  :     0.027804 (c= -0.16674517)

STATE  6:  E=   0.209430 au      5.699 eV    45964.5 cm**-1 <S**2> =   0.000000
    37a ->  43a  :     0.010096 (c= -0.10047709)
    38a ->  44a  :     0.933962 (c=  0.96641704)
    38a ->  48a  :     0.014135 (c=  0.11889103)
    38a ->  54a  :     0.014262 (c= -0.11942528)

STATE  7:  E=   0.210185 au      5.719 eV    46130.2 cm**-1 <S**2> =   0.000000
    38a ->  39a  :     0.078946 (c=  0.28097330)
    38a ->  46a  :     0.045677 (c= -0.21372097)
    38a ->  47a  :     0.795258 (c=  0.89177267)
    38a ->  59a  :     0.011114 (c=  0.10542418)
    38a ->  63a  :     0.011412 (c=  0.10682850)
    38a ->  67a  :     0.012500 (c=  0.11180407)

STATE  8:  E=   0.219054 au      5.961 eV    48076.9 cm**-1 <S**2> =   0.000000
    36a ->  42a  :     0.017097 (c=  0.13075568)
    38a ->  46a  :     0.851865 (c=  0.92296510)
    38a ->  47a  :     0.060074 (c=  0.24509947)
    38a ->  52a  :     0.015830 (c= -0.12581675)

STATE  9:  E=   0.221381 au      6.024 eV    48587.5 cm**-1 <S**2> =   0.000000
    38a ->  45a  :     0.867915 (c= -0.93161933)
    38a ->  53a  :     0.057504 (c=  0.23980080)
    38a ->  58a  :     0.011766 (c=  0.10847110)

STATE 10:  E=   0.234115 au      6.371 eV    51382.3 cm**-1 <S**2> =   0.000000
    34a ->  53a  :     0.031089 (c=  0.17632096)
    34a ->  58a  :     0.016889 (c=  0.12995687)
    36a ->  53a  :     0.092653 (c=  0.30438894)
    36a ->  58a  :     0.048385 (c=  0.21996562)
    38a ->  45a  :     0.083631 (c=  0.28919021)
    38a ->  53a  :     0.457818 (c=  0.67662258)
    38a ->  58a  :     0.188638 (c=  0.43432508)
    38a ->  66a  :     0.010645 (c= -0.10317615)


-----------------------------
TD-DFT/TDA-EXCITATION SPECTRA
-----------------------------

Center of mass = (  1.5381, -0.0700, -0.0995)
Calculating the Dipole integrals                  ... done
Transforming integrals                            ... done
Calculating the Linear Momentum integrals         ... done
Transforming integrals                            ... done
Calculating angular momentum integrals            ... done
Transforming integrals                            ... done

-----------------------------------------------------------------------------
         ABSORPTION SPECTRUM VIA TRANSITION ELECTRIC DIPOLE MOMENTS
-----------------------------------------------------------------------------
State   Energy    Wavelength  fosc         T2        TX        TY        TZ  
        (cm-1)      (nm)                 (au**2)    (au)      (au)      (au) 
-----------------------------------------------------------------------------
   1   35364.0    282.8   0.061022571   0.56807   0.01990   0.69473  -0.29161
   2   37249.7    268.5   0.781602088   6.90778   2.62075  -0.11739  -0.16021
   3   38647.4    258.7   0.035796547   0.30493   0.00043  -0.20986  -0.51077
   4   43081.9    232.1   0.000001759   0.00001   0.00270   0.00224  -0.00106
   5   43585.1    229.4   0.000607706   0.00459   0.00291  -0.02361  -0.06344
   6   45964.5    217.6   0.028887114   0.20690   0.45388  -0.01841  -0.02347
   7   46130.2    216.8   0.002226405   0.01589   0.01523   0.04687   0.11602
   8   48076.9    208.0   0.006626850   0.04538  -0.01744  -0.08385  -0.19504
   9   48587.5    205.8   0.000002712   0.00002   0.00380  -0.00189  -0.00064
  10   51382.3    194.6   0.000064870   0.00042  -0.00483   0.01788  -0.00853

-----------------------------------------------------------------------------
         ABSORPTION SPECTRUM VIA TRANSITION VELOCITY DIPOLE MOMENTS
-----------------------------------------------------------------------------
State   Energy    Wavelength   fosc        P2         PX        PY        PZ  
        (cm-1)      (nm)                 (au**2)     (au)      (au)      (au) 
-----------------------------------------------------------------------------
   1   35364.0    282.8   0.000603233   0.00015  -0.00100  -0.01102   0.00482
   2   37249.7    268.5   0.371903914   0.09468  -0.30688   0.01330   0.01808
   3   38647.4    258.7   0.032432337   0.00857   0.00202   0.03498   0.08567
   4   43081.9    232.1   0.000000479   0.00000  -0.00021  -0.00031   0.00007
   5   43585.1    229.4   0.000800871   0.00024   0.00003   0.00542   0.01446
   6   45964.5    217.6   0.021291475   0.00669  -0.08164   0.00310   0.00367
   7   46130.2    216.8   0.000176922   0.00006  -0.00059   0.00299   0.00682
   8   48076.9    208.0   0.005835972   0.00192   0.00373   0.01707   0.04015
   9   48587.5    205.8   0.000002535   0.00000  -0.00069   0.00060   0.00003
  10   51382.3    194.6   0.000014044   0.00000   0.00077  -0.00183   0.00100

-------------------------------------------------------------------
                             CD SPECTRUM
-------------------------------------------------------------------
State  Energy     Wavelength     R         MX        MY        MZ   
       (cm-1)       (nm)     (1e40*cgs)   (au)      (au)      (au)  
-------------------------------------------------------------------
   1   35364.0    282.8     -0.28610   0.02754   0.12709   0.30675
   2   37249.7    268.5      1.61124   0.00131   0.00470  -0.00337
   3   38647.4    258.7      0.54004  -0.00399  -0.21159   0.08469
   4   43081.9    232.1     -0.17289  -0.13756   0.00641   0.00893
   5   43585.1    229.4      0.02688  -0.00151  -0.05182   0.01831
   6   45964.5    217.6      0.19520   0.00100   0.00447  -0.00182
   7   46130.2    216.8     -0.05212   0.00008   0.00099  -0.00136
   8   48076.9    208.0     -0.06157  -0.00192  -0.15708   0.06837
   9   48587.5    205.8     -0.05314  -0.02853   0.00109   0.00375
  10   51382.3    194.6      0.24726  -0.10327   0.00377   0.00491

-------------------------------------------------------------------
         CD SPECTRUM VIA TRANSITION VELOCITY DIPOLE MOMENTS        
-------------------------------------------------------------------
State  Energy     Wavelength     R         MX        MY        MZ   
       (cm-1)       (nm)     (1e40*cgs)   (au)      (au)      (au)  
-------------------------------------------------------------------
   1   35364.0    282.8      0.14739   0.02754   0.12709   0.30675
   2   37249.7    268.5     -1.11106   0.00131   0.00470  -0.00337
   3   38647.4    258.7     -0.41342  -0.00399  -0.21159   0.08469
   4   43081.9    232.1      0.06524  -0.13756   0.00641   0.00893
   5   43585.1    229.4     -0.03812  -0.00151  -0.05182   0.01831
   6   45964.5    217.6     -0.16758   0.00100   0.00447  -0.00182
   7   46130.2    216.8     -0.01431   0.00008   0.00099  -0.00136
   8   48076.9    208.0      0.12321  -0.00192  -0.15708   0.06837
   9   48587.5    205.8      0.04365  -0.02853   0.00109   0.00375
  10   51382.3    194.6     -0.16503  -0.10327   0.00377   0.00491

Total run time:      725.172 sec

           *** ORCA-CIS/TD-DFT FINISHED WITHOUT ERROR ***

Maximum memory used throughout the entire CIS-calculation: 363.1 MB

-----------------------
CIS/TD-DFT TOTAL ENERGY
-----------------------

    E(SCF)  =   -457.638201654 Eh
    DE(CIS) =      0.161130174 Eh (Root  1)
    ----------------------------- ---------
    E(tot)  =   -457.477071480 Eh



-------------------------------------------------------------------------------
                          DFT DISPERSION CORRECTION                            
                                                                               
                              DFTD3 V3.1  Rev 1                                
                          USING Becke-Johnson damping                          
-------------------------------------------------------------------------------
The B2PLYP functional is recognized
Active option DFTDOPT                   ...         4   

molecular C6(AA) [au] = 4919.451986 


            DFT-D V3
 parameters
 s6 scaling factor         :     0.6400 
 a1 scaling factor         :     0.3065 
 s8 scaling factor         :     0.9147 
 a2 scaling factor         :     5.0570 
 ad hoc parameters k1-k3   :    16.0000     1.3333    -4.0000 

 Edisp/kcal,au: -11.313928097407  -0.018029890158 
 E6   /kcal   :  -6.394631516 
 E8   /kcal   :  -4.919296582 
 % E8         :  43.480005699 

-------------------------   ----------------
Dispersion correction           -0.018029890
-------------------------   ----------------


-------------------------   --------------------
FINAL SINGLE POINT ENERGY      -457.495101370384
-------------------------   --------------------


                            ***************************************
                            *     ORCA property calculations      *
                            ***************************************


  WARNING: The energy has been calculated at the MP2 level but the densities
           used in the property calculations are still SCF densities
           MP2 response densities have not been calculated 
           use %mp2 Density relaxed end
           or  %mp2 Density unrelaxed end

                                    ---------------------
                                    Active property flags
                                    ---------------------
   (+) Dipole Moment


------------------------------------------------------------------------------
                       ORCA ELECTRIC PROPERTIES CALCULATION
------------------------------------------------------------------------------

Dipole Moment Calculation                       ... on
Quadrupole Moment Calculation                   ... off
Polarizability Calculation                      ... off
GBWName                                         ... optpbed3-b2plyp-test-167_job2.gbw
Electron density                                ... optpbed3-b2plyp-test-167_job2.scfp
The origin for moment calculation is the CENTER OF MASS  = ( 1.538075, -0.070033 -0.099512)

-------------
DIPOLE MOMENT
-------------
                                X             Y             Z
Electronic contribution:     13.62848      -0.61979      -0.88168
Nuclear contribution   :    -17.16061       0.78185       1.11085
                        -----------------------------------------
Total Dipole Moment    :     -3.53213       0.16205       0.22917
                        -----------------------------------------
Magnitude (a.u.)       :      3.54326
Magnitude (Debye)      :      9.00626



--------------------
Rotational spectrum 
--------------------
 
Rotational constants in cm-1:     0.116515     0.019546     0.016844 
Rotational constants in MHz :  3493.035148   585.963823   504.969305 

 Dipole components along the rotational axes: 
x,y,z [a.u.] :    -3.543264    -0.000947    -0.001843 
x,y,z [Debye]:    -9.006261    -0.002407    -0.004685 

 

Timings for individual modules:

Sum of individual times         ...     1204.848 sec (=  20.081 min)
GTO integral calculation        ...        2.543 sec (=   0.042 min)   0.2 %
SCF iterations                  ...      319.817 sec (=   5.330 min)  26.5 %
MP2 module                      ...      156.569 sec (=   2.609 min)  13.0 %
CIS module                      ...      725.919 sec (=  12.099 min)  60.2 %



                             ****ORCA TERMINATED NORMALLY****
TOTAL RUN TIME: 0 days 1 hours 10 minutes 49 seconds 717 msec
