
                                 *****************
                                 * O   R   C   A *
                                 *****************

                                            #,                                       
                                            ###                                      
                                            ####                                     
                                            #####                                    
                                            ######                                   
                                           ########,                                 
                                     ,,################,,,,,                         
                               ,,#################################,,                 
                          ,,##########################################,,             
                       ,#########################################, ''#####,          
                    ,#############################################,,   '####,        
                  ,##################################################,,,,####,       
                ,###########''''           ''''###############################       
              ,#####''   ,,,,##########,,,,          '''####'''          '####       
            ,##' ,,,,###########################,,,                        '##       
           ' ,,###''''                  '''############,,,                           
         ,,##''                                '''############,,,,        ,,,,,,###''
      ,#''                                            '''#######################'''  
     '                                                          ''''####''''         
             ,#######,   #######,   ,#######,      ##                                
            ,#'     '#,  ##    ##  ,#'     '#,    #''#        ######   ,####,        
            ##       ##  ##   ,#'  ##            #'  '#       #        #'  '#        
            ##       ##  #######   ##           ,######,      #####,   #    #        
            '#,     ,#'  ##    ##  '#,     ,#' ,#      #,         ##   #,  ,#        
             '#######'   ##     ##  '#######'  #'      '#     #####' # '####'        



                  #######################################################
                  #                        -***-                        #
                  #          Department of theory and spectroscopy      #
                  #    Directorship and core code : Frank Neese         #
                  #        Max Planck Institute fuer Kohlenforschung    #
                  #                Kaiser Wilhelm Platz 1               #
                  #                 D-45470 Muelheim/Ruhr               #
                  #                      Germany                        #
                  #                                                     #
                  #                  All rights reserved                #
                  #                        -***-                        #
                  #######################################################


                         Program Version 5.0.2 -  RELEASE  -


 With contributions from (in alphabetic order):
   Daniel Aravena         : Magnetic Suceptibility
   Michael Atanasov       : Ab Initio Ligand Field Theory (pilot matlab implementation)
   Alexander A. Auer      : GIAO ZORA, VPT2 properties, NMR spectrum
   Ute Becker             : Parallelization
   Giovanni Bistoni       : ED, misc. LED, open-shell LED, HFLD
   Martin Brehm           : Molecular dynamics
   Dmytro Bykov           : SCF Hessian
   Vijay G. Chilkuri      : MRCI spin determinant printing, contributions to CSF-ICE
   Dipayan Datta          : RHF DLPNO-CCSD density
   Achintya Kumar Dutta   : EOM-CC, STEOM-CC
   Dmitry Ganyushin       : Spin-Orbit,Spin-Spin,Magnetic field MRCI
   Miquel Garcia          : C-PCM and meta-GGA Hessian, CC/C-PCM, Gaussian charge scheme
   Yang Guo               : DLPNO-NEVPT2, F12-NEVPT2, CIM, IAO-localization
   Andreas Hansen         : Spin unrestricted coupled pair/coupled cluster methods
   Benjamin Helmich-Paris : MC-RPA, TRAH-SCF, COSX integrals
   Lee Huntington         : MR-EOM, pCC
   Robert Izsak           : Overlap fitted RIJCOSX, COSX-SCS-MP3, EOM
   Marcus Kettner         : VPT2
   Christian Kollmar      : KDIIS, OOCD, Brueckner-CCSD(T), CCSD density, CASPT2, CASPT2-K
   Simone Kossmann        : Meta GGA functionals, TD-DFT gradient, OOMP2, MP2 Hessian
   Martin Krupicka        : Initial AUTO-CI
   Lucas Lang             : DCDCAS
   Marvin Lechner         : AUTO-CI (C++ implementation), FIC-MRCC
   Dagmar Lenk            : GEPOL surface, SMD
   Dimitrios Liakos       : Extrapolation schemes; Compound Job, initial MDCI parallelization
   Dimitrios Manganas     : Further ROCIS development; embedding schemes
   Dimitrios Pantazis     : SARC Basis sets
   Anastasios Papadopoulos: AUTO-CI, single reference methods and gradients
   Taras Petrenko         : DFT Hessian,TD-DFT gradient, ASA, ECA, R-Raman, ABS, FL, XAS/XES, NRVS
   Peter Pinski           : DLPNO-MP2, DLPNO-MP2 Gradient
   Christoph Reimann      : Effective Core Potentials
   Marius Retegan         : Local ZFS, SOC
   Christoph Riplinger    : Optimizer, TS searches, QM/MM, DLPNO-CCSD(T), (RO)-DLPNO pert. Triples
   Tobias Risthaus        : Range-separated hybrids, TD-DFT gradient, RPA, STAB
   Michael Roemelt        : Original ROCIS implementation
   Masaaki Saitow         : Open-shell DLPNO-CCSD energy and density
   Barbara Sandhoefer     : DKH picture change effects
   Avijit Sen             : IP-ROCIS
   Kantharuban Sivalingam : CASSCF convergence, NEVPT2, FIC-MRCI
   Bernardo de Souza      : ESD, SOC TD-DFT
   Georgi Stoychev        : AutoAux, RI-MP2 NMR, DLPNO-MP2 response
   Willem Van den Heuvel  : Paramagnetic NMR
   Boris Wezisla          : Elementary symmetry handling
   Frank Wennmohs         : Technical directorship


 We gratefully acknowledge several colleagues who have allowed us to
 interface, adapt or use parts of their codes:
   Stefan Grimme, W. Hujo, H. Kruse, P. Pracht,  : VdW corrections, initial TS optimization,
                  C. Bannwarth, S. Ehlert          DFT functionals, gCP, sTDA/sTD-DF
   Ed Valeev, F. Pavosevic, A. Kumar             : LibInt (2-el integral package), F12 methods
   Garnet Chan, S. Sharma, J. Yang, R. Olivares  : DMRG
   Ulf Ekstrom                                   : XCFun DFT Library
   Mihaly Kallay                                 : mrcc  (arbitrary order and MRCC methods)
   Jiri Pittner, Ondrej Demel                    : Mk-CCSD
   Frank Weinhold                                : gennbo (NPA and NBO analysis)
   Christopher J. Cramer and Donald G. Truhlar   : smd solvation model
   Lars Goerigk                                  : TD-DFT with DH, B97 family of functionals
   V. Asgeirsson, H. Jonsson                     : NEB implementation
   FAccTs GmbH                                   : IRC, NEB, NEB-TS, DLPNO-Multilevel, CI-OPT
                                                   MM, QMMM, 2- and 3-layer-ONIOM, Crystal-QMMM,
                                                   LR-CPCM, SF, NACMEs, symmetry and pop. for TD-DFT,
                                                   nearIR, NL-DFT gradient (VV10), updates on ESD,
                                                   ML-optimized integration grids
   S Lehtola, MJT Oliveira, MAL Marques          : LibXC Library
   Liviu Ungur et al                             : ANISO software


 Your calculation uses the libint2 library for the computation of 2-el integrals
 For citations please refer to: http://libint.valeyev.net

 Your ORCA version has been built with support for libXC version: 5.1.0
 For citations please refer to: https://tddft.org/programs/libxc/

 This ORCA versions uses:
   CBLAS   interface :  Fast vector & matrix operations
   LAPACKE interface :  Fast linear algebra routines
   SCALAPACK package :  Parallel linear algebra routines
   Shared memory     :  Shared parallel matrices
   BLAS/LAPACK       :  OpenBLAS 0.3.15  USE64BITINT DYNAMIC_ARCH NO_AFFINITY Sandybridge SINGLE_THREADED
        Core in use  :  Sandybridge
   Copyright (c) 2011-2014, The OpenBLAS Project


Your calculation utilizes the atom-pairwise dispersion correction
with the Becke-Johnson damping scheme (D3BJ)
Cite in your paper:
S.Grimme, S.Ehrlich, L.Goerigk, J Comput Chem, (2011), 32, 1456–1465 
S.Grimme, J.Antony, S.Ehrlich and H.Krieg, J.Chem.Phys., 132, (2010), 154104 
   

Your calculation utilizes the SMD solvation module
Please cite in your paper:
A.V. Marenich, C.J. Cramer, D.G. Truhlar J. Phys. Chem. B, 113, (2009), 6378 

================================================================================

----- Orbital basis set information -----
Your calculation utilizes the basis: aug-cc-pVTZ 
    H, B-Ne : Obtained from the ccRepo (grant-hill.group.shef.ac.uk/ccrepo) Feb. 2017
              R. A. Kendall, T. H. Dunning, Jr., R. J. Harrison, J. Chem. Phys. 96, 6796 (1992)
         He : Obtained from the ccRepo (grant-hill.group.shef.ac.uk/ccrepo) Feb. 2017
              D. E. Woon, T. H. Dunning, Jr., J. Chem. Phys. 100, 2975 (1994)
  Li-Be, Na : Obtained from the ccRepo (grant-hill.group.shef.ac.uk/ccrepo) Feb. 2017
              B. P. Prascher, D. E. Woon, K. A. Peterson, T. H. Dunning, Jr., A. K. Wilson, Theor. Chem. Acc. 128, 69 (2011)
         Mg : Obtained from the Peterson Research Group Website (tyr0.chem.wsu.edu/~kipeters) Feb. 2017
              B. P. Prascher, D. E. Woon, K. A. Peterson, T. H. Dunning, Jr., A. K. Wilson, Theor. Chem. Acc. 128, 69 (2011)
      Al-Ar : Obtained from the ccRepo (grant-hill.group.shef.ac.uk/ccrepo) Feb. 2017
              D. E. Woon, T. H. Dunning, Jr., J. Chem. Phys. 98, 1358 (1993)
      Sc-Zn : Obtained from the ccRepo (grant-hill.group.shef.ac.uk/ccrepo) Feb. 2017
              N. B. Balabanov, K. A. Peterson, J. Chem. Phys. 123, 064107 (2005)
              N. B. Balabanov, K. A. Peterson, J. Chem. Phys. 125, 074110 (2006)
      Ga-Kr : Obtained from the ccRepo (grant-hill.group.shef.ac.uk/ccrepo) Feb. 2017
              A. K. Wilson, D. E. Woon, K. A. Peterson, T. H. Dunning, Jr., J. Chem. Phys. 110, 7667 (1999)
     Ag, Au : Obtained from the Peterson Research Group Website (tyr0.chem.wsu.edu/~kipeters) Feb. 2017
              K. A. Peterson, C. Puzzarini, Theor. Chem. Acc. 114, 283 (2005)

The basis set includes element-specific modifications.

Your calculation utilizes the basis: cc-pVTZ 
       H, B-Ne : Obtained from the ccRepo (grant-hill.group.shef.ac.uk/ccrepo) Feb. 2017
                 T. H. Dunning, Jr., J. Chem. Phys. 90, 1007 (1989)
            He : Obtained from the ccRepo (grant-hill.group.shef.ac.uk/ccrepo) Feb. 2017
                 D. E. Woon, T. H. Dunning, Jr., J. Chem. Phys. 100, 2975 (1994)
  Li-Be, Na-Mg : Obtained from the ccRepo (grant-hill.group.shef.ac.uk/ccrepo) Feb. 2017
                 B. P. Prascher, D. E. Woon, K. A. Peterson, T. H. Dunning, Jr., A. K. Wilson, Theor. Chem. Acc. 128, 69 (2011)
         Al-Ar : Obtained from the ccRepo (grant-hill.group.shef.ac.uk/ccrepo) Feb. 2017
                 D. E. Woon, T. H. Dunning, Jr., J. Chem. Phys. 98, 1358 (1993)
            Ca : Obtained from the Peterson Research Group Website (tyr0.chem.wsu.edu/~kipeters) Feb. 2017
                 J. Koput, K. A. Peterson, J. Phys. Chem. 106, 9595 (2002)
         Sc-Zn : Obtained from the ccRepo (grant-hill.group.shef.ac.uk/ccrepo) Feb. 2017
                 N. B. Balabanov, K. A. Peterson, J. Chem. Phys. 123, 064107 (2005)
                 N. B. Balabanov, K. A. Peterson, J. Chem. Phys. 125, 074110 (2006)
         Ga-Kr : Obtained from the ccRepo (grant-hill.group.shef.ac.uk/ccrepo) Feb. 2017
                 A. K. Wilson, D. E. Woon, K. A. Peterson, T. H. Dunning, Jr., J. Chem. Phys. 110, 7667 (1999)
             Y : Obtained from the ccRepo (grant-hill.group.shef.ac.uk/ccrepo) Feb. 2017
                 K. A. Peterson, D. Figgen, M. Dolg, H. Stoll, J. Chem. Phys. 126, 124101 (2007)
        Ag, Au : Obtained from the Peterson Research Group Website (tyr0.chem.wsu.edu/~kipeters) Feb. 2017
                 K. A. Peterson, C. Puzzarini, Theor. Chem. Acc. 114, 283 (2005)

----- AuxJ basis set information -----
Your calculation utilizes the auxiliary basis: aug-cc-pVTZ/JK 
  H, B-F, Al-Cl, Ga-Br : Obtained from the TURBOMOLE 7.0 basis set library

The basis set includes element-specific modifications.

Your calculation utilizes the auxiliary basis: cc-pVTZ/JK 
  H, B-F, Al-Cl, Ga-Br : Obtained from the TURBOMOLE 7.0 basis set library

----- AuxC basis set information -----
Your calculation utilizes the auxiliary basis: aug-cc-pVTZ/C 
  H-He, B-F, Al-Ar, Ga-Kr : Obtained from the EMSL Basis Set Exchange (bse.pnl.gov) Feb. 2017
                            F. Weigend, A. Kohn, C. Hattig, J. Chem. Phys. 116, 3175 (2002)
                   Be, Mg : Obtained from the TURBOMOLE 7.0 basis set library
                            C. Haettig, Phys. Chem. Chem. Phys. 7, 59 (2005)
                       Ne : Obtained from the EMSL Basis Set Exchange (bse.pnl.gov) Feb. 2017
                            C. Haettig, Phys. Chem. Chem. Phys. 7, 59 (2005)
                            F. Weigend, A. Kohn, C. Hattig, J. Chem. Phys. 116, 3175 (2002)
                    Sc-Zn : Obtained from the EMSL Basis Set Exchange (bse.pnl.gov) Feb. 2017
                            J. G. Hill, J. A. Platts, J. Chem. Phys. 128, 044104 (2008)

The basis set includes element-specific modifications.

Your calculation utilizes the auxiliary basis: cc-pVTZ/C 
  Obtained from the EMSL Basis Set Exchange (bse.pnl.gov) Feb. 2017
  H-He, B-F, Al-Ar, Ga-Kr : F. Weigend, A. Kohn, C. Hattig, J. Chem. Phys. 116, 3175 (2002)
             Li-Be, Na-Mg : C. Haettig, Phys. Chem. Chem. Phys. 7, 59 (2005)
                       Ne : C. Haettig, Phys. Chem. Chem. Phys. 7, 59 (2005)
                            F. Weigend, A. Kohn, C. Hattig, J. Chem. Phys. 116, 3175 (2002)
                    Sc-Zn : J. G. Hill, J. A. Platts, J. Chem. Phys. 128, 044104 (2008)

================================================================================
                                        WARNINGS
                       Please study these warnings very carefully!
================================================================================


WARNING: Geometry Optimization
  ===> : Switching off AutoStart
         For restart on a previous wavefunction, please use MOREAD

INFO   : the flag for use of the SHARK integral package has been found!



***************************************
The coordinates will be read from file: 
***************************************


Your calculation utilizes the atom-pairwise dispersion correction
with the Becke-Johnson damping scheme (D3BJ)
Cite in your paper:
S.Grimme, S.Ehrlich, L.Goerigk, J Comput Chem, (2011), 32, 1456–1465 
S.Grimme, J.Antony, S.Ehrlich and H.Krieg, J.Chem.Phys., 132, (2010), 154104 
   

Your calculation utilizes the SMD solvation module
Please cite in your paper:
A.V. Marenich, C.J. Cramer, D.G. Truhlar J. Phys. Chem. B, 113, (2009), 6378 

================================================================================

----- Orbital basis set information -----
Your calculation utilizes the basis: aug-cc-pVTZ 
    H, B-Ne : Obtained from the ccRepo (grant-hill.group.shef.ac.uk/ccrepo) Feb. 2017
              R. A. Kendall, T. H. Dunning, Jr., R. J. Harrison, J. Chem. Phys. 96, 6796 (1992)
         He : Obtained from the ccRepo (grant-hill.group.shef.ac.uk/ccrepo) Feb. 2017
              D. E. Woon, T. H. Dunning, Jr., J. Chem. Phys. 100, 2975 (1994)
  Li-Be, Na : Obtained from the ccRepo (grant-hill.group.shef.ac.uk/ccrepo) Feb. 2017
              B. P. Prascher, D. E. Woon, K. A. Peterson, T. H. Dunning, Jr., A. K. Wilson, Theor. Chem. Acc. 128, 69 (2011)
         Mg : Obtained from the Peterson Research Group Website (tyr0.chem.wsu.edu/~kipeters) Feb. 2017
              B. P. Prascher, D. E. Woon, K. A. Peterson, T. H. Dunning, Jr., A. K. Wilson, Theor. Chem. Acc. 128, 69 (2011)
      Al-Ar : Obtained from the ccRepo (grant-hill.group.shef.ac.uk/ccrepo) Feb. 2017
              D. E. Woon, T. H. Dunning, Jr., J. Chem. Phys. 98, 1358 (1993)
      Sc-Zn : Obtained from the ccRepo (grant-hill.group.shef.ac.uk/ccrepo) Feb. 2017
              N. B. Balabanov, K. A. Peterson, J. Chem. Phys. 123, 064107 (2005)
              N. B. Balabanov, K. A. Peterson, J. Chem. Phys. 125, 074110 (2006)
      Ga-Kr : Obtained from the ccRepo (grant-hill.group.shef.ac.uk/ccrepo) Feb. 2017
              A. K. Wilson, D. E. Woon, K. A. Peterson, T. H. Dunning, Jr., J. Chem. Phys. 110, 7667 (1999)
     Ag, Au : Obtained from the Peterson Research Group Website (tyr0.chem.wsu.edu/~kipeters) Feb. 2017
              K. A. Peterson, C. Puzzarini, Theor. Chem. Acc. 114, 283 (2005)

The basis set includes element-specific modifications.

Your calculation utilizes the basis: cc-pVTZ 
       H, B-Ne : Obtained from the ccRepo (grant-hill.group.shef.ac.uk/ccrepo) Feb. 2017
                 T. H. Dunning, Jr., J. Chem. Phys. 90, 1007 (1989)
            He : Obtained from the ccRepo (grant-hill.group.shef.ac.uk/ccrepo) Feb. 2017
                 D. E. Woon, T. H. Dunning, Jr., J. Chem. Phys. 100, 2975 (1994)
  Li-Be, Na-Mg : Obtained from the ccRepo (grant-hill.group.shef.ac.uk/ccrepo) Feb. 2017
                 B. P. Prascher, D. E. Woon, K. A. Peterson, T. H. Dunning, Jr., A. K. Wilson, Theor. Chem. Acc. 128, 69 (2011)
         Al-Ar : Obtained from the ccRepo (grant-hill.group.shef.ac.uk/ccrepo) Feb. 2017
                 D. E. Woon, T. H. Dunning, Jr., J. Chem. Phys. 98, 1358 (1993)
            Ca : Obtained from the Peterson Research Group Website (tyr0.chem.wsu.edu/~kipeters) Feb. 2017
                 J. Koput, K. A. Peterson, J. Phys. Chem. 106, 9595 (2002)
         Sc-Zn : Obtained from the ccRepo (grant-hill.group.shef.ac.uk/ccrepo) Feb. 2017
                 N. B. Balabanov, K. A. Peterson, J. Chem. Phys. 123, 064107 (2005)
                 N. B. Balabanov, K. A. Peterson, J. Chem. Phys. 125, 074110 (2006)
         Ga-Kr : Obtained from the ccRepo (grant-hill.group.shef.ac.uk/ccrepo) Feb. 2017
                 A. K. Wilson, D. E. Woon, K. A. Peterson, T. H. Dunning, Jr., J. Chem. Phys. 110, 7667 (1999)
             Y : Obtained from the ccRepo (grant-hill.group.shef.ac.uk/ccrepo) Feb. 2017
                 K. A. Peterson, D. Figgen, M. Dolg, H. Stoll, J. Chem. Phys. 126, 124101 (2007)
        Ag, Au : Obtained from the Peterson Research Group Website (tyr0.chem.wsu.edu/~kipeters) Feb. 2017
                 K. A. Peterson, C. Puzzarini, Theor. Chem. Acc. 114, 283 (2005)

----- AuxJ basis set information -----
Your calculation utilizes the auxiliary basis: aug-cc-pVTZ/JK 
  H, B-F, Al-Cl, Ga-Br : Obtained from the TURBOMOLE 7.0 basis set library

The basis set includes element-specific modifications.

Your calculation utilizes the auxiliary basis: cc-pVTZ/JK 
  H, B-F, Al-Cl, Ga-Br : Obtained from the TURBOMOLE 7.0 basis set library

----- AuxC basis set information -----
Your calculation utilizes the auxiliary basis: aug-cc-pVTZ/C 
  H-He, B-F, Al-Ar, Ga-Kr : Obtained from the EMSL Basis Set Exchange (bse.pnl.gov) Feb. 2017
                            F. Weigend, A. Kohn, C. Hattig, J. Chem. Phys. 116, 3175 (2002)
                   Be, Mg : Obtained from the TURBOMOLE 7.0 basis set library
                            C. Haettig, Phys. Chem. Chem. Phys. 7, 59 (2005)
                       Ne : Obtained from the EMSL Basis Set Exchange (bse.pnl.gov) Feb. 2017
                            C. Haettig, Phys. Chem. Chem. Phys. 7, 59 (2005)
                            F. Weigend, A. Kohn, C. Hattig, J. Chem. Phys. 116, 3175 (2002)
                    Sc-Zn : Obtained from the EMSL Basis Set Exchange (bse.pnl.gov) Feb. 2017
                            J. G. Hill, J. A. Platts, J. Chem. Phys. 128, 044104 (2008)

The basis set includes element-specific modifications.

Your calculation utilizes the auxiliary basis: cc-pVTZ/C 
  Obtained from the EMSL Basis Set Exchange (bse.pnl.gov) Feb. 2017
  H-He, B-F, Al-Ar, Ga-Kr : F. Weigend, A. Kohn, C. Hattig, J. Chem. Phys. 116, 3175 (2002)
             Li-Be, Na-Mg : C. Haettig, Phys. Chem. Chem. Phys. 7, 59 (2005)
                       Ne : C. Haettig, Phys. Chem. Chem. Phys. 7, 59 (2005)
                            F. Weigend, A. Kohn, C. Hattig, J. Chem. Phys. 116, 3175 (2002)
                    Sc-Zn : J. G. Hill, J. A. Platts, J. Chem. Phys. 128, 044104 (2008)

================================================================================
                                        WARNINGS
                       Please study these warnings very carefully!
================================================================================

INFO   : Checking CIS options ...
  ===> : (D) CORRECTION FOUND - SETTING MODE=3
  ===> : JK MODE FOUND - ACTIVATING RI-MP2 CODE
  ===> : MP2 AND CIS FOUND - CHECKING
WARNING: CIS(D) and MP2 runs must have the same orbital window
  ===> : adjusting orbital windows

WARNING: No MP2 level density has been requested!
         To caclulate MP2 level properties use
         %mp2 Density relaxed end
         or
         %mp2 Density unrelaxed end
         Otherwise for double-hybrid DFT only the energy is correct!

WARNING: The frozen-core approximation is turned on by default for 
         the MP2 part of double-hybrid DFT.

INFO   : the flag for use of the SHARK integral package has been found!

================================================================================
                                       INPUT FILE
================================================================================
NAME = optpbed3-b2plyp-test-69.inp
|  1> ! pbe0 d3bj aug-cc-PVTZ RIJCOSX Opt
|  2> %maxcore 4000
|  3> %basis
|  4>  AuxJ "aug-cc-PVTZ/JK"
|  5>  AuxC "aug-cc-PVTZ/C"
|  6>  newGTO H "cc-PVTZ" end
|  7>  newAuxJGTO H "cc-PVTZ/JK" end
|  8>  newAuxCGTO H "cc-PVTZ/C" end
|  9> end
| 10> %cpcm
| 11>  SMD true
| 12>  SMDsolvent "ethanol"
| 13> end
| 14> %pal nprocs 4 end
| 15> * xyz 0 1
| 16> C          7.24800       -1.22270        2.23360
| 17> C          6.08640       -1.15710        1.93620
| 18> C          4.71810       -1.09290        1.58660
| 19> C          3.96790       -2.27590        1.48280
| 20> C          2.63970       -2.22220        1.14610
| 21> C          2.01260       -0.99100        0.90120
| 22> C          0.63920       -0.86440        0.55120
| 23> C          0.08140        0.35660        0.32470
| 24> C         -1.30030        0.58900       -0.03280
| 25> C         -2.25920       -0.34030       -0.13120
| 26> C         -3.65300       -0.03840       -0.49950
| 27> O         -4.51370       -0.88400       -0.57910
| 28> O         -3.86270        1.26410       -0.72410
| 29> C         -5.18270        1.65080       -1.10140
| 30> C         -5.42650        1.42950       -2.58770
| 31> C          0.91290        1.56900        0.43550
| 32> O          0.52010        2.69120        0.24690
| 33> O          2.22370        1.40170        0.77740
| 34> C          2.77300        0.18830        1.00570
| 35> C          4.11820        0.13760        1.34720
| 36> H          8.26340       -1.27520        2.49310
| 37> H          4.45120       -3.22230        1.67150
| 38> H          2.05650       -3.12720        1.06490
| 39> H          0.04900       -1.76520        0.46740
| 40> H         -1.54450        1.62570       -0.22340
| 41> H         -2.08230       -1.38940        0.05630
| 42> H         -5.24940        2.71000       -0.84480
| 43> H         -5.90450        1.07610       -0.51120
| 44> H         -6.41210        1.79980       -2.85420
| 45> H         -5.37460        0.36820       -2.81750
| 46> H         -4.67690        1.95610       -3.17340
| 47> H          4.68130        1.05420        1.42250
| 48> *
| 49> 
| 50> 
| 51> $new_job
| 52> ! b2plyp aug-cc-PVTZ RIJCOSX SP
| 53> %maxcore 4000
| 54> %basis
| 55>  AuxJ "aug-cc-PVTZ/JK"
| 56>  AuxC "aug-cc-PVTZ/C"
| 57>  newGTO H "cc-PVTZ" end
| 58>  newAuxJGTO H "cc-PVTZ/JK" end
| 59>  newAuxCGTO H "cc-PVTZ/C" end
| 60> end
| 61> %cpcm
| 62>  SMD true
| 63>  SMDsolvent "ethanol"
| 64> end
| 65> %pal nprocs 4 end
| 66> %tddft
| 67>  nroots 10
| 68>  maxdim 7
| 69> end
| 70> * xyzfile 0 1
| 71> 
| 72>                          ****END OF INPUT****
================================================================================


                 $$$$$$$$$$$$$$$$$$$$$$$$$$$$$$$$$$$$$$$$$$$$$$ 
                 $ THERE ARE  2 JOBS TO BE PROCESSED THIS RUN $
                 $$$$$$$$$$$$$$$$$$$$$$$$$$$$$$$$$$$$$$$$$$$$$$ 




                 $$$$$$$$$$$$$$$$  JOB NUMBER  1 $$$$$$$$$$$$$$


                       *****************************
                       * Geometry Optimization Run *
                       *****************************

Geometry optimization settings:
Update method            Update   .... BFGS
Choice of coordinates    CoordSys .... Z-matrix Internals
Initial Hessian          InHess   .... Almoef's Model

Convergence Tolerances:
Energy Change            TolE     ....  5.0000e-06 Eh
Max. Gradient            TolMAXG  ....  3.0000e-04 Eh/bohr
RMS Gradient             TolRMSG  ....  1.0000e-04 Eh/bohr
Max. Displacement        TolMAXD  ....  4.0000e-03 bohr
RMS Displacement         TolRMSD  ....  2.0000e-03 bohr
Strict Convergence                ....  False
------------------------------------------------------------------------------
                        ORCA OPTIMIZATION COORDINATE SETUP
------------------------------------------------------------------------------

The optimization will be done in new redundant internal coordinates
Making redundant internal coordinates   ...  (new redundants) done
Evaluating the initial hessian          ...  (Almloef) done
Evaluating the coordinates              ...  done
Calculating the B-matrix                .... done
Calculating the G-matrix                .... done
Diagonalizing the G-matrix              .... done
Small eigenvalue found = 2.441e-03
Small eigenvalue found = 6.654e-03
Small eigenvalue found = 1.420e-02
Small eigenvalue found = 2.021e-02
Small eigenvalue found = 2.443e-02
The first mode is                       ....   63
The number of degrees of freedom        ....   90

    -----------------------------------------------------------------
                    Redundant Internal Coordinates


    -----------------------------------------------------------------
         Definition                    Initial Value    Approx d2E/dq
    -----------------------------------------------------------------
      1. B(C   1,C   0)                  1.2009         1.251698   
      2. B(C   2,C   1)                  1.4137         0.572670   
      3. B(C   3,C   2)                  1.4047         0.592043   
      4. B(C   4,C   3)                  1.3713         0.669314   
      5. B(C   5,C   4)                  1.4032         0.595133   
      6. B(C   6,C   5)                  1.4229         0.553588   
      7. B(C   7,C   6)                  1.3614         0.694132   
      8. B(C   8,C   7)                  1.4460         0.508624   
      9. B(C   9,C   8)                  1.3389         0.753695   
     10. B(C  10,C   9)                  1.4729         0.460744   
     11. B(O  11,C  10)                  1.2092         1.087227   
     12. B(O  12,C  10)                  1.3383         0.676756   
     13. B(C  13,O  12)                  1.4263         0.489760   
     14. B(C  14,C  13)                  1.5223         0.384245   
     15. B(C  15,C   7)                  1.4743         0.458386   
     16. B(O  16,C  15)                  1.2038         1.108934   
     17. B(O  17,C  15)                  1.3649         0.613543   
     18. B(C  18,O  17)                  1.3514         0.644931   
     19. B(C  18,C   5)                  1.4071         0.586796   
     20. B(C  19,C  18)                  1.3888         0.627565   
     21. B(C  19,C   2)                  1.3897         0.625439   
     22. B(H  20,C   0)                  1.0493         0.418099   
     23. B(H  21,C   3)                  1.0793         0.374555   
     24. B(H  22,C   4)                  1.0797         0.373994   
     25. B(H  23,C   6)                  1.0802         0.373321   
     26. B(H  24,C   8)                  1.0820         0.370850   
     27. B(H  25,C   9)                  1.0803         0.373155   
     28. B(H  26,C  13)                  1.0919         0.357624   
     29. B(H  27,C  13)                  1.0953         0.353198   
     30. B(H  28,C  14)                  1.0861         0.365334   
     31. B(H  29,C  14)                  1.0871         0.363912   
     32. B(H  30,C  14)                  1.0873         0.363671   
     33. B(H  31,C  19)                  1.0784         0.375802   
     34. L(C   1,C   0,H  20, 2)       179.7275         0.409030   
     35. L(C   1,C   0,H  20, 1)       179.9752         0.409030   
     36. L(C   0,C   1,C   2,C   3, 2) 180.0172         0.486332   
     37. L(C   0,C   1,C   2,C   3, 1) 179.4707         0.486332   
     38. A(C   1,C   2,C   3)          119.7985         0.424398   
     39. A(C   3,C   2,C  19)          120.1610         0.431157   
     40. A(C   1,C   2,C  19)          120.0405         0.428590   
     41. A(C   2,C   3,H  21)          119.1058         0.352504   
     42. A(C   2,C   3,C   4)          120.1636         0.436448   
     43. A(C   4,C   3,H  21)          120.7306         0.359923   
     44. A(C   3,C   4,H  22)          120.5860         0.359831   
     45. A(C   3,C   4,C   5)          120.6686         0.436858   
     46. A(C   5,C   4,H  22)          118.7454         0.352725   
     47. A(C   4,C   5,C   6)          123.5268         0.422228   
     48. A(C   6,C   5,C  18)          117.7293         0.421166   
     49. A(C   4,C   5,C  18)          118.7439         0.426651   
     50. A(C   5,C   6,C   7)          121.0775         0.434038   
     51. A(C   7,C   6,H  23)          120.7418         0.361961   
     52. A(C   5,C   6,H  23)          118.1806         0.348335   
     53. A(C   8,C   7,C  15)          115.1714         0.397143   
     54. A(C   6,C   7,C  15)          119.6021         0.419611   
     55. A(C   6,C   7,C   8)          125.2260         0.427486   
     56. A(C   9,C   8,H  24)          119.3683         0.366677   
     57. A(C   7,C   8,H  24)          114.4062         0.343028   
     58. A(C   7,C   8,C   9)          126.2236         0.433852   
     59. A(C  10,C   9,H  25)          113.4158         0.337755   
     60. A(C   8,C   9,H  25)          122.9549         0.367067   
     61. A(C   8,C   9,C  10)          123.6290         0.426221   
     62. A(O  11,C  10,O  12)          123.9200         0.482138   
     63. A(C   9,C  10,O  12)          112.9382         0.415393   
     64. A(C   9,C  10,O  11)          123.1398         0.452364   
     65. A(C  10,O  12,C  13)          116.9554         0.417214   
     66. A(O  12,C  13,C  14)          111.5352         0.380143   
     67. A(H  26,C  13,H  27)          110.0057         0.289644   
     68. A(C  14,C  13,H  27)          110.1385         0.324789   
     69. A(O  12,C  13,H  27)          108.9715         0.336050   
     70. A(C  14,C  13,H  26)          111.1420         0.325454   
     71. A(O  12,C  13,H  26)          104.9145         0.336747   
     72. A(H  28,C  14,H  30)          109.1670         0.291952   
     73. A(H  29,C  14,H  30)          109.0278         0.291773   
     74. A(C  13,C  14,H  30)          110.1882         0.326353   
     75. A(H  28,C  14,H  29)          108.9236         0.291983   
     76. A(C  13,C  14,H  29)          109.9163         0.326389   
     77. A(C  13,C  14,H  28)          109.5933         0.326598   
     78. A(O  16,C  15,O  17)          117.8300         0.475233   
     79. A(C   7,C  15,O  17)          117.3645         0.407859   
     80. A(C   7,C  15,O  16)          124.8054         0.453570   
     81. A(C  15,O  17,C  18)          122.8693         0.430642   
     82. A(O  17,C  18,C  19)          117.9071         0.435243   
     83. A(C   5,C  18,C  19)          120.7378         0.430731   
     84. A(C   5,C  18,O  17)          121.3551         0.430019   
     85. A(C   2,C  19,C  18)          119.5249         0.435699   
     86. A(C  18,C  19,H  31)          119.4669         0.356203   
     87. A(C   2,C  19,H  31)          121.0082         0.355998   
     88. D(H  21,C   3,C   2,C   1)     -0.0832         0.024130   
     89. D(C   4,C   3,C   2,C   1)    179.9050         0.024130   
     90. D(H  21,C   3,C   2,C  19)    179.9447         0.024130   
     91. D(C   4,C   3,C   2,C  19)     -0.0670         0.024130   
     92. D(C   5,C   4,C   3,C   2)      0.0039         0.031325   
     93. D(C   5,C   4,C   3,H  21)    179.9920         0.031325   
     94. D(H  22,C   4,C   3,C   2)   -179.9680         0.031325   
     95. D(H  22,C   4,C   3,H  21)      0.0200         0.031325   
     96. D(C  18,C   5,C   4,H  22)   -179.9362         0.024396   
     97. D(C  18,C   5,C   4,C   3)      0.0914         0.024396   
     98. D(C   6,C   5,C   4,H  22)      0.1231         0.024396   
     99. D(C   6,C   5,C   4,C   3)   -179.8494         0.024396   
    100. D(H  23,C   6,C   5,C   4)     -0.1549         0.020974   
    101. D(C   7,C   6,C   5,C  18)      0.0367         0.020974   
    102. D(H  23,C   6,C   5,C  18)    179.9038         0.020974   
    103. D(C   7,C   6,C   5,C   4)    179.9780         0.020974   
    104. D(C  15,C   7,C   6,H  23)   -179.5116         0.033887   
    105. D(C  15,C   7,C   6,C   5)      0.3521         0.033887   
    106. D(C   8,C   7,C   6,H  23)      0.2391         0.033887   
    107. D(C   8,C   7,C   6,C   5)   -179.8971         0.033887   
    108. D(H  24,C   8,C   7,C  15)      2.8501         0.017629   
    109. D(C   9,C   8,C   7,C   6)      3.6087         0.017629   
    110. D(C   9,C   8,C   7,C  15)   -176.6307         0.017629   
    111. D(H  24,C   8,C   7,C   6)   -176.9104         0.017629   
    112. D(H  25,C   9,C   8,H  24)   -179.3476         0.040550   
    113. D(H  25,C   9,C   8,C   7)      0.1100         0.040550   
    114. D(C  10,C   9,C   8,H  24)      0.4708         0.040550   
    115. D(C  10,C   9,C   8,C   7)    179.9283         0.040550   
    116. D(O  12,C  10,C   9,C   8)     -0.0969         0.014460   
    117. D(O  11,C  10,C   9,H  25)      0.2249         0.014460   
    118. D(O  11,C  10,C   9,C   8)   -179.6090         0.014460   
    119. D(O  12,C  10,C   9,H  25)    179.7369         0.014460   
    120. D(C  13,O  12,C  10,O  11)     -1.1421         0.034083   
    121. D(C  13,O  12,C  10,C   9)    179.3503         0.034083   
    122. D(H  27,C  13,O  12,C  10)     40.0528         0.018940   
    123. D(H  26,C  13,O  12,C  10)    157.8239         0.018940   
    124. D(C  14,C  13,O  12,C  10)    -81.7535         0.018940   
    125. D(H  30,C  14,C  13,H  27)   -176.9145         0.011754   
    126. D(H  30,C  14,C  13,H  26)     60.9110         0.011754   
    127. D(H  30,C  14,C  13,O  12)    -55.7856         0.011754   
    128. D(H  29,C  14,C  13,H  27)    -56.7366         0.011754   
    129. D(H  29,C  14,C  13,H  26)   -178.9110         0.011754   
    130. D(H  29,C  14,C  13,O  12)     64.3924         0.011754   
    131. D(H  28,C  14,C  13,H  27)     62.9401         0.011754   
    132. D(H  28,C  14,C  13,H  26)    -59.2344         0.011754   
    133. D(H  28,C  14,C  13,O  12)   -175.9309         0.011754   
    134. D(O  17,C  15,C   7,C   8)    179.6866         0.014315   
    135. D(O  17,C  15,C   7,C   6)     -0.5384         0.014315   
    136. D(O  16,C  15,C   7,C   8)     -0.3073         0.014315   
    137. D(O  16,C  15,C   7,C   6)    179.4677         0.014315   
    138. D(C  18,O  17,C  15,O  16)   -179.6659         0.027577   
    139. D(C  18,O  17,C  15,C   7)      0.3398         0.027577   
    140. D(C  19,C  18,O  17,C  15)    179.9831         0.030701   
    141. D(C   5,C  18,O  17,C  15)      0.0499         0.030701   
    142. D(C  19,C  18,C   5,C   6)    179.8176         0.023683   
    143. D(C  19,C  18,C   5,C   4)     -0.1266         0.023683   
    144. D(O  17,C  18,C   5,C   6)     -0.2511         0.023683   
    145. D(O  17,C  18,C   5,C   4)    179.8047         0.023683   
    146. D(C   2,C  19,C  18,C   5)      0.0655         0.027293   
    147. D(H  31,C  19,C   2,C   3)   -179.9668         0.027097   
    148. D(H  31,C  19,C   2,C   1)      0.0613         0.027097   
    149. D(C  18,C  19,C   2,C   3)      0.0320         0.027097   
    150. D(C  18,C  19,C   2,C   1)   -179.9400         0.027097   
    151. D(H  31,C  19,C  18,O  17)      0.1306         0.027293   
    152. D(H  31,C  19,C  18,C   5)   -179.9358         0.027293   
    153. D(C   2,C  19,C  18,O  17)   -179.8681         0.027293   
    -----------------------------------------------------------------

Number of atoms                         .... 32
Number of degrees of freedom            .... 153

         *************************************************************
         *                GEOMETRY OPTIMIZATION CYCLE   1            *
         *************************************************************
---------------------------------
CARTESIAN COORDINATES (ANGSTROEM)
---------------------------------
  C      7.248000   -1.222700    2.233600
  C      6.086400   -1.157100    1.936200
  C      4.718100   -1.092900    1.586600
  C      3.967900   -2.275900    1.482800
  C      2.639700   -2.222200    1.146100
  C      2.012600   -0.991000    0.901200
  C      0.639200   -0.864400    0.551200
  C      0.081400    0.356600    0.324700
  C     -1.300300    0.589000   -0.032800
  C     -2.259200   -0.340300   -0.131200
  C     -3.653000   -0.038400   -0.499500
  O     -4.513700   -0.884000   -0.579100
  O     -3.862700    1.264100   -0.724100
  C     -5.182700    1.650800   -1.101400
  C     -5.426500    1.429500   -2.587700
  C      0.912900    1.569000    0.435500
  O      0.520100    2.691200    0.246900
  O      2.223700    1.401700    0.777400
  C      2.773000    0.188300    1.005700
  C      4.118200    0.137600    1.347200
  H      8.263400   -1.275200    2.493100
  H      4.451200   -3.222300    1.671500
  H      2.056500   -3.127200    1.064900
  H      0.049000   -1.765200    0.467400
  H     -1.544500    1.625700   -0.223400
  H     -2.082300   -1.389400    0.056300
  H     -5.249400    2.710000   -0.844800
  H     -5.904500    1.076100   -0.511200
  H     -6.412100    1.799800   -2.854200
  H     -5.374600    0.368200   -2.817500
  H     -4.676900    1.956100   -3.173400
  H      4.681300    1.054200    1.422500

----------------------------
CARTESIAN COORDINATES (A.U.)
----------------------------
  NO LB      ZA    FRAG     MASS         X           Y           Z
   0 C     6.0000    0    12.011   13.696735   -2.310568    4.220892
   1 C     6.0000    0    12.011   11.501629   -2.186602    3.658888
   2 C     6.0000    0    12.011    8.915917   -2.065282    2.998239
   3 C     6.0000    0    12.011    7.498244   -4.300828    2.802086
   4 C     6.0000    0    12.011    4.988310   -4.199349    2.165815
   5 C     6.0000    0    12.011    3.803263   -1.872719    1.703021
   6 C     6.0000    0    12.011    1.207913   -1.633479    1.041617
   7 C     6.0000    0    12.011    0.153824    0.673876    0.613594
   8 C     6.0000    0    12.011   -2.457211    1.113049   -0.061983
   9 C     6.0000    0    12.011   -4.269269   -0.643074   -0.247932
  10 C     6.0000    0    12.011   -6.903170   -0.072565   -0.943918
  11 O     8.0000    0    15.999   -8.529657   -1.670518   -1.094340
  12 O     8.0000    0    15.999   -7.299445    2.388803   -1.368351
  13 C     6.0000    0    12.011   -9.793884    3.119560   -2.081344
  14 C     6.0000    0    12.011  -10.254599    2.701364   -4.890044
  15 C     6.0000    0    12.011    1.725131    2.964980    0.822976
  16 O     8.0000    0    15.999    0.982847    5.085631    0.466573
  17 O     8.0000    0    15.999    4.202184    2.648829    1.469073
  18 C     6.0000    0    12.011    5.240211    0.355835    1.900498
  19 C     6.0000    0    12.011    7.782270    0.260026    2.545839
  20 H     1.0000    0     1.008   15.615563   -2.409779    4.711276
  21 H     1.0000    0     1.008    8.411549   -6.089265    3.158677
  22 H     1.0000    0     1.008    3.886222   -5.909552    2.012369
  23 H     1.0000    0     1.008    0.092597   -3.335745    0.883258
  24 H     1.0000    0     1.008   -2.918682    3.072128   -0.422165
  25 H     1.0000    0     1.008   -3.934977   -2.625585    0.106392
  26 H     1.0000    0     1.008   -9.919928    5.121158   -1.596441
  27 H     1.0000    0     1.008  -11.157888    2.033534   -0.966028
  28 H     1.0000    0     1.008  -12.117113    3.401129   -5.393656
  29 H     1.0000    0     1.008  -10.156522    0.695797   -5.324303
  30 H     1.0000    0     1.008   -8.838060    3.696493   -5.996857
  31 H     1.0000    0     1.008    8.846375    1.992149    2.688135

--------------------------------
INTERNAL COORDINATES (ANGSTROEM)
--------------------------------
 C      0   0   0     0.000000000000     0.00000000     0.00000000
 C      1   0   0     1.200859975184     0.00000000     0.00000000
 C      2   1   0     1.413713793524   179.47058725     0.00000000
 C      3   2   1     1.404657780386   119.79852240     0.94322462
 C      4   3   2     1.371264314419   120.16361245   179.90497556
 C      5   4   3     1.403240485448   120.66862607     0.00000000
 C      6   5   4     1.422938902413   123.52675597   180.15064421
 C      7   6   5     1.361353771068   121.07746025   179.97797090
 C      8   7   6     1.445998236513   125.22602978   180.10285806
 C      9   8   7     1.338943710542   126.22358861     3.60874579
 C     10   9   8     1.472911042799   123.62900803   179.92826008
 O     11  10   9     1.209206355425   123.13982936   180.39100526
 O     11  10   9     1.338254646919   112.93821400   359.90307042
 C     13  11  10     1.426286149410   116.95537672   179.35025407
 C     14  13  11     1.522333675644   111.53523590   278.24653929
 C      8   7   6     1.474307515412   119.60214899     0.35209622
 O     16   8   7     1.203825003894   124.80542756   179.46771540
 O     16   8   7     1.364947449538   117.36454012   359.46161184
 C     18  16   8     1.351366323393   122.86933029     0.33975988
 C     19  18  16     1.388796522173   117.90705478   179.98307313
 H      1   2   3     1.049349160194   179.73511418   177.68986691
 H      4   3   2     1.079286588446   119.10580811   359.91675164
 H      5   4   3     1.079694716112   120.58597900   180.03201423
 H      7   6   5     1.080184761974   118.18060539   359.84509498
 H      9   8   7     1.081993017538   114.40615491   183.08957492
 H     10   9   8     1.080305822441   122.95494941     0.10995322
 H     14  13  11     1.091877781622   104.91449824   157.82391662
 H     14  13  11     1.095267716132   108.97152311    40.05281395
 H     15  14  13     1.086071682717   109.59328530   184.06906354
 H     15  14  13     1.087133542855   109.91630643    64.39240817
 H     15  14  13     1.087314218614   110.18820754   304.21444522
 H     20  19  18     1.078381778407   119.46685826     0.13062684

---------------------------
INTERNAL COORDINATES (A.U.)
---------------------------
 C      0   0   0     0.000000000000     0.00000000     0.00000000
 C      1   0   0     2.269296478286     0.00000000     0.00000000
 C      2   1   0     2.671531901507   179.47058725     0.00000000
 C      3   2   1     2.654418516812   119.79852240     0.94322462
 C      4   3   2     2.591314011472   120.16361245   179.90497556
 C      5   4   3     2.651740217527   120.66862607     0.00000000
 C      6   5   4     2.688964830863   123.52675597   180.15064421
 C      7   6   5     2.572585798699   121.07746025   179.97797090
 C      8   7   6     2.732540657144   125.22602978   180.10285806
 C      9   8   7     2.530236921661   126.22358861     3.60874579
 C     10   9   8     2.783398490519   123.62900803   179.92826008
 O     11  10   9     2.285068851150   123.13982936   180.39100526
 O     11  10   9     2.528934780124   112.93821400   359.90307042
 C     13  11  10     2.695290210991   116.95537672   179.35025407
 C     14  13  11     2.876793731413   111.53523590   278.24653929
 C      8   7   6     2.786037441310   119.60214899     0.35209622
 O     16   8   7     2.274899570526   124.80542756   179.46771540
 O     16   8   7     2.579376866821   117.36454012   359.46161184
 C     18  16   8     2.553712257816   122.86933029     0.33975988
 C     19  18  16     2.624445082649   117.90705478   179.98307313
 H      1   2   3     1.982982531627   179.73511418   177.68986691
 H      4   3   2     2.039556072178   119.10580811   359.91675164
 H      5   4   3     2.040327321693   120.58597900   180.03201423
 H      7   6   5     2.041253374165   118.18060539   359.84509498
 H      9   8   7     2.044670481961   114.40615491   183.08957492
 H     10   9   8     2.041482145294   122.95494941     0.10995322
 H     14  13  11     2.063349978979   104.91449824   157.82391662
 H     14  13  11     2.069756026814   108.97152311    40.05281395
 H     15  14  13     2.052378042142   109.59328530   184.06906354
 H     15  14  13     2.054384666995   109.91630643    64.39240817
 H     15  14  13     2.054726094699   110.18820754   304.21444522
 H     20  19  18     2.037846229000   119.46685826     0.13062684

---------------------
BASIS SET INFORMATION
---------------------
There are 3 groups of distinct atoms

 Group   1 Type C   : 19s6p3d2f contracted to 5s4p3d2f pattern {88111/3111/111/11}
 Group   2 Type O   : 19s6p3d2f contracted to 5s4p3d2f pattern {88111/3111/111/11}
 Group   3 Type H   : 5s2p1d contracted to 3s2p1d pattern {311/11/1}

Atom   0C    basis set group =>   1
Atom   1C    basis set group =>   1
Atom   2C    basis set group =>   1
Atom   3C    basis set group =>   1
Atom   4C    basis set group =>   1
Atom   5C    basis set group =>   1
Atom   6C    basis set group =>   1
Atom   7C    basis set group =>   1
Atom   8C    basis set group =>   1
Atom   9C    basis set group =>   1
Atom  10C    basis set group =>   1
Atom  11O    basis set group =>   2
Atom  12O    basis set group =>   2
Atom  13C    basis set group =>   1
Atom  14C    basis set group =>   1
Atom  15C    basis set group =>   1
Atom  16O    basis set group =>   2
Atom  17O    basis set group =>   2
Atom  18C    basis set group =>   1
Atom  19C    basis set group =>   1
Atom  20H    basis set group =>   3
Atom  21H    basis set group =>   3
Atom  22H    basis set group =>   3
Atom  23H    basis set group =>   3
Atom  24H    basis set group =>   3
Atom  25H    basis set group =>   3
Atom  26H    basis set group =>   3
Atom  27H    basis set group =>   3
Atom  28H    basis set group =>   3
Atom  29H    basis set group =>   3
Atom  30H    basis set group =>   3
Atom  31H    basis set group =>   3
---------------------------------
AUXILIARY/J BASIS SET INFORMATION
---------------------------------
There are 3 groups of distinct atoms

 Group   1 Type C   : 10s7p5d2f1g contracted to 10s7p5d2f1g pattern {1111111111/1111111/11111/11/1}
 Group   2 Type O   : 10s7p5d2f1g contracted to 10s7p5d2f1g pattern {1111111111/1111111/11111/11/1}
 Group   3 Type H   : 4s3p2d1f contracted to 4s3p2d1f pattern {1111/111/11/1}

Atom   0C    basis set group =>   1
Atom   1C    basis set group =>   1
Atom   2C    basis set group =>   1
Atom   3C    basis set group =>   1
Atom   4C    basis set group =>   1
Atom   5C    basis set group =>   1
Atom   6C    basis set group =>   1
Atom   7C    basis set group =>   1
Atom   8C    basis set group =>   1
Atom   9C    basis set group =>   1
Atom  10C    basis set group =>   1
Atom  11O    basis set group =>   2
Atom  12O    basis set group =>   2
Atom  13C    basis set group =>   1
Atom  14C    basis set group =>   1
Atom  15C    basis set group =>   1
Atom  16O    basis set group =>   2
Atom  17O    basis set group =>   2
Atom  18C    basis set group =>   1
Atom  19C    basis set group =>   1
Atom  20H    basis set group =>   3
Atom  21H    basis set group =>   3
Atom  22H    basis set group =>   3
Atom  23H    basis set group =>   3
Atom  24H    basis set group =>   3
Atom  25H    basis set group =>   3
Atom  26H    basis set group =>   3
Atom  27H    basis set group =>   3
Atom  28H    basis set group =>   3
Atom  29H    basis set group =>   3
Atom  30H    basis set group =>   3
Atom  31H    basis set group =>   3
---------------------------------
AUXILIARY/C BASIS SET INFORMATION
---------------------------------
There are 3 groups of distinct atoms

 Group   1 Type C   : 9s7p6d4f2g contracted to 9s7p6d4f2g pattern {111111111/1111111/111111/1111/11}
 Group   2 Type O   : 9s7p6d4f2g contracted to 9s7p6d4f2g pattern {111111111/1111111/111111/1111/11}
 Group   3 Type H   : 4s3p2d1f contracted to 4s3p2d1f pattern {1111/111/11/1}

Atom   0C    basis set group =>   1
Atom   1C    basis set group =>   1
Atom   2C    basis set group =>   1
Atom   3C    basis set group =>   1
Atom   4C    basis set group =>   1
Atom   5C    basis set group =>   1
Atom   6C    basis set group =>   1
Atom   7C    basis set group =>   1
Atom   8C    basis set group =>   1
Atom   9C    basis set group =>   1
Atom  10C    basis set group =>   1
Atom  11O    basis set group =>   2
Atom  12O    basis set group =>   2
Atom  13C    basis set group =>   1
Atom  14C    basis set group =>   1
Atom  15C    basis set group =>   1
Atom  16O    basis set group =>   2
Atom  17O    basis set group =>   2
Atom  18C    basis set group =>   1
Atom  19C    basis set group =>   1
Atom  20H    basis set group =>   3
Atom  21H    basis set group =>   3
Atom  22H    basis set group =>   3
Atom  23H    basis set group =>   3
Atom  24H    basis set group =>   3
Atom  25H    basis set group =>   3
Atom  26H    basis set group =>   3
Atom  27H    basis set group =>   3
Atom  28H    basis set group =>   3
Atom  29H    basis set group =>   3
Atom  30H    basis set group =>   3
Atom  31H    basis set group =>   3


           ************************************************************
           *        Program running with 4 parallel MPI-processes     *
           *              working on a common directory               *
           ************************************************************
------------------------------------------------------------------------------
                           ORCA GTO INTEGRAL CALCULATION
                           -- RI-GTO INTEGRALS CHOSEN --
------------------------------------------------------------------------------
------------------------------------------------------------------------------
                   ___                                                        
                  /   \      - P O W E R E D   B Y -                         
                 /     \                                                     
                 |  |  |   _    _      __       _____    __    __             
                 |  |  |  | |  | |    /  \     |  _  \  |  |  /  |          
                  \  \/   | |  | |   /    \    | | | |  |  | /  /          
                 / \  \   | |__| |  /  /\  \   | |_| |  |  |/  /          
                |  |  |   |  __  | /  /__\  \  |    /   |      \           
                |  |  |   | |  | | |   __   |  |    \   |  |\   \          
                \     /   | |  | | |  |  |  |  | |\  \  |  | \   \       
                 \___/    |_|  |_| |__|  |__|  |_| \__\ |__|  \__/        
                                                                              
                      - O R C A' S   B I G   F R I E N D -                    
                                      &                                       
                       - I N T E G R A L  F E E D E R -                       
                                                                              
 v1 FN, 2020, v2 2021                                                         
------------------------------------------------------------------------------


Reading SHARK input file optpbed3-b2plyp-test-69.SHARKINP.tmp ... ok
----------------------
SHARK INTEGRAL PACKAGE
----------------------

Number of atoms                             ...     32
Number of basis functions                   ...   1208
Number of shells                            ...    472
Maximum angular momentum                    ...      3
Integral batch strategy                     ... SHARK/LIBINT Hybrid
RI-J (if used) integral strategy            ... SPLIT-RIJ (Revised 2003 algorithm where possible)
Printlevel                                  ...      1
Contraction scheme used                     ... PARTIAL GENERAL contraction
Coulomb Range Separation                    ... NOT USED
Exchange Range Separation                   ... NOT USED
Finite Nucleus Model                        ... NOT USED
Auxiliary Coulomb fitting basis             ... AVAILABLE
   # of basis functions in Aux-J            ...   1940
   # of shells in Aux-J                     ...    620
   Maximum angular momentum in Aux-J        ...      4
Auxiliary J/K fitting basis                 ... NOT available
Auxiliary Correlation fitting basis         ... AVAILABLE
   # of basis functions in Aux-C            ...   2480
   # of shells in Aux-C                     ...    680
   Maximum angular momentum in Aux-C        ...      4
Auxiliary 'external' fitting basis          ... NOT available
Integral threshold                          ...     2.500000e-11
Primitive cut-off                           ...     2.500000e-12
Primitive pair pre-selection threshold      ...     2.500000e-12

Calculating pre-screening integrals         ... done (  0.3 sec) Dimension = 472
Calculating pre-screening integrals (ORCA)  ... done (  0.6 sec) Dimension = 352
Organizing shell pair data                  ... done (  0.9 sec)
Shell pair information
Total number of shell pairs                 ...    111628
Shell pairs after pre-screening             ...     66486
Total number of primitive shell pairs       ...    144012
Primitive shell pairs kept                  ...     77664
          la=0 lb=0:  15050 shell pairs
          la=1 lb=0:  17112 shell pairs
          la=1 lb=1:   4166 shell pairs
          la=2 lb=0:  11095 shell pairs
          la=2 lb=1:   5497 shell pairs
          la=2 lb=2:   1859 shell pairs
          la=3 lb=0:   6051 shell pairs
          la=3 lb=1:   3031 shell pairs
          la=3 lb=2:   2039 shell pairs
          la=3 lb=3:    586 shell pairs

Calculating one electron integrals          ... done (  0.2 sec)
Calculating RI/J V-Matrix + Cholesky decomp.... done (  0.5 sec)
Calculating RI/C V-Matrix + Cholesky decomp.... done (  0.9 sec)
Calculating Nuclear repulsion               ... done (  0.0 sec) ENN=   1354.996445205405 Eh

SHARK setup successfully completed in   6.3 seconds

Maximum memory used throughout the entire GTOINT-calculation: 108.7 MB


           ************************************************************
           *        Program running with 4 parallel MPI-processes     *
           *              working on a common directory               *
           ************************************************************
-------------------------------------------------------------------------------
                                 ORCA SCF
-------------------------------------------------------------------------------

------------
SCF SETTINGS
------------
Hamiltonian:
 Density Functional     Method          .... DFT(GTOs)
 Exchange Functional    Exchange        .... PBE
   PBE kappa parameter   XKappa         ....  0.804000
   PBE mue parameter    XMuePBE         ....  0.219520
 Correlation Functional Correlation     .... PBE
   PBE beta parameter  CBetaPBE         ....  0.066725
 LDA part of GGA corr.  LDAOpt          .... PW91-LDA
 Gradients option       PostSCFGGA      .... off
 Hybrid DFT is turned on
   Fraction HF Exchange ScalHFX         ....  0.250000
   Scaling of DF-GGA-X  ScalDFX         ....  0.750000
   Scaling of DF-GGA-C  ScalDFC         ....  1.000000
   Scaling of DF-LDA-C  ScalLDAC        ....  1.000000
   Perturbative correction              ....  0.000000
   Density functional embedding theory  .... OFF
   NL short-range parameter             ....  6.900000
 RI-approximation to the Coulomb term is turned on
   Number of AuxJ basis functions       .... 1940
   RIJ-COSX (HFX calculated with COS-X)).... on


General Settings:
 Integral files         IntName         .... optpbed3-b2plyp-test-69
 Hartree-Fock type      HFTyp           .... RHF
 Total Charge           Charge          ....    0
 Multiplicity           Mult            ....    1
 Number of Electrons    NEL             ....  140
 Basis Dimension        Dim             .... 1088
 Nuclear Repulsion      ENuc            ....   1354.9964452054 Eh

Convergence Acceleration:
 DIIS                   CNVDIIS         .... on
   Start iteration      DIISMaxIt       ....    12
   Startup error        DIISStart       ....  0.200000
   # of expansion vecs  DIISMaxEq       ....     5
   Bias factor          DIISBfac        ....   1.050
   Max. coefficient     DIISMaxC        ....  10.000
 Trust-Rad. Augm. Hess. CNVTRAH         .... auto
   Auto Start mean grad. ratio tolernc. ....  1.125000
   Auto Start start iteration           ....    20
   Auto Start num. interpolation iter.  ....    10
   Max. Number of Micro iterations      ....    16
   Max. Number of Macro iterations      .... Maxiter - #DIIS iter
   Number of Davidson start vectors     ....     2
   Converg. threshold I  (grad. norm)   ....   1.000e-05
   Converg. threshold II (energy diff.) ....   1.000e-08
   Grad. Scal. Fac. for Micro threshold ....   0.100
   Minimum threshold for Micro iter.    ....   0.010
   NR start threshold (gradient norm)   ....   0.001
   Initial trust radius                 ....   0.400
   Minimum AH scaling param. (alpha)    ....   1.000
   Maximum AH scaling param. (alpha)    .... 1000.000
   Orbital update algorithm             .... Taylor
   White noise on init. David. guess    .... on
   Maximum white noise                  ....   0.010
   Quad. conv. algorithm                .... NR
 SOSCF                  CNVSOSCF        .... on
   Start iteration      SOSCFMaxIt      ....   150
   Startup grad/error   SOSCFStart      ....  0.003300
 Level Shifting         CNVShift        .... on
   Level shift para.    LevelShift      ....    0.2500
   Turn off err/grad.   ShiftErr        ....    0.0010
 Zerner damping         CNVZerner       .... off
 Static damping         CNVDamp         .... on
   Fraction old density DampFac         ....    0.7000
   Max. Damping (<1)    DampMax         ....    0.9800
   Min. Damping (>=0)   DampMin         ....    0.0000
   Turn off err/grad.   DampErr         ....    0.1000
 Fernandez-Rico         CNVRico         .... off

SCF Procedure:
 Maximum # iterations   MaxIter         ....   125
 SCF integral mode      SCFMode         .... Direct
   Integral package                     .... SHARK and LIBINT hybrid scheme
 Reset frequency        DirectResetFreq ....    20
 Integral Threshold     Thresh          ....  2.500e-11 Eh
 Primitive CutOff       TCut            ....  2.500e-12 Eh

Convergence Tolerance:
 Convergence Check Mode ConvCheckMode   .... Total+1el-Energy
 Convergence forced     ConvForced      .... 0
 Energy Change          TolE            ....  1.000e-08 Eh
 1-El. energy change                    ....  1.000e-05 Eh
 Orbital Gradient       TolG            ....  1.000e-05
 Orbital Rotation angle TolX            ....  1.000e-05
 DIIS Error             TolErr          ....  5.000e-07


Diagonalization of the overlap matrix:
Smallest eigenvalue                        ... 6.928e-07
Time for diagonalization                   ...    0.340 sec
Threshold for overlap eigenvalues          ... 1.000e-08
Number of eigenvalues below threshold      ... 0
Time for construction of square roots      ...    0.237 sec
Total time needed                          ...    0.583 sec

Time for model grid setup =    1.719 sec

------------------------------
INITIAL GUESS: MODEL POTENTIAL
------------------------------
Loading Hartree-Fock densities                     ... done
Calculating cut-offs                               ... done
Initializing the effective Hamiltonian             ... done
Setting up the integral package (SHARK)            ... done
Starting the Coulomb interaction                   ... done (   2.5 sec)
Reading the grid                                   ... done
Mapping shells                                     ... done
Starting the XC term evaluation                    ... done (   2.2 sec)
  promolecular density results
     # of electrons  =    139.999913738
     EX              =   -118.005956057
     EC              =     -4.695082624
     EX+EC           =   -122.701038682
Transforming the Hamiltonian                       ... done (   0.2 sec)
Diagonalizing the Hamiltonian                      ... done (   0.4 sec)
Back transforming the eigenvectors                 ... done (   0.1 sec)
Now organizing SCF variables                       ... done
                      ------------------
                      INITIAL GUESS DONE (   7.1 sec)
                      ------------------
-------------------
DFT GRID GENERATION
-------------------

General Integration Accuracy     IntAcc      ... 4.388
Radial Grid Type                 RadialGrid  ... OptM3 with GC (2021)
Angular Grid (max. ang.)         AngularGrid ... 4 (Lebedev-302)
Angular grid pruning method      GridPruning ... 4 (adaptive)
Weight generation scheme         WeightScheme... Becke
Basis function cutoff            BFCut       ... 1.0000e-11
Integration weight cutoff        WCut        ... 1.0000e-14
Angular grids for H and He will be reduced by one unit
Partially contracted basis set               ... off
Rotationally invariant grid construction     ... off

Total number of grid points                  ...   163748
Total number of batches                      ...     2574
Average number of points per batch           ...       63
Average number of grid points per atom       ...     5117
Time for grid setup =    2.970 sec

--------------------
COSX GRID GENERATION
--------------------

GRIDX 1
-------
General Integration Accuracy     IntAcc      ... 3.816
Radial Grid Type                 RadialGrid  ... OptM3 with GC (2021)
Angular Grid (max. ang.)         AngularGrid ... 1 (Lebedev-50)
Angular grid pruning method      GridPruning ... 4 (adaptive)
Weight generation scheme         WeightScheme... Becke
Basis function cutoff            BFCut       ... 1.0000e-11
Integration weight cutoff        WCut        ... 1.0000e-14
Angular grids for H and He will be reduced by one unit
Partially contracted basis set               ... on
Rotationally invariant grid construction     ... off

Total number of grid points                  ...    20851
Total number of batches                      ...      346
Average number of points per batch           ...       60
Average number of grid points per atom       ...      652
UseSFitting                                  ... on

GRIDX 2
-------
General Integration Accuracy     IntAcc      ... 4.020
Radial Grid Type                 RadialGrid  ... OptM3 with GC (2021)
Angular Grid (max. ang.)         AngularGrid ... 2 (Lebedev-110)
Angular grid pruning method      GridPruning ... 4 (adaptive)
Weight generation scheme         WeightScheme... Becke
Basis function cutoff            BFCut       ... 1.0000e-11
Integration weight cutoff        WCut        ... 1.0000e-14
Angular grids for H and He will be reduced by one unit
Partially contracted basis set               ... on
Rotationally invariant grid construction     ... off

Total number of grid points                  ...    50431
Total number of batches                      ...      804
Average number of points per batch           ...       62
Average number of grid points per atom       ...     1576
UseSFitting                                  ... on

GRIDX 3
-------
General Integration Accuracy     IntAcc      ... 4.338
Radial Grid Type                 RadialGrid  ... OptM3 with GC (2021)
Angular Grid (max. ang.)         AngularGrid ... 3 (Lebedev-194)
Angular grid pruning method      GridPruning ... 4 (adaptive)
Weight generation scheme         WeightScheme... Becke
Basis function cutoff            BFCut       ... 1.0000e-11
Integration weight cutoff        WCut        ... 1.0000e-14
Angular grids for H and He will be reduced by one unit
Partially contracted basis set               ... on
Rotationally invariant grid construction     ... off

Total number of grid points                  ...   108759
Total number of batches                      ...     1715
Average number of points per batch           ...       63
Average number of grid points per atom       ...     3399
UseSFitting                                  ... on

Time for X-Grid setup             =    7.872 sec


--------------------
CPCM SOLVATION MODEL
--------------------
CPCM parameters:
  Epsilon                                         ...      24.8520
  Refrac                                          ...       1.3611
  Rsolv                                           ...       1.3000
  Surface type                                    ... GAUSSIAN VDW
  Epsilon function type                           ...         CPCM
Solvent:                                     ... ETHANOL
SMD-CDS solvent descriptors:
  Soln                                       ...    1.3611
  Soln25                                     ...    1.3593
  Sola                                       ...    0.3700
  Solb                                       ...    0.4800
  Solg                                       ...   31.6200
  Solc                                       ...    0.0000
  Solh                                       ...    0.0000
Radii:
 Radius for C  used is    3.4960 Bohr (=   1.8500 Ang.)
 Radius for O  used is    3.0765 Bohr (=   1.6280 Ang.)
 Radius for H  used is    2.2677 Bohr (=   1.2000 Ang.)
Calculating surface                               ...        done! (  0.0s)
GEPOL surface points                              ...         1916
GEPOL Volume                                      ...    1792.2217
GEPOL Surface-area                                ...    1056.2519
Calculating surface distance matrix               ...        done! (  0.1s)
Performing Cholesky decomposition & store         ...        done! (  0.3s)
Overall time for CPCM initialization              ...                 0.4s
 re-compute Schwartz prescreening matrix in partically contracted basis (1) ...done (   0.276 sec)
--------------
SCF ITERATIONS
--------------
ITER       Energy         Delta-E        Max-DP      RMS-DP      [F,P]     Damp
               ***  Starting incremental Fock matrix formation  ***
  0   -916.6113159712   0.000000000000 0.16406036  0.00146065  0.2974814 0.7000
  1   -916.8183636851  -0.207047713870 0.16346730  0.00118042  0.1237193 0.7000
                               ***Turning on DIIS***
  2   -916.9042910391  -0.085927353983 0.35135118  0.00249315  0.0424436 0.0000
  3   -917.0437050802  -0.139414041145 0.09475112  0.00064961  0.0574699 0.0000
  4   -917.0689573253  -0.025252245110 0.03397910  0.00022793  0.0182705 0.0000
  5   -917.0706674633  -0.001710137972 0.01007734  0.00006731  0.0079588 0.0000
                      *** Initiating the SOSCF procedure ***
                           *** Shutting down DIIS ***
                      *** Re-Reading the Fockian *** 
                      *** Removing any level shift *** 
ITER      Energy       Delta-E        Grad      Rot      Max-DP    RMS-DP
  6   -917.07078397  -0.0001165088  0.000335  0.000335  0.004356  0.000034
               *** Restarting incremental Fock matrix formation ***
  7   -917.07077112   0.0000128516  0.000215  0.001126  0.094171  0.000761
  8   -917.07077378  -0.0000026555  0.000131  0.000461  0.029591  0.000245
  9   -917.07077499  -0.0000012144  0.000047  0.000256  0.032571  0.000253
 10   -917.07077531  -0.0000003156  0.000021  0.000050  0.012347  0.000085
 11   -917.07077531  -0.0000000035  0.000022  0.000076  0.006253  0.000063
 12   -917.07077536  -0.0000000533  0.000004  0.000011  0.007428  0.000052
 13   -917.07077537  -0.0000000082  0.000004  0.000010  0.008949  0.000047
                  ***Gradient check signals convergence***
              ***Rediagonalizing the Fockian in SOSCF/NRSCF***

               *****************************************************
               *                     SUCCESS                       *
               *           SCF CONVERGED AFTER  14 CYCLES          *
               *****************************************************

Old exchange energy                            =    -30.036415027 Eh
New exchange energy                            =    -30.036329179 Eh
Exchange energy change after final integration =      0.000085848 Eh
Total energy after final integration           =   -917.070689522 Eh
Final COS-X integration done in                =   135.799 sec

SMD CDS free energy correction energy :                 3.83394     Kcal/mol
Total Energy after SMD CDS correction =              -917.064579744 Eh

----------------
TOTAL SCF ENERGY
----------------

Total Energy       :         -917.06457974 Eh          -24954.59588 eV

Components:
Nuclear Repulsion  :         1354.99644521 Eh           36871.32778 eV
Electronic Energy  :        -2272.06102495 Eh          -61825.92366 eV
One Electron Energy:        -3936.86580976 Eh         -107127.56494 eV
Two Electron Energy:         1664.80478481 Eh           45301.64129 eV
Max COSX asymmetry :            0.00004428 Eh               0.00121 eV
CPCM Dielectric    :           -0.03488433 Eh              -0.94925 eV
SMD CDS (Gcds)     :            0.00610978 Eh               0.16626 eV

Virial components:
Potential Energy   :        -1829.02752888 Eh          -49770.36934 eV
Kinetic Energy     :          911.96294913 Eh           24815.77346 eV
Virial Ratio       :            2.00559412


DFT components:
N(Alpha)           :       69.999980740399 electrons
N(Beta)            :       69.999980740399 electrons
N(Total)           :      139.999961480798 electrons
E(X)               :      -89.952496157738 Eh       
E(C)               :       -4.701339627156 Eh       
E(XC)              :      -94.653835784893 Eh       
DFET-embed. en.    :        0.000000000000 Eh       
CPCM Solvation Model Properties:
Surface-charge          :           -0.06205056
Charge-correction       :           -0.00003352 Eh              -0.00091 eV
Free-energy (cav+disp)  :            0.00610978 Eh               0.16626 eV

---------------
SCF CONVERGENCE
---------------

  Last Energy change         ...    1.5697e-09  Tolerance :   1.0000e-08
  Last MAX-Density change    ...    3.3307e-15  Tolerance :   1.0000e-07
  Last RMS-Density change    ...    1.4065e-17  Tolerance :   5.0000e-09
  Last Orbital Gradient      ...    1.7128e-06  Tolerance :   1.0000e-05
  Last Orbital Rotation      ...    6.2728e-06  Tolerance :   1.0000e-05

             **** THE GBW FILE WAS UPDATED (optpbed3-b2plyp-test-69.gbw) ****
             **** DENSITY optpbed3-b2plyp-test-69.scfp WAS UPDATED ****
             **** ENERGY FILE WAS UPDATED (optpbed3-b2plyp-test-69.en.tmp) ****
             **** THE GBW FILE WAS UPDATED (optpbed3-b2plyp-test-69.gbw) ****
             **** DENSITY optpbed3-b2plyp-test-69.scfp WAS UPDATED ****
----------------
ORBITAL ENERGIES
----------------

  NO   OCC          E(Eh)            E(eV) 
   0   2.0000     -19.297295      -525.1061 
   1   2.0000     -19.258056      -524.0383 
   2   2.0000     -19.210831      -522.7533 
   3   2.0000     -19.203977      -522.5668 
   4   2.0000     -10.376050      -282.3467 
   5   2.0000     -10.359960      -281.9088 
   6   2.0000     -10.321367      -280.8587 
   7   2.0000     -10.277153      -279.6556 
   8   2.0000     -10.273695      -279.5615 
   9   2.0000     -10.271292      -279.4961 
  10   2.0000     -10.267352      -279.3889 
  11   2.0000     -10.263668      -279.2886 
  12   2.0000     -10.256077      -279.0820 
  13   2.0000     -10.250297      -278.9248 
  14   2.0000     -10.250050      -278.9180 
  15   2.0000     -10.244748      -278.7738 
  16   2.0000     -10.243580      -278.7420 
  17   2.0000     -10.242790      -278.7205 
  18   2.0000     -10.233749      -278.4745 
  19   2.0000     -10.207784      -277.7679 
  20   2.0000      -1.175902       -31.9979 
  21   2.0000      -1.145842       -31.1799 
  22   2.0000      -1.083975       -29.4965 
  23   2.0000      -1.057330       -28.7714 
  24   2.0000      -0.920310       -25.0429 
  25   2.0000      -0.885014       -24.0825 
  26   2.0000      -0.842073       -22.9140 
  27   2.0000      -0.816550       -22.2195 
  28   2.0000      -0.801857       -21.8196 
  29   2.0000      -0.784142       -21.3376 
  30   2.0000      -0.765430       -20.8284 
  31   2.0000      -0.717469       -19.5233 
  32   2.0000      -0.691206       -18.8087 
  33   2.0000      -0.678231       -18.4556 
  34   2.0000      -0.659991       -17.9593 
  35   2.0000      -0.639012       -17.3884 
  36   2.0000      -0.611894       -16.6505 
  37   2.0000      -0.570251       -15.5173 
  38   2.0000      -0.557715       -15.1762 
  39   2.0000      -0.549347       -14.9485 
  40   2.0000      -0.541154       -14.7256 
  41   2.0000      -0.526400       -14.3241 
  42   2.0000      -0.515277       -14.0214 
  43   2.0000      -0.509553       -13.8656 
  44   2.0000      -0.507268       -13.8035 
  45   2.0000      -0.489421       -13.3178 
  46   2.0000      -0.484446       -13.1824 
  47   2.0000      -0.476062       -12.9543 
  48   2.0000      -0.471575       -12.8322 
  49   2.0000      -0.459085       -12.4923 
  50   2.0000      -0.451630       -12.2895 
  51   2.0000      -0.429230       -11.6799 
  52   2.0000      -0.426628       -11.6091 
  53   2.0000      -0.421102       -11.4588 
  54   2.0000      -0.407496       -11.0885 
  55   2.0000      -0.399164       -10.8618 
  56   2.0000      -0.392933       -10.6922 
  57   2.0000      -0.389563       -10.6005 
  58   2.0000      -0.383250       -10.4288 
  59   2.0000      -0.375052       -10.2057 
  60   2.0000      -0.370810       -10.0903 
  61   2.0000      -0.348999        -9.4968 
  62   2.0000      -0.335130        -9.1193 
  63   2.0000      -0.321902        -8.7594 
  64   2.0000      -0.319439        -8.6924 
  65   2.0000      -0.309259        -8.4154 
  66   2.0000      -0.304818        -8.2945 
  67   2.0000      -0.292814        -7.9679 
  68   2.0000      -0.275244        -7.4898 
  69   2.0000      -0.243288        -6.6202 
  70   0.0000      -0.101801        -2.7702 
  71   0.0000      -0.039568        -1.0767 
  72   0.0000      -0.027759        -0.7554 
  73   0.0000      -0.018162        -0.4942 
  74   0.0000       0.007911         0.2153 
  75   0.0000       0.010863         0.2956 
  76   0.0000       0.018092         0.4923 
  77   0.0000       0.020489         0.5575 
  78   0.0000       0.027111         0.7377 
  79   0.0000       0.028521         0.7761 
  80   0.0000       0.033622         0.9149 
  81   0.0000       0.036464         0.9922 
  82   0.0000       0.040094         1.0910 
  83   0.0000       0.043409         1.1812 
  84   0.0000       0.046320         1.2604 
  85   0.0000       0.046468         1.2645 
  86   0.0000       0.051420         1.3992 
  87   0.0000       0.053339         1.4514 
  88   0.0000       0.058170         1.5829 
  89   0.0000       0.060485         1.6459 
  90   0.0000       0.064813         1.7637 
  91   0.0000       0.070714         1.9242 
  92   0.0000       0.073586         2.0024 
  93   0.0000       0.075954         2.0668 
  94   0.0000       0.077387         2.1058 
  95   0.0000       0.082740         2.2515 
  96   0.0000       0.088017         2.3951 
  97   0.0000       0.088540         2.4093 
  98   0.0000       0.089981         2.4485 
  99   0.0000       0.091837         2.4990 
 100   0.0000       0.098763         2.6875 
 101   0.0000       0.101847         2.7714 
 102   0.0000       0.106192         2.8896 
 103   0.0000       0.109681         2.9846 
 104   0.0000       0.112341         3.0570 
 105   0.0000       0.115115         3.1324 
 106   0.0000       0.119056         3.2397 
 107   0.0000       0.120232         3.2717 
 108   0.0000       0.121334         3.3017 
 109   0.0000       0.126495         3.4421 
 110   0.0000       0.128103         3.4859 
 111   0.0000       0.133153         3.6233 
 112   0.0000       0.136095         3.7033 
 113   0.0000       0.137595         3.7441 
 114   0.0000       0.139571         3.7979 
 115   0.0000       0.141617         3.8536 
 116   0.0000       0.145532         3.9601 
 117   0.0000       0.147570         4.0156 
 118   0.0000       0.149411         4.0657 
 119   0.0000       0.151069         4.1108 
 120   0.0000       0.151656         4.1268 
 121   0.0000       0.152511         4.1500 
 122   0.0000       0.156874         4.2687 
 123   0.0000       0.161077         4.3831 
 124   0.0000       0.163681         4.4540 
 125   0.0000       0.167201         4.5498 
 126   0.0000       0.168773         4.5925 
 127   0.0000       0.169908         4.6234 
 128   0.0000       0.172999         4.7075 
 129   0.0000       0.175356         4.7717 
 130   0.0000       0.176826         4.8117 
 131   0.0000       0.180139         4.9018 
 132   0.0000       0.181632         4.9425 
 133   0.0000       0.184611         5.0235 
 134   0.0000       0.187368         5.0985 
 135   0.0000       0.192267         5.2318 
 136   0.0000       0.193208         5.2575 
 137   0.0000       0.195219         5.3122 
 138   0.0000       0.196620         5.3503 
 139   0.0000       0.199113         5.4181 
 140   0.0000       0.202453         5.5090 
 141   0.0000       0.204080         5.5533 
 142   0.0000       0.206888         5.6297 
 143   0.0000       0.210502         5.7281 
 144   0.0000       0.213765         5.8168 
 145   0.0000       0.218046         5.9333 
 146   0.0000       0.221684         6.0323 
 147   0.0000       0.222610         6.0575 
 148   0.0000       0.225003         6.1227 
 149   0.0000       0.227285         6.1847 
 150   0.0000       0.232531         6.3275 
 151   0.0000       0.234628         6.3846 
 152   0.0000       0.236239         6.4284 
 153   0.0000       0.239085         6.5058 
 154   0.0000       0.240008         6.5310 
 155   0.0000       0.245456         6.6792 
 156   0.0000       0.247193         6.7265 
 157   0.0000       0.250512         6.8168 
 158   0.0000       0.252650         6.8750 
 159   0.0000       0.256043         6.9673 
 160   0.0000       0.258626         7.0376 
 161   0.0000       0.262740         7.1495 
 162   0.0000       0.263949         7.1824 
 163   0.0000       0.266291         7.2462 
 164   0.0000       0.271440         7.3863 
 165   0.0000       0.273490         7.4420 
 166   0.0000       0.275576         7.4988 
 167   0.0000       0.277896         7.5619 
 168   0.0000       0.279561         7.6072 
 169   0.0000       0.284802         7.7498 
 170   0.0000       0.287262         7.8168 
 171   0.0000       0.290430         7.9030 
 172   0.0000       0.296542         8.0693 
 173   0.0000       0.297649         8.0994 
[...]
   Rebuilding the expansion space

                       ****Iteration    5****
              <<< Entering MO-section for Build Sigma(Double) >>>
   Forming the XC and CPCM contribution:
   Time for densities:            0.544
   Time for XC-Integration:      37.361
   Time for LR-CPCM terms:       18.052
   Time for Sigma-Completion:     0.498
   Time for building 20 sigma-vectors
   Data Preparation Phase         ...     0.02 sec
   Transformed RI Coulomb         ...     1.39 sec
   Transformed RI-exchange        ...   917.80 sec
   (ab|v) reading and digestion   ...   880.90 sec
   Final sigma-completion         ...     0.03 sec
   Done building sigma-vectors             Size of expansion space: 20
   Lowest Energy          :     0.135565559272
   Maximum Energy change  :     0.000280571108 (vector 7)
   Maximum residual norm  :     0.000061257973

                       ****Iteration    6****
              <<< Entering MO-section for Build Sigma(Double) >>>
   Forming the XC and CPCM contribution:
   Time for densities:            0.281
   Time for XC-Integration:      17.349
   Time for LR-CPCM terms:       11.289
   Time for Sigma-Completion:     0.216
   Time for building 10 sigma-vectors
   Data Preparation Phase         ...     0.01 sec
   Transformed RI Coulomb         ...     0.84 sec
   Transformed RI-exchange        ...   462.56 sec
   (ab|v) reading and digestion   ...   444.19 sec
   Final sigma-completion         ...     0.01 sec
   Done building sigma-vectors             Size of expansion space: 30
   Lowest Energy          :     0.135565525017
   Maximum Energy change  :     0.000180740886 (vector 6)
   Maximum residual norm  :     0.000019131528

                       ****Iteration    7****
              <<< Entering MO-section for Build Sigma(Double) >>>
   Forming the XC and CPCM contribution:
   Time for densities:            0.282
   Time for XC-Integration:      19.339
   Time for LR-CPCM terms:       11.442
   Time for Sigma-Completion:     0.230
   Time for building 10 sigma-vectors
   Data Preparation Phase         ...     0.01 sec
   Transformed RI Coulomb         ...     0.83 sec
   Transformed RI-exchange        ...   460.14 sec
   (ab|v) reading and digestion   ...   441.42 sec
   Final sigma-completion         ...     0.01 sec
   Done building sigma-vectors             Size of expansion space: 40
   Lowest Energy          :     0.135565521748
   Maximum Energy change  :     0.000044652462 (vector 6)
   Maximum residual norm  :     0.000007542445

                       ****Iteration    8****
              <<< Entering MO-section for Build Sigma(Double) >>>
   Forming the XC and CPCM contribution:
   Time for densities:            0.286
   Time for XC-Integration:      19.371
   Time for LR-CPCM terms:       11.405
   Time for Sigma-Completion:     0.215
   Time for building 10 sigma-vectors
   Data Preparation Phase         ...     0.01 sec
   Transformed RI Coulomb         ...     0.84 sec
   Transformed RI-exchange        ...   454.20 sec
   (ab|v) reading and digestion   ...   435.99 sec
   Final sigma-completion         ...     0.01 sec
   Done building sigma-vectors             Size of expansion space: 50
   Lowest Energy          :     0.135565521355
   Maximum Energy change  :     0.000013094607 (vector 6)
   Maximum residual norm  :     0.000001781378

                       ****Iteration    9****
              <<< Entering MO-section for Build Sigma(Double) >>>
   Forming the XC and CPCM contribution:
   Time for densities:            0.281
   Time for XC-Integration:      19.222
   Time for LR-CPCM terms:       11.398
   Time for Sigma-Completion:     0.234
   Time for building 10 sigma-vectors
   Data Preparation Phase         ...     0.01 sec
   Transformed RI Coulomb         ...     0.81 sec
   Transformed RI-exchange        ...   454.08 sec
   (ab|v) reading and digestion   ...   436.01 sec
   Final sigma-completion         ...     0.01 sec
   Done building sigma-vectors             Size of expansion space: 60
   Lowest Energy          :     0.135565521315
   Maximum Energy change  :     0.000003354956 (vector 6)
   Maximum residual norm  :     0.000000354899

      *** CONVERGENCE OF RESIDUAL NORM REACHED ***

Storing the converged CI vectors               ... optpbed3-b2plyp-test-69_job2.cis1

                 *** DAVIDSON DONE ***

Total time for solving the CIS problem:  4988.413sec

------------------
DOUBLES CORRECTION (Double precision version)
------------------

The (D) correction will be scaled by  0.2700
Doing v(i,a)*T(i,a) terms (RI)                    ... ok
Doing u(i,j,a,b) terms for state   0              ... ok
Doing u(i,j,a,b) terms for state   1              ... ok
Doing u(i,j,a,b) terms for state   2              ... ok
Doing u(i,j,a,b) terms for state   3              ... ok
Doing u(i,j,a,b) terms for state   4              ... ok
Doing u(i,j,a,b) terms for state   5              ... ok
Doing u(i,j,a,b) terms for state   6              ... ok
Doing u(i,j,a,b) terms for state   7              ... ok
Doing u(i,j,a,b) terms for state   8              ... ok
Doing u(i,j,a,b) terms for state   9              ... ok

Contributions to the (D) correction(s) (in eV)

STATE  Final   Init.   Total   v(ext)   v(int)  v(3)    u
       omega   omega     (D)                             
-----------------------------------------------------------------------------
   0   3.449   3.689  -0.240   0.628   1.006  -0.065  -1.809
   1   3.944   4.509  -0.565   0.634   0.946  -0.043  -2.102
   2   4.979   5.307  -0.327   0.598   0.882  -0.071  -1.736
   3   5.173   5.377  -0.204   0.611   0.802  -0.026  -1.592
   4   4.575   5.469  -0.894   0.649   0.789  -0.025  -2.307
   5   4.876   5.604  -0.728   0.547   0.983  -0.027  -2.230
   6   4.826   5.733  -0.907   0.667   0.795  -0.025  -2.344
   7   5.259   5.748  -0.489   0.495   0.986  -0.046  -1.924
   8   5.282   5.902  -0.620   0.493   0.983  -0.047  -2.049
   9   5.897   6.034  -0.137   0.039   1.008  -0.002  -1.183

(D)-timings
 V(i,a)*T(i,a) terms           ...   949.087 sec
 U(i,j,a,b) 3-internal         ...    14.048 sec
 U(i,j,a,b) 3-external         ...   351.793 sec
 U(i,j,a,b) pair terms         ...   462.962 sec
 Total measured time           ...  3805.035 sec

 Time for (ab|v) I/O           ...   103.640 sec


------------------------------------
TD-DFT/TDA EXCITED STATES (SINGLETS)
------------------------------------

the weight of the individual excitations are printed if larger than 1.0e-02

STATE  1:  E=   0.126758 au      3.449 eV    27820.2 cm**-1 <S**2> =   0.000000
    67a ->  71a  :     0.012667 (c=  0.11254953)
    69a ->  70a  :     0.948259 (c=  0.97378609)

STATE  2:  E=   0.144936 au      3.944 eV    31809.7 cm**-1 <S**2> =   0.000000
    68a ->  70a  :     0.844800 (c= -0.91912994)
    68a ->  71a  :     0.016713 (c=  0.12927910)
    69a ->  71a  :     0.028623 (c=  0.16918287)
    69a ->  73a  :     0.021072 (c=  0.14516058)
    69a ->  75a  :     0.043061 (c=  0.20751258)

STATE  3:  E=   0.182993 au      4.979 eV    40162.4 cm**-1 <S**2> =   0.000000
    64a ->  73a  :     0.012074 (c= -0.10988253)
    67a ->  70a  :     0.762860 (c= -0.87341853)
    68a ->  75a  :     0.014880 (c=  0.12198451)
    69a ->  71a  :     0.104304 (c= -0.32296105)

STATE  4:  E=   0.190109 au      5.173 eV    41724.0 cm**-1 <S**2> =   0.000000
    66a ->  70a  :     0.669854 (c=  0.81844591)
    66a ->  71a  :     0.113762 (c= -0.33728627)
    66a ->  73a  :     0.105446 (c=  0.32472443)
    66a -> 100a  :     0.017451 (c= -0.13210383)

STATE  5:  E=   0.168115 au      4.575 eV    36897.0 cm**-1 <S**2> =   0.000000
    62a ->  71a  :     0.038077 (c= -0.19513247)
    63a ->  70a  :     0.021428 (c= -0.14638273)
    65a ->  70a  :     0.565585 (c= -0.75205401)
    65a ->  71a  :     0.196582 (c= -0.44337546)
    65a ->  75a  :     0.026628 (c=  0.16318045)
    65a -> 101a  :     0.020260 (c=  0.14233632)

STATE  6:  E=   0.179197 au      4.876 eV    39329.2 cm**-1 <S**2> =   0.000000
    64a ->  70a  :     0.023083 (c= -0.15193119)
    67a ->  70a  :     0.120266 (c=  0.34679429)
    68a ->  70a  :     0.034276 (c= -0.18513697)
    68a ->  73a  :     0.022630 (c=  0.15043186)
    69a ->  71a  :     0.731944 (c= -0.85553735)

STATE  7:  E=   0.177351 au      4.826 eV    38924.1 cm**-1 <S**2> =   0.000000
    62a ->  70a  :     0.520377 (c=  0.72137147)
    62a ->  71a  :     0.019666 (c= -0.14023382)
    62a ->  73a  :     0.112461 (c= -0.33535166)
    63a ->  70a  :     0.076961 (c= -0.27741774)
    63a ->  73a  :     0.023000 (c=  0.15165729)
    65a ->  71a  :     0.054931 (c=  0.23437273)
    65a ->  73a  :     0.021058 (c=  0.14511329)
    65a ->  75a  :     0.010586 (c= -0.10289038)
    66a ->  73a  :     0.010090 (c= -0.10044735)
    69a ->  73a  :     0.013987 (c= -0.11826753)

STATE  8:  E=   0.193266 au      5.259 eV    42416.9 cm**-1 <S**2> =   0.000000
    62a ->  70a  :     0.013002 (c= -0.11402711)
    64a ->  70a  :     0.019150 (c=  0.13838300)
    67a ->  71a  :     0.031925 (c= -0.17867623)
    69a ->  73a  :     0.585483 (c= -0.76516846)
    69a ->  75a  :     0.167371 (c=  0.40910965)
    69a ->  77a  :     0.021241 (c= -0.14574331)
    69a ->  78a  :     0.022342 (c=  0.14947178)
    69a ->  82a  :     0.014857 (c=  0.12189058)

STATE  9:  E=   0.194099 au      5.282 eV    42599.9 cm**-1 <S**2> =   0.000000
    67a ->  70a  :     0.022666 (c= -0.15055137)
    67a ->  73a  :     0.020562 (c=  0.14339527)
    68a ->  70a  :     0.083903 (c= -0.28965997)
    68a ->  71a  :     0.064179 (c= -0.25333551)
    68a ->  73a  :     0.058824 (c=  0.24253600)
    68a ->  75a  :     0.012030 (c= -0.10968030)
    69a ->  73a  :     0.182237 (c= -0.42689192)
    69a ->  74a  :     0.021397 (c= -0.14627811)
    69a ->  75a  :     0.406802 (c= -0.63780996)
    69a ->  76a  :     0.013622 (c=  0.11671256)
    69a ->  77a  :     0.026470 (c=  0.16269579)
    69a ->  78a  :     0.012584 (c= -0.11217773)

STATE 10:  E=   0.216718 au      5.897 eV    47564.2 cm**-1 <S**2> =   0.000000
    67a ->  72a  :     0.010305 (c=  0.10151116)
    69a ->  72a  :     0.450135 (c= -0.67092071)
    69a ->  73a  :     0.011566 (c= -0.10754587)
    69a ->  74a  :     0.289286 (c=  0.53785329)
    69a ->  75a  :     0.022657 (c= -0.15052358)
    69a ->  77a  :     0.097259 (c= -0.31186322)
    69a ->  83a  :     0.055221 (c= -0.23499210)


-----------------------------
TD-DFT/TDA-EXCITATION SPECTRA
-----------------------------

Center of mass = (  0.7576,  0.1347,  0.6705)
Calculating the Dipole integrals                  ... done
Transforming integrals                            ... done
Calculating the Linear Momentum integrals         ... done
Transforming integrals                            ... done
Calculating angular momentum integrals            ... done
Transforming integrals                            ... done

-----------------------------------------------------------------------------
         ABSORPTION SPECTRUM VIA TRANSITION ELECTRIC DIPOLE MOMENTS
-----------------------------------------------------------------------------
State   Energy    Wavelength  fosc         T2        TX        TY        TZ  
        (cm-1)      (nm)                 (au**2)    (au)      (au)      (au) 
-----------------------------------------------------------------------------
   1   27820.2    359.5   1.317698348  15.59308   3.73807  -0.81388   0.97855
   2   31809.7    314.4   0.045616777   0.47211   0.43576  -0.50489   0.16525
   3   40162.4    249.0   0.021968972   0.18008  -0.09262  -0.41345  -0.02360
   4   41724.0    239.7   0.000014325   0.00011  -0.00215  -0.00860  -0.00586
   5   36897.0    271.0   0.000097744   0.00087  -0.00468  -0.02271   0.01829
   6   39329.2    254.3   0.099951545   0.83666  -0.39104  -0.82645  -0.02717
   7   38924.1    256.9   0.004100939   0.03468  -0.14195  -0.11445  -0.03790
   8   42416.9    235.8   0.228197997   1.77112  -0.98466  -0.88166  -0.15570
   9   42599.9    234.7   0.062090266   0.47983   0.24493  -0.63333   0.13686
  10   47564.2    210.2   0.003762622   0.02604  -0.02974   0.01730   0.15767

-----------------------------------------------------------------------------
         ABSORPTION SPECTRUM VIA TRANSITION VELOCITY DIPOLE MOMENTS
-----------------------------------------------------------------------------
State   Energy    Wavelength   fosc        P2         PX        PY        PZ  
        (cm-1)      (nm)                 (au**2)     (au)      (au)      (au) 
-----------------------------------------------------------------------------
   1   27820.2    359.5   0.735479607   0.13984  -0.35258   0.07521  -0.09936
   2   31809.7    314.4   0.053714719   0.01168  -0.10465  -0.00238  -0.02684
   3   40162.4    249.0   0.020969610   0.00576   0.06956   0.01848   0.02399
   4   41724.0    239.7   0.000267519   0.00008  -0.00067   0.00109   0.00864
   5   36897.0    271.0   0.002903932   0.00073  -0.00433   0.00336   0.02650
   6   39329.2    254.3   0.021371591   0.00574   0.06617   0.03197   0.01855
   7   38924.1    256.9   0.004957011   0.00132   0.02145   0.00827   0.02811
   8   42416.9    235.8   0.119397861   0.03461   0.17601   0.04488   0.04024
   9   42599.9    234.7   0.032301449   0.00940  -0.08936   0.02559  -0.02765
  10   47564.2    210.2   0.002680586   0.00087   0.00516  -0.00307  -0.02890

-------------------------------------------------------------------
                             CD SPECTRUM
-------------------------------------------------------------------
State  Energy     Wavelength     R         MX        MY        MZ   
       (cm-1)       (nm)     (1e40*cgs)   (au)      (au)      (au)  
-------------------------------------------------------------------
   1   27820.2    359.5     -0.55177  -0.05866   0.10877   0.31336
   2   31809.7    314.4     -6.44493   0.03657   0.00576  -0.16156
   3   40162.4    249.0      3.81497  -0.01644  -0.02287   0.12223
   4   41724.0    239.7      0.24989  -0.20131   0.02150  -0.04829
   5   36897.0    271.0      1.97062  -0.16116  -0.18063  -0.03698
   6   39329.2    254.3     10.59744   0.02332  -0.03542  -0.08578
   7   38924.1    256.9    -18.08776   0.03081   0.30262  -0.01698
   8   42416.9    235.8     45.22983  -0.00103  -0.10594  -0.00976
   9   42599.9    234.7     -8.47759   0.03269   0.01591  -0.11625
  10   47564.2    210.2     -0.09313   0.00141  -0.08016   0.00781

-------------------------------------------------------------------
         CD SPECTRUM VIA TRANSITION VELOCITY DIPOLE MOMENTS        
-------------------------------------------------------------------
State  Energy     Wavelength     R         MX        MY        MZ   
       (cm-1)       (nm)     (1e40*cgs)   (au)      (au)      (au)  
-------------------------------------------------------------------
   1   27820.2    359.5     -8.45524  -0.05866   0.10877   0.31336
   2   31809.7    314.4      1.61219   0.03657   0.00576  -0.16156
   3   40162.4    249.0      3.51962  -0.01644  -0.02287   0.12223
   4   41724.0    239.7     -0.64295  -0.20131   0.02150  -0.04829
   5   36897.0    271.0     -2.48981  -0.16116  -0.18063  -0.03698
   6   39329.2    254.3     -3.10472   0.02332  -0.03542  -0.08578
   7   38924.1    256.9      7.13761   0.03081   0.30262  -0.01698
   8   42416.9    235.8    -13.00005  -0.00103  -0.10594  -0.00976
   9   42599.9    234.7      1.69979   0.03269   0.01591  -0.11625
  10   47564.2    210.2      0.06066   0.00141  -0.08016   0.00781

Total run time:     8804.390 sec

           *** ORCA-CIS/TD-DFT FINISHED WITHOUT ERROR ***

Maximum memory used throughout the entire CIS-calculation: 1330.0 MB

-----------------------
CIS/TD-DFT TOTAL ENERGY
-----------------------

    E(SCF)  =   -916.277965590 Eh
    DE(CIS) =      0.126758003 Eh (Root  1)
    ----------------------------- ---------
    E(tot)  =   -916.151207586 Eh



-------------------------------------------------------------------------------
                          DFT DISPERSION CORRECTION                            
                                                                               
                              DFTD3 V3.1  Rev 1                                
                          USING Becke-Johnson damping                          
-------------------------------------------------------------------------------
The B2PLYP functional is recognized
Active option DFTDOPT                   ...         4   

molecular C6(AA) [au] = 12952.568691 


            DFT-D V3
 parameters
 s6 scaling factor         :     0.6400 
 a1 scaling factor         :     0.3065 
 s8 scaling factor         :     0.9147 
 a2 scaling factor         :     5.0570 
 ad hoc parameters k1-k3   :    16.0000     1.3333    -4.0000 

 Edisp/kcal,au: -18.796234908590  -0.029953703777 
 E6   /kcal   : -10.512045293 
 E8   /kcal   :  -8.284189616 
 % E8         :  44.073665051 

-------------------------   ----------------
Dispersion correction           -0.029953704
-------------------------   ----------------


-------------------------   --------------------
FINAL SINGLE POINT ENERGY      -916.181161290063
-------------------------   --------------------


                            ***************************************
                            *     ORCA property calculations      *
                            ***************************************


  WARNING: The energy has been calculated at the MP2 level but the densities
           used in the property calculations are still SCF densities
           MP2 response densities have not been calculated 
           use %mp2 Density relaxed end
           or  %mp2 Density unrelaxed end

                                    ---------------------
                                    Active property flags
                                    ---------------------
   (+) Dipole Moment


------------------------------------------------------------------------------
                       ORCA ELECTRIC PROPERTIES CALCULATION
------------------------------------------------------------------------------

Dipole Moment Calculation                       ... on
Quadrupole Moment Calculation                   ... off
Polarizability Calculation                      ... off
GBWName                                         ... optpbed3-b2plyp-test-69_job2.gbw
Electron density                                ... optpbed3-b2plyp-test-69_job2.scfp
The origin for moment calculation is the CENTER OF MASS  = ( 0.757603,  0.134679  0.670530)

-------------
DIPOLE MOMENT
-------------
                                X             Y             Z
Electronic contribution:     17.12445      -0.89174       7.49767
Nuclear contribution   :    -15.68197      -0.87513      -7.06156
                        -----------------------------------------
Total Dipole Moment    :      1.44247      -1.76687       0.43612
                        -----------------------------------------
Magnitude (a.u.)       :      2.32223
Magnitude (Debye)      :      5.90265



--------------------
Rotational spectrum 
--------------------
 
Rotational constants in cm-1:     0.039426     0.003965     0.003650 
Rotational constants in MHz :  1181.975020   118.881653   109.421231 

 Dipole components along the rotational axes: 
x,y,z [a.u.] :     1.800822    -1.456457     0.168960 
x,y,z [Debye]:     4.577327    -3.702019     0.429463 

 

Timings for individual modules:

Sum of individual times         ...    10904.146 sec (= 181.736 min)
GTO integral calculation        ...        7.826 sec (=   0.130 min)   0.1 %
SCF iterations                  ...      990.643 sec (=  16.511 min)   9.1 %
MP2 module                      ...     1086.207 sec (=  18.103 min)  10.0 %
CIS module                      ...     8819.470 sec (= 146.991 min)  80.9 %



                             ****ORCA TERMINATED NORMALLY****
TOTAL RUN TIME: 0 days 5 hours 4 minutes 24 seconds 788 msec
