
                                 *****************
                                 * O   R   C   A *
                                 *****************

                                            #,                                       
                                            ###                                      
                                            ####                                     
                                            #####                                    
                                            ######                                   
                                           ########,                                 
                                     ,,################,,,,,                         
                               ,,#################################,,                 
                          ,,##########################################,,             
                       ,#########################################, ''#####,          
                    ,#############################################,,   '####,        
                  ,##################################################,,,,####,       
                ,###########''''           ''''###############################       
              ,#####''   ,,,,##########,,,,          '''####'''          '####       
            ,##' ,,,,###########################,,,                        '##       
           ' ,,###''''                  '''############,,,                           
         ,,##''                                '''############,,,,        ,,,,,,###''
      ,#''                                            '''#######################'''  
     '                                                          ''''####''''         
             ,#######,   #######,   ,#######,      ##                                
            ,#'     '#,  ##    ##  ,#'     '#,    #''#        ######   ,####,        
            ##       ##  ##   ,#'  ##            #'  '#       #        #'  '#        
            ##       ##  #######   ##           ,######,      #####,   #    #        
            '#,     ,#'  ##    ##  '#,     ,#' ,#      #,         ##   #,  ,#        
             '#######'   ##     ##  '#######'  #'      '#     #####' # '####'        



                  #######################################################
                  #                        -***-                        #
                  #          Department of theory and spectroscopy      #
                  #    Directorship and core code : Frank Neese         #
                  #        Max Planck Institute fuer Kohlenforschung    #
                  #                Kaiser Wilhelm Platz 1               #
                  #                 D-45470 Muelheim/Ruhr               #
                  #                      Germany                        #
                  #                                                     #
                  #                  All rights reserved                #
                  #                        -***-                        #
                  #######################################################


                         Program Version 5.0.2 -  RELEASE  -


 With contributions from (in alphabetic order):
   Daniel Aravena         : Magnetic Suceptibility
   Michael Atanasov       : Ab Initio Ligand Field Theory (pilot matlab implementation)
   Alexander A. Auer      : GIAO ZORA, VPT2 properties, NMR spectrum
   Ute Becker             : Parallelization
   Giovanni Bistoni       : ED, misc. LED, open-shell LED, HFLD
   Martin Brehm           : Molecular dynamics
   Dmytro Bykov           : SCF Hessian
   Vijay G. Chilkuri      : MRCI spin determinant printing, contributions to CSF-ICE
   Dipayan Datta          : RHF DLPNO-CCSD density
   Achintya Kumar Dutta   : EOM-CC, STEOM-CC
   Dmitry Ganyushin       : Spin-Orbit,Spin-Spin,Magnetic field MRCI
   Miquel Garcia          : C-PCM and meta-GGA Hessian, CC/C-PCM, Gaussian charge scheme
   Yang Guo               : DLPNO-NEVPT2, F12-NEVPT2, CIM, IAO-localization
   Andreas Hansen         : Spin unrestricted coupled pair/coupled cluster methods
   Benjamin Helmich-Paris : MC-RPA, TRAH-SCF, COSX integrals
   Lee Huntington         : MR-EOM, pCC
   Robert Izsak           : Overlap fitted RIJCOSX, COSX-SCS-MP3, EOM
   Marcus Kettner         : VPT2
   Christian Kollmar      : KDIIS, OOCD, Brueckner-CCSD(T), CCSD density, CASPT2, CASPT2-K
   Simone Kossmann        : Meta GGA functionals, TD-DFT gradient, OOMP2, MP2 Hessian
   Martin Krupicka        : Initial AUTO-CI
   Lucas Lang             : DCDCAS
   Marvin Lechner         : AUTO-CI (C++ implementation), FIC-MRCC
   Dagmar Lenk            : GEPOL surface, SMD
   Dimitrios Liakos       : Extrapolation schemes; Compound Job, initial MDCI parallelization
   Dimitrios Manganas     : Further ROCIS development; embedding schemes
   Dimitrios Pantazis     : SARC Basis sets
   Anastasios Papadopoulos: AUTO-CI, single reference methods and gradients
   Taras Petrenko         : DFT Hessian,TD-DFT gradient, ASA, ECA, R-Raman, ABS, FL, XAS/XES, NRVS
   Peter Pinski           : DLPNO-MP2, DLPNO-MP2 Gradient
   Christoph Reimann      : Effective Core Potentials
   Marius Retegan         : Local ZFS, SOC
   Christoph Riplinger    : Optimizer, TS searches, QM/MM, DLPNO-CCSD(T), (RO)-DLPNO pert. Triples
   Tobias Risthaus        : Range-separated hybrids, TD-DFT gradient, RPA, STAB
   Michael Roemelt        : Original ROCIS implementation
   Masaaki Saitow         : Open-shell DLPNO-CCSD energy and density
   Barbara Sandhoefer     : DKH picture change effects
   Avijit Sen             : IP-ROCIS
   Kantharuban Sivalingam : CASSCF convergence, NEVPT2, FIC-MRCI
   Bernardo de Souza      : ESD, SOC TD-DFT
   Georgi Stoychev        : AutoAux, RI-MP2 NMR, DLPNO-MP2 response
   Willem Van den Heuvel  : Paramagnetic NMR
   Boris Wezisla          : Elementary symmetry handling
   Frank Wennmohs         : Technical directorship


 We gratefully acknowledge several colleagues who have allowed us to
 interface, adapt or use parts of their codes:
   Stefan Grimme, W. Hujo, H. Kruse, P. Pracht,  : VdW corrections, initial TS optimization,
                  C. Bannwarth, S. Ehlert          DFT functionals, gCP, sTDA/sTD-DF
   Ed Valeev, F. Pavosevic, A. Kumar             : LibInt (2-el integral package), F12 methods
   Garnet Chan, S. Sharma, J. Yang, R. Olivares  : DMRG
   Ulf Ekstrom                                   : XCFun DFT Library
   Mihaly Kallay                                 : mrcc  (arbitrary order and MRCC methods)
   Jiri Pittner, Ondrej Demel                    : Mk-CCSD
   Frank Weinhold                                : gennbo (NPA and NBO analysis)
   Christopher J. Cramer and Donald G. Truhlar   : smd solvation model
   Lars Goerigk                                  : TD-DFT with DH, B97 family of functionals
   V. Asgeirsson, H. Jonsson                     : NEB implementation
   FAccTs GmbH                                   : IRC, NEB, NEB-TS, DLPNO-Multilevel, CI-OPT
                                                   MM, QMMM, 2- and 3-layer-ONIOM, Crystal-QMMM,
                                                   LR-CPCM, SF, NACMEs, symmetry and pop. for TD-DFT,
                                                   nearIR, NL-DFT gradient (VV10), updates on ESD,
                                                   ML-optimized integration grids
   S Lehtola, MJT Oliveira, MAL Marques          : LibXC Library
   Liviu Ungur et al                             : ANISO software


 Your calculation uses the libint2 library for the computation of 2-el integrals
 For citations please refer to: http://libint.valeyev.net

 Your ORCA version has been built with support for libXC version: 5.1.0
 For citations please refer to: https://tddft.org/programs/libxc/

 This ORCA versions uses:
   CBLAS   interface :  Fast vector & matrix operations
   LAPACKE interface :  Fast linear algebra routines
   SCALAPACK package :  Parallel linear algebra routines
   Shared memory     :  Shared parallel matrices
   BLAS/LAPACK       :  OpenBLAS 0.3.15  USE64BITINT DYNAMIC_ARCH NO_AFFINITY SkylakeX SINGLE_THREADED
        Core in use  :  SkylakeX
   Copyright (c) 2011-2014, The OpenBLAS Project


Your calculation utilizes the atom-pairwise dispersion correction
with the Becke-Johnson damping scheme (D3BJ)
Cite in your paper:
S.Grimme, S.Ehrlich, L.Goerigk, J Comput Chem, (2011), 32, 1456–1465 
S.Grimme, J.Antony, S.Ehrlich and H.Krieg, J.Chem.Phys., 132, (2010), 154104 
   

Your calculation utilizes the SMD solvation module
Please cite in your paper:
A.V. Marenich, C.J. Cramer, D.G. Truhlar J. Phys. Chem. B, 113, (2009), 6378 

================================================================================

----- Orbital basis set information -----
Your calculation utilizes the basis: aug-cc-pVTZ 
    H, B-Ne : Obtained from the ccRepo (grant-hill.group.shef.ac.uk/ccrepo) Feb. 2017
              R. A. Kendall, T. H. Dunning, Jr., R. J. Harrison, J. Chem. Phys. 96, 6796 (1992)
         He : Obtained from the ccRepo (grant-hill.group.shef.ac.uk/ccrepo) Feb. 2017
              D. E. Woon, T. H. Dunning, Jr., J. Chem. Phys. 100, 2975 (1994)
  Li-Be, Na : Obtained from the ccRepo (grant-hill.group.shef.ac.uk/ccrepo) Feb. 2017
              B. P. Prascher, D. E. Woon, K. A. Peterson, T. H. Dunning, Jr., A. K. Wilson, Theor. Chem. Acc. 128, 69 (2011)
         Mg : Obtained from the Peterson Research Group Website (tyr0.chem.wsu.edu/~kipeters) Feb. 2017
              B. P. Prascher, D. E. Woon, K. A. Peterson, T. H. Dunning, Jr., A. K. Wilson, Theor. Chem. Acc. 128, 69 (2011)
      Al-Ar : Obtained from the ccRepo (grant-hill.group.shef.ac.uk/ccrepo) Feb. 2017
              D. E. Woon, T. H. Dunning, Jr., J. Chem. Phys. 98, 1358 (1993)
      Sc-Zn : Obtained from the ccRepo (grant-hill.group.shef.ac.uk/ccrepo) Feb. 2017
              N. B. Balabanov, K. A. Peterson, J. Chem. Phys. 123, 064107 (2005)
              N. B. Balabanov, K. A. Peterson, J. Chem. Phys. 125, 074110 (2006)
      Ga-Kr : Obtained from the ccRepo (grant-hill.group.shef.ac.uk/ccrepo) Feb. 2017
              A. K. Wilson, D. E. Woon, K. A. Peterson, T. H. Dunning, Jr., J. Chem. Phys. 110, 7667 (1999)
     Ag, Au : Obtained from the Peterson Research Group Website (tyr0.chem.wsu.edu/~kipeters) Feb. 2017
              K. A. Peterson, C. Puzzarini, Theor. Chem. Acc. 114, 283 (2005)

The basis set includes element-specific modifications.

Your calculation utilizes the basis: cc-pVTZ 
       H, B-Ne : Obtained from the ccRepo (grant-hill.group.shef.ac.uk/ccrepo) Feb. 2017
                 T. H. Dunning, Jr., J. Chem. Phys. 90, 1007 (1989)
            He : Obtained from the ccRepo (grant-hill.group.shef.ac.uk/ccrepo) Feb. 2017
                 D. E. Woon, T. H. Dunning, Jr., J. Chem. Phys. 100, 2975 (1994)
  Li-Be, Na-Mg : Obtained from the ccRepo (grant-hill.group.shef.ac.uk/ccrepo) Feb. 2017
                 B. P. Prascher, D. E. Woon, K. A. Peterson, T. H. Dunning, Jr., A. K. Wilson, Theor. Chem. Acc. 128, 69 (2011)
         Al-Ar : Obtained from the ccRepo (grant-hill.group.shef.ac.uk/ccrepo) Feb. 2017
                 D. E. Woon, T. H. Dunning, Jr., J. Chem. Phys. 98, 1358 (1993)
            Ca : Obtained from the Peterson Research Group Website (tyr0.chem.wsu.edu/~kipeters) Feb. 2017
                 J. Koput, K. A. Peterson, J. Phys. Chem. 106, 9595 (2002)
         Sc-Zn : Obtained from the ccRepo (grant-hill.group.shef.ac.uk/ccrepo) Feb. 2017
                 N. B. Balabanov, K. A. Peterson, J. Chem. Phys. 123, 064107 (2005)
                 N. B. Balabanov, K. A. Peterson, J. Chem. Phys. 125, 074110 (2006)
         Ga-Kr : Obtained from the ccRepo (grant-hill.group.shef.ac.uk/ccrepo) Feb. 2017
                 A. K. Wilson, D. E. Woon, K. A. Peterson, T. H. Dunning, Jr., J. Chem. Phys. 110, 7667 (1999)
             Y : Obtained from the ccRepo (grant-hill.group.shef.ac.uk/ccrepo) Feb. 2017
                 K. A. Peterson, D. Figgen, M. Dolg, H. Stoll, J. Chem. Phys. 126, 124101 (2007)
        Ag, Au : Obtained from the Peterson Research Group Website (tyr0.chem.wsu.edu/~kipeters) Feb. 2017
                 K. A. Peterson, C. Puzzarini, Theor. Chem. Acc. 114, 283 (2005)

----- AuxJ basis set information -----
Your calculation utilizes the auxiliary basis: aug-cc-pVTZ/JK 
  H, B-F, Al-Cl, Ga-Br : Obtained from the TURBOMOLE 7.0 basis set library

The basis set includes element-specific modifications.

Your calculation utilizes the auxiliary basis: cc-pVTZ/JK 
  H, B-F, Al-Cl, Ga-Br : Obtained from the TURBOMOLE 7.0 basis set library

----- AuxC basis set information -----
Your calculation utilizes the auxiliary basis: aug-cc-pVTZ/C 
  H-He, B-F, Al-Ar, Ga-Kr : Obtained from the EMSL Basis Set Exchange (bse.pnl.gov) Feb. 2017
                            F. Weigend, A. Kohn, C. Hattig, J. Chem. Phys. 116, 3175 (2002)
                   Be, Mg : Obtained from the TURBOMOLE 7.0 basis set library
                            C. Haettig, Phys. Chem. Chem. Phys. 7, 59 (2005)
                       Ne : Obtained from the EMSL Basis Set Exchange (bse.pnl.gov) Feb. 2017
                            C. Haettig, Phys. Chem. Chem. Phys. 7, 59 (2005)
                            F. Weigend, A. Kohn, C. Hattig, J. Chem. Phys. 116, 3175 (2002)
                    Sc-Zn : Obtained from the EMSL Basis Set Exchange (bse.pnl.gov) Feb. 2017
                            J. G. Hill, J. A. Platts, J. Chem. Phys. 128, 044104 (2008)

The basis set includes element-specific modifications.

Your calculation utilizes the auxiliary basis: cc-pVTZ/C 
  Obtained from the EMSL Basis Set Exchange (bse.pnl.gov) Feb. 2017
  H-He, B-F, Al-Ar, Ga-Kr : F. Weigend, A. Kohn, C. Hattig, J. Chem. Phys. 116, 3175 (2002)
             Li-Be, Na-Mg : C. Haettig, Phys. Chem. Chem. Phys. 7, 59 (2005)
                       Ne : C. Haettig, Phys. Chem. Chem. Phys. 7, 59 (2005)
                            F. Weigend, A. Kohn, C. Hattig, J. Chem. Phys. 116, 3175 (2002)
                    Sc-Zn : J. G. Hill, J. A. Platts, J. Chem. Phys. 128, 044104 (2008)

================================================================================
                                        WARNINGS
                       Please study these warnings very carefully!
================================================================================


WARNING: Geometry Optimization
  ===> : Switching off AutoStart
         For restart on a previous wavefunction, please use MOREAD

INFO   : the flag for use of the SHARK integral package has been found!



***************************************
The coordinates will be read from file: 
***************************************


Your calculation utilizes the atom-pairwise dispersion correction
with the Becke-Johnson damping scheme (D3BJ)
Cite in your paper:
S.Grimme, S.Ehrlich, L.Goerigk, J Comput Chem, (2011), 32, 1456–1465 
S.Grimme, J.Antony, S.Ehrlich and H.Krieg, J.Chem.Phys., 132, (2010), 154104 
   

Your calculation utilizes the SMD solvation module
Please cite in your paper:
A.V. Marenich, C.J. Cramer, D.G. Truhlar J. Phys. Chem. B, 113, (2009), 6378 

================================================================================

----- Orbital basis set information -----
Your calculation utilizes the basis: aug-cc-pVTZ 
    H, B-Ne : Obtained from the ccRepo (grant-hill.group.shef.ac.uk/ccrepo) Feb. 2017
              R. A. Kendall, T. H. Dunning, Jr., R. J. Harrison, J. Chem. Phys. 96, 6796 (1992)
         He : Obtained from the ccRepo (grant-hill.group.shef.ac.uk/ccrepo) Feb. 2017
              D. E. Woon, T. H. Dunning, Jr., J. Chem. Phys. 100, 2975 (1994)
  Li-Be, Na : Obtained from the ccRepo (grant-hill.group.shef.ac.uk/ccrepo) Feb. 2017
              B. P. Prascher, D. E. Woon, K. A. Peterson, T. H. Dunning, Jr., A. K. Wilson, Theor. Chem. Acc. 128, 69 (2011)
         Mg : Obtained from the Peterson Research Group Website (tyr0.chem.wsu.edu/~kipeters) Feb. 2017
              B. P. Prascher, D. E. Woon, K. A. Peterson, T. H. Dunning, Jr., A. K. Wilson, Theor. Chem. Acc. 128, 69 (2011)
      Al-Ar : Obtained from the ccRepo (grant-hill.group.shef.ac.uk/ccrepo) Feb. 2017
              D. E. Woon, T. H. Dunning, Jr., J. Chem. Phys. 98, 1358 (1993)
      Sc-Zn : Obtained from the ccRepo (grant-hill.group.shef.ac.uk/ccrepo) Feb. 2017
              N. B. Balabanov, K. A. Peterson, J. Chem. Phys. 123, 064107 (2005)
              N. B. Balabanov, K. A. Peterson, J. Chem. Phys. 125, 074110 (2006)
      Ga-Kr : Obtained from the ccRepo (grant-hill.group.shef.ac.uk/ccrepo) Feb. 2017
              A. K. Wilson, D. E. Woon, K. A. Peterson, T. H. Dunning, Jr., J. Chem. Phys. 110, 7667 (1999)
     Ag, Au : Obtained from the Peterson Research Group Website (tyr0.chem.wsu.edu/~kipeters) Feb. 2017
              K. A. Peterson, C. Puzzarini, Theor. Chem. Acc. 114, 283 (2005)

The basis set includes element-specific modifications.

Your calculation utilizes the basis: cc-pVTZ 
       H, B-Ne : Obtained from the ccRepo (grant-hill.group.shef.ac.uk/ccrepo) Feb. 2017
                 T. H. Dunning, Jr., J. Chem. Phys. 90, 1007 (1989)
            He : Obtained from the ccRepo (grant-hill.group.shef.ac.uk/ccrepo) Feb. 2017
                 D. E. Woon, T. H. Dunning, Jr., J. Chem. Phys. 100, 2975 (1994)
  Li-Be, Na-Mg : Obtained from the ccRepo (grant-hill.group.shef.ac.uk/ccrepo) Feb. 2017
                 B. P. Prascher, D. E. Woon, K. A. Peterson, T. H. Dunning, Jr., A. K. Wilson, Theor. Chem. Acc. 128, 69 (2011)
         Al-Ar : Obtained from the ccRepo (grant-hill.group.shef.ac.uk/ccrepo) Feb. 2017
                 D. E. Woon, T. H. Dunning, Jr., J. Chem. Phys. 98, 1358 (1993)
            Ca : Obtained from the Peterson Research Group Website (tyr0.chem.wsu.edu/~kipeters) Feb. 2017
                 J. Koput, K. A. Peterson, J. Phys. Chem. 106, 9595 (2002)
         Sc-Zn : Obtained from the ccRepo (grant-hill.group.shef.ac.uk/ccrepo) Feb. 2017
                 N. B. Balabanov, K. A. Peterson, J. Chem. Phys. 123, 064107 (2005)
                 N. B. Balabanov, K. A. Peterson, J. Chem. Phys. 125, 074110 (2006)
         Ga-Kr : Obtained from the ccRepo (grant-hill.group.shef.ac.uk/ccrepo) Feb. 2017
                 A. K. Wilson, D. E. Woon, K. A. Peterson, T. H. Dunning, Jr., J. Chem. Phys. 110, 7667 (1999)
             Y : Obtained from the ccRepo (grant-hill.group.shef.ac.uk/ccrepo) Feb. 2017
                 K. A. Peterson, D. Figgen, M. Dolg, H. Stoll, J. Chem. Phys. 126, 124101 (2007)
        Ag, Au : Obtained from the Peterson Research Group Website (tyr0.chem.wsu.edu/~kipeters) Feb. 2017
                 K. A. Peterson, C. Puzzarini, Theor. Chem. Acc. 114, 283 (2005)

----- AuxJ basis set information -----
Your calculation utilizes the auxiliary basis: aug-cc-pVTZ/JK 
  H, B-F, Al-Cl, Ga-Br : Obtained from the TURBOMOLE 7.0 basis set library

The basis set includes element-specific modifications.

Your calculation utilizes the auxiliary basis: cc-pVTZ/JK 
  H, B-F, Al-Cl, Ga-Br : Obtained from the TURBOMOLE 7.0 basis set library

----- AuxC basis set information -----
Your calculation utilizes the auxiliary basis: aug-cc-pVTZ/C 
  H-He, B-F, Al-Ar, Ga-Kr : Obtained from the EMSL Basis Set Exchange (bse.pnl.gov) Feb. 2017
                            F. Weigend, A. Kohn, C. Hattig, J. Chem. Phys. 116, 3175 (2002)
                   Be, Mg : Obtained from the TURBOMOLE 7.0 basis set library
                            C. Haettig, Phys. Chem. Chem. Phys. 7, 59 (2005)
                       Ne : Obtained from the EMSL Basis Set Exchange (bse.pnl.gov) Feb. 2017
                            C. Haettig, Phys. Chem. Chem. Phys. 7, 59 (2005)
                            F. Weigend, A. Kohn, C. Hattig, J. Chem. Phys. 116, 3175 (2002)
                    Sc-Zn : Obtained from the EMSL Basis Set Exchange (bse.pnl.gov) Feb. 2017
                            J. G. Hill, J. A. Platts, J. Chem. Phys. 128, 044104 (2008)

The basis set includes element-specific modifications.

Your calculation utilizes the auxiliary basis: cc-pVTZ/C 
  Obtained from the EMSL Basis Set Exchange (bse.pnl.gov) Feb. 2017
  H-He, B-F, Al-Ar, Ga-Kr : F. Weigend, A. Kohn, C. Hattig, J. Chem. Phys. 116, 3175 (2002)
             Li-Be, Na-Mg : C. Haettig, Phys. Chem. Chem. Phys. 7, 59 (2005)
                       Ne : C. Haettig, Phys. Chem. Chem. Phys. 7, 59 (2005)
                            F. Weigend, A. Kohn, C. Hattig, J. Chem. Phys. 116, 3175 (2002)
                    Sc-Zn : J. G. Hill, J. A. Platts, J. Chem. Phys. 128, 044104 (2008)

================================================================================
                                        WARNINGS
                       Please study these warnings very carefully!
================================================================================

INFO   : Checking CIS options ...
  ===> : (D) CORRECTION FOUND - SETTING MODE=3
  ===> : JK MODE FOUND - ACTIVATING RI-MP2 CODE
  ===> : MP2 AND CIS FOUND - CHECKING
WARNING: CIS(D) and MP2 runs must have the same orbital window
  ===> : adjusting orbital windows

WARNING: No MP2 level density has been requested!
         To caclulate MP2 level properties use
         %mp2 Density relaxed end
         or
         %mp2 Density unrelaxed end
         Otherwise for double-hybrid DFT only the energy is correct!

WARNING: The frozen-core approximation is turned on by default for 
         the MP2 part of double-hybrid DFT.

INFO   : the flag for use of the SHARK integral package has been found!

================================================================================
                                       INPUT FILE
================================================================================
NAME = optpbed3-b2plyp-test-290.inp
|  1> ! pbe0 d3bj aug-cc-PVTZ RIJCOSX Opt
|  2> %maxcore 4000
|  3> %basis
|  4>  AuxJ "aug-cc-PVTZ/JK"
|  5>  AuxC "aug-cc-PVTZ/C"
|  6>  newGTO H "cc-PVTZ" end
|  7>  newAuxJGTO H "cc-PVTZ/JK" end
|  8>  newAuxCGTO H "cc-PVTZ/C" end
|  9> end
| 10> %cpcm
| 11>  SMD true
| 12>  SMDsolvent "dichloromethane"
| 13> end
| 14> %pal nprocs 4 end
| 15> * xyz 0 1
| 16> C         -7.03410        1.20650       -1.69100
| 17> N         -6.66200        0.45890       -0.51590
| 18> C         -7.70070       -0.02020        0.36160
| 19> C         -5.34720        0.21850       -0.23270
| 20> C         -4.96660       -0.58250        0.85840
| 21> C         -3.64450       -0.82560        1.14140
| 22> C         -2.61400       -0.28960        0.35970
| 23> C         -1.21750       -0.51730        0.61530
| 24> C         -0.68780       -1.24870        1.61730
| 25> C          0.71130       -1.43390        1.80860
| 26> C          1.40570       -2.14270        2.77290
| 27> N          2.72740       -2.02930        2.54440
| 28> C          2.83840       -1.27630        1.47580
| 29> C          4.06780       -0.89240        0.86730
| 30> C          4.14590       -0.11800       -0.23190
| 31> C          5.35490        0.30500       -0.89770
| 32> C          6.63590       -0.05920       -0.46130
| 33> C          7.76090        0.36790       -1.12900
| 34> C          7.63870        1.17790       -2.26140
| 35> C          8.79140        1.61650       -2.94700
| 36> N          9.72830        1.97340       -3.50470
| 37> C          6.36980        1.55080       -2.71080
| 38> C          5.25140        1.11770       -2.03530
| 39> O          1.63760       -0.88320        0.98350
| 40> C         -2.99580        0.50800       -0.72640
| 41> C         -4.31490        0.75840       -1.01850
| 42> H         -6.71680        2.25250       -1.61900
| 43> H         -8.11490        1.18640       -1.80760
| 44> H         -6.58970        0.76810       -2.58870
| 45> H         -8.66160        0.36960        0.03460
| 46> H         -7.75610       -1.11410        0.35730
| 47> H         -7.53150        0.31650        1.38820
| 48> H         -5.71580       -1.02900        1.49140
| 49> H         -3.40530       -1.44990        1.98860
| 50> H         -0.53300       -0.04500       -0.07890
| 51> H         -1.30610       -1.74730        2.34820
| 52> H          1.02270       -2.71120        3.59510
| 53> H          4.93810       -1.28210        1.37120
| 54> H          3.22140        0.23120       -0.67420
| 55> H          6.74850       -0.68400        0.41050
| 56> H          8.74430        0.08190       -0.78540
| 57> H          6.27740        2.17690       -3.58630
| 58> H          4.27180        1.40860       -2.38650
| 59> H         -2.22940        0.94280       -1.35290
| 60> H         -4.54450        1.38710       -1.86310
| 61> *
| 62> 
| 63> 
| 64> $new_job
| 65> ! b2plyp aug-cc-PVTZ RIJCOSX SP
| 66> %maxcore 4000
| 67> %basis
| 68>  AuxJ "aug-cc-PVTZ/JK"
| 69>  AuxC "aug-cc-PVTZ/C"
| 70>  newGTO H "cc-PVTZ" end
| 71>  newAuxJGTO H "cc-PVTZ/JK" end
| 72>  newAuxCGTO H "cc-PVTZ/C" end
| 73> end
| 74> %cpcm
| 75>  SMD true
| 76>  SMDsolvent "dichloromethane"
| 77> end
| 78> %pal nprocs 4 end
| 79> %tddft
| 80>  nroots 10
| 81>  maxdim 7
| 82> end
| 83> * xyzfile 0 1
| 84> 
| 85>                          ****END OF INPUT****
================================================================================


                 $$$$$$$$$$$$$$$$$$$$$$$$$$$$$$$$$$$$$$$$$$$$$$ 
                 $ THERE ARE  2 JOBS TO BE PROCESSED THIS RUN $
                 $$$$$$$$$$$$$$$$$$$$$$$$$$$$$$$$$$$$$$$$$$$$$$ 




                 $$$$$$$$$$$$$$$$  JOB NUMBER  1 $$$$$$$$$$$$$$


                       *****************************
                       * Geometry Optimization Run *
                       *****************************

Geometry optimization settings:
Update method            Update   .... BFGS
Choice of coordinates    CoordSys .... Z-matrix Internals
Initial Hessian          InHess   .... Almoef's Model

Convergence Tolerances:
Energy Change            TolE     ....  5.0000e-06 Eh
Max. Gradient            TolMAXG  ....  3.0000e-04 Eh/bohr
RMS Gradient             TolRMSG  ....  1.0000e-04 Eh/bohr
Max. Displacement        TolMAXD  ....  4.0000e-03 bohr
RMS Displacement         TolRMSD  ....  2.0000e-03 bohr
Strict Convergence                ....  False
------------------------------------------------------------------------------
                        ORCA OPTIMIZATION COORDINATE SETUP
------------------------------------------------------------------------------

The optimization will be done in new redundant internal coordinates
Making redundant internal coordinates   ...  (new redundants) done
Evaluating the initial hessian          ...  (Almloef) done
Evaluating the coordinates              ...  done
Calculating the B-matrix                .... done
Calculating the G-matrix                .... done
Diagonalizing the G-matrix              .... done
Small eigenvalue found = 4.824e-04
Small eigenvalue found = 4.326e-03
Small eigenvalue found = 4.621e-03
Small eigenvalue found = 9.152e-03
Small eigenvalue found = 1.064e-02
Small eigenvalue found = 1.901e-02
Small eigenvalue found = 2.220e-02
The first mode is                       ....   94
The number of degrees of freedom        ....  129

    -----------------------------------------------------------------
                    Redundant Internal Coordinates


    -----------------------------------------------------------------
         Definition                    Initial Value    Approx d2E/dq
    -----------------------------------------------------------------
      1. B(N   1,C   0)                  1.4416         0.462960   
      2. B(C   2,N   1)                  1.4417         0.462832   
      3. B(C   3,N   1)                  1.3663         0.610570   
      4. B(C   4,C   3)                  1.4060         0.589038   
      5. B(C   5,C   4)                  1.3737         0.663278   
      6. B(C   6,C   5)                  1.4001         0.602038   
      7. B(C   7,C   6)                  1.4378         0.524094   
      8. B(C   8,C   7)                  1.3489         0.726625   
      9. B(C   9,C   8)                  1.4242         0.551008   
     10. B(C  10,C   9)                  1.3836         0.639563   
     11. B(N  11,C  10)                  1.3461         0.657550   
     12. B(C  12,N  11)                  1.3120         0.745393   
     13. B(C  13,C  12)                  1.4245         0.550511   
     14. B(C  14,C  13)                  1.3469         0.732088   
     15. B(C  15,C  14)                  1.4436         0.513178   
     16. B(C  16,C  15)                  1.4014         0.599072   
     17. B(C  17,C  16)                  1.3762         0.657344   
     18. B(C  18,C  17)                  1.3976         0.607532   
     19. B(C  19,C  18)                  1.4111         0.578247   
     20. B(N  20,C  19)                  1.1473         1.365097   
     21. B(C  21,C  18)                  1.3968         0.609324   
     22. B(C  22,C  21)                  1.3765         0.656614   
     23. B(C  22,C  15)                  1.4019         0.598068   
     24. B(O  23,C  12)                  1.3560         0.633984   
     25. B(O  23,C   9)                  1.3572         0.631171   
     26. B(C  24,C   6)                  1.4006         0.601037   
     27. B(C  25,C  24)                  1.3741         0.662470   
     28. B(C  25,C   3)                  1.4052         0.590841   
     29. B(H  26,C   0)                  1.0954         0.352981   
     30. B(H  27,C   0)                  1.0873         0.363747   
     31. B(H  28,C   0)                  1.0934         0.355614   
     32. B(H  29,C   2)                  1.0873         0.363701   
     33. B(H  30,C   2)                  1.0953         0.353143   
     34. B(H  31,C   2)                  1.0936         0.355404   
     35. B(H  32,C   4)                  1.0777         0.376799   
     36. B(H  33,C   5)                  1.0792         0.374647   
     37. B(H  34,C   7)                  1.0833         0.369084   
     38. B(H  35,C   8)                  1.0794         0.374394   
     39. B(H  36,C  10)                  1.0705         0.386893   
     40. B(H  37,C  13)                  1.0785         0.375613   
     41. B(H  38,C  14)                  1.0827         0.369868   
     42. B(H  39,C  16)                  1.0785         0.375686   
     43. B(H  40,C  17)                  1.0802         0.373237   
     44. B(H  41,C  21)                  1.0803         0.373169   
     45. B(H  42,C  22)                  1.0805         0.372826   
     46. B(H  43,C  24)                  1.0812         0.371976   
     47. B(H  44,C  25)                  1.0776         0.376814   
     48. A(N   1,C   0,H  28)          110.8791         0.333300   
     49. A(H  26,C   0,H  28)          108.6078         0.289360   
     50. A(H  27,C   0,H  28)          107.9725         0.290727   
     51. A(N   1,C   0,H  27)          109.5368         0.334553   
     52. A(N   1,C   0,H  26)          111.5211         0.332889   
     53. A(H  26,C   0,H  27)          108.2183         0.290388   
     54. A(C   0,N   1,C   3)          120.5706         0.405598   
     55. A(C   2,N   1,C   3)          120.5773         0.405578   
     56. A(C   0,N   1,C   2)          118.8497         0.386356   
     57. A(N   1,C   2,H  30)          111.4657         0.332899   
     58. A(H  29,C   2,H  31)          107.9800         0.290694   
     59. A(N   1,C   2,H  29)          109.5442         0.334531   
     60. A(N   1,C   2,H  31)          110.9527         0.333252   
     61. A(H  29,C   2,H  30)          108.1897         0.290403   
     62. A(H  30,C   2,H  31)          108.6027         0.289354   
     63. A(C   4,C   3,C  25)          116.9988         0.426389   
     64. A(N   1,C   3,C   4)          121.4383         0.426110   
     65. A(N   1,C   3,C  25)          121.5628         0.426343   
     66. A(C   5,C   4,H  32)          118.3434         0.359734   
     67. A(C   3,C   4,H  32)          120.2426         0.352557   
     68. A(C   3,C   4,C   5)          121.4123         0.435337   
     69. A(C   4,C   5,C   6)          121.7081         0.437053   
     70. A(C   4,C   5,H  33)          118.5157         0.359383   
     71. A(C   6,C   5,H  33)          119.7760         0.353519   
     72. A(C   5,C   6,C   7)          123.7093         0.418985   
     73. A(C   5,C   6,C  24)          116.7653         0.429376   
     74. A(C   7,C   6,C  24)          119.5253         0.418860   
     75. A(C   6,C   7,H  34)          115.5146         0.344480   
     76. A(C   6,C   7,C   8)          126.8209         0.433336   
     77. A(C   8,C   7,H  34)          117.6645         0.364090   
     78. A(C   7,C   8,C   9)          123.7832         0.437261   
     79. A(C   7,C   8,H  35)          121.9053         0.364981   
     80. A(C   9,C   8,H  35)          114.3115         0.348230   
     81. A(C   8,C   9,O  23)          122.4143         0.423559   
     82. A(C   8,C   9,C  10)          130.7864         0.427345   
     83. A(C  10,C   9,O  23)          106.7992         0.435037   
     84. A(C   9,C  10,H  36)          128.8873         0.359123   
     85. A(C   9,C  10,N  11)          109.3483         0.438259   
     86. A(N  11,C  10,H  36)          121.7644         0.358588   
     87. A(C  10,N  11,C  12)          105.6457         0.447600   
     88. A(N  11,C  12,C  13)          125.1449         0.436324   
     89. A(N  11,C  12,O  23)          112.7782         0.444650   
     90. A(C  13,C  12,O  23)          122.0768         0.423828   
     91. A(C  14,C  13,H  37)          122.8378         0.365653   
     92. A(C  12,C  13,H  37)          113.5455         0.348367   
     93. A(C  12,C  13,C  14)          123.6167         0.437781   
     94. A(C  13,C  14,H  38)          117.9902         0.364689   
     95. A(C  13,C  14,C  15)          126.4023         0.432281   
     96. A(C  15,C  14,H  38)          115.6076         0.343388   
     97. A(C  16,C  15,C  22)          118.0876         0.428615   
     98. A(C  14,C  15,C  22)          118.8358         0.416925   
     99. A(C  14,C  15,C  16)          123.0765         0.417049   
    100. A(C  15,C  16,C  17)          121.0302         0.435957   
    101. A(C  17,C  16,H  39)          119.1211         0.359003   
    102. A(C  15,C  16,H  39)          119.8487         0.353389   
    103. A(C  16,C  17,C  18)          120.0994         0.437060   
    104. A(C  18,C  17,H  40)          119.3898         0.353837   
    105. A(C  16,C  17,H  40)          120.5108         0.358603   
    106. A(C  19,C  18,C  21)          120.1843         0.427331   
    107. A(C  17,C  18,C  21)          119.6579         0.431135   
    108. A(C  17,C  18,C  19)          120.1578         0.427106   
    109. L(C  18,C  19,N  20,C  21, 2) 179.9927         0.491757   
    110. L(C  18,C  19,N  20,C  21, 1) 179.9751         0.491757   
    111. A(C  18,C  21,C  22)          119.7496         0.437205   
    112. A(C  22,C  21,H  41)          120.7020         0.358525   
    113. A(C  18,C  21,H  41)          119.5484         0.354003   
    114. A(C  15,C  22,C  21)          121.3753         0.435739   
    115. A(C  21,C  22,H  42)          119.4980         0.358468   
    116. A(C  15,C  22,H  42)          119.1268         0.352832   
    117. A(C   9,O  23,C  12)          105.4285         0.431510   
    118. A(C   6,C  24,C  25)          122.0281         0.436826   
    119. A(C  25,C  24,H  43)          118.9495         0.358871   
    120. A(C   6,C  24,H  43)          119.0222         0.352992   
    121. A(C  24,C  25,H  44)          118.5195         0.359662   
    122. A(C   3,C  25,C  24)          121.0874         0.435481   
    123. A(C   3,C  25,H  44)          120.3915         0.352742   
    124. D(C   3,N   1,C   0,H  26)    -67.1580         0.018301   
    125. D(C   2,N   1,C   0,H  27)     -7.4846         0.018301   
    126. D(C   3,N   1,C   0,H  28)     54.0085         0.018301   
    127. D(C   2,N   1,C   0,H  26)    112.2857         0.018301   
    128. D(C   2,N   1,C   0,H  28)   -126.5479         0.018301   
    129. D(C   3,N   1,C   0,H  27)    173.0717         0.018301   
    130. D(H  31,C   2,N   1,C   3)     54.1209         0.018290   
    131. D(H  31,C   2,N   1,C   0)   -125.3227         0.018290   
    132. D(H  29,C   2,N   1,C   0)     -6.2000         0.018290   
    133. D(H  30,C   2,N   1,C   0)    113.5045         0.018290   
    134. D(H  29,C   2,N   1,C   3)    173.2436         0.018290   
    135. D(H  30,C   2,N   1,C   3)    -67.0519         0.018290   
    136. D(C  25,C   3,N   1,C   0)      4.1861         0.030116   
    137. D(C   4,C   3,N   1,C   0)   -175.7341         0.030116   
    138. D(C   4,C   3,N   1,C   2)      4.8319         0.030116   
    139. D(C  25,C   3,N   1,C   2)   -175.2479         0.030116   
    140. D(H  32,C   4,C   3,C  25)   -179.5389         0.023873   
    141. D(H  32,C   4,C   3,N   1)      0.3848         0.023873   
    142. D(C   5,C   4,C   3,C  25)     -0.0285         0.023873   
    143. D(C   5,C   4,C   3,N   1)    179.8952         0.023873   
    144. D(H  33,C   5,C   4,H  32)     -0.2859         0.030721   
    145. D(C   6,C   5,C   4,H  32)    179.5111         0.030721   
    146. D(C   6,C   5,C   4,C   3)     -0.0083         0.030721   
    147. D(H  33,C   5,C   4,C   3)   -179.8053         0.030721   
    148. D(C  24,C   6,C   5,H  33)    179.8093         0.024996   
    149. D(C  24,C   6,C   5,C   4)      0.0148         0.024996   
    150. D(C   7,C   6,C   5,H  33)     -0.1171         0.024996   
    151. D(C   7,C   6,C   5,C   4)   -179.9115         0.024996   
    152. D(H  34,C   7,C   6,C   5)    179.4935         0.018739   
    153. D(C   8,C   7,C   6,C  24)    179.5758         0.018739   
    154. D(C   8,C   7,C   6,C   5)     -0.4997         0.018739   
    155. D(H  34,C   7,C   6,C  24)     -0.4309         0.018739   
    156. D(H  35,C   8,C   7,H  34)    179.8971         0.037430   
    157. D(H  35,C   8,C   7,C   6)     -0.1097         0.037430   
    158. D(C   9,C   8,C   7,H  34)     -0.1209         0.037430   
    159. D(C   9,C   8,C   7,C   6)    179.8723         0.037430   
    160. D(O  23,C   9,C   8,H  35)    179.8306         0.020772   
    161. D(O  23,C   9,C   8,C   7)     -0.1526         0.020772   
    162. D(C  10,C   9,C   8,H  35)     -0.0864         0.020772   
    163. D(C  10,C   9,C   8,C   7)    179.9304         0.020772   
    164. D(H  36,C  10,C   9,O  23)    179.9957         0.028417   
    165. D(H  36,C  10,C   9,C   8)     -0.0775         0.028417   
    166. D(N  11,C  10,C   9,O  23)     -0.0011         0.028417   
    167. D(N  11,C  10,C   9,C   8)    179.9257         0.028417   
    168. D(C  12,N  11,C  10,H  36)    179.9977         0.032016   
    169. D(C  12,N  11,C  10,C   9)     -0.0053         0.032016   
    170. D(O  23,C  12,N  11,C  10)      0.0101         0.042142   
    171. D(C  13,C  12,N  11,C  10)   -179.9156         0.042142   
    172. D(H  37,C  13,C  12,O  23)   -179.9611         0.020734   
    173. D(H  37,C  13,C  12,N  11)     -0.0421         0.020734   
    174. D(C  14,C  13,C  12,O  23)      0.0163         0.020734   
    175. D(C  14,C  13,C  12,N  11)    179.9354         0.020734   
    176. D(H  38,C  14,C  13,H  37)   -179.9516         0.038048   
    177. D(H  38,C  14,C  13,C  12)      0.0730         0.038048   
    178. D(C  15,C  14,C  13,H  37)      0.0636         0.038048   
    179. D(C  15,C  14,C  13,C  12)   -179.9118         0.038048   
    180. D(C  22,C  15,C  14,H  38)      0.1648         0.017951   
    181. D(C  22,C  15,C  14,C  13)   -179.8501         0.017951   
    182. D(C  16,C  15,C  14,H  38)   -179.7970         0.017951   
    183. D(C  16,C  15,C  14,C  13)      0.1882         0.017951   
    184. D(H  39,C  16,C  15,C  14)     -0.0090         0.024737   
    185. D(C  17,C  16,C  15,C  22)      0.0074         0.024737   
    186. D(C  17,C  16,C  15,C  14)    179.9694         0.024737   
    187. D(H  39,C  16,C  15,C  22)   -179.9710         0.024737   
    188. D(H  40,C  17,C  16,H  39)     -0.0060         0.030134   
    189. D(H  40,C  17,C  16,C  15)   -179.9845         0.030134   
    190. D(C  18,C  17,C  16,H  39)    179.9790         0.030134   
    191. D(C  18,C  17,C  16,C  15)      0.0005         0.030134   
    192. D(C  21,C  18,C  17,H  40)    179.9835         0.025480   
    193. D(C  21,C  18,C  17,C  16)     -0.0016         0.025480   
    194. D(C  19,C  18,C  17,H  40)     -0.0128         0.025480   
    195. D(C  19,C  18,C  17,C  16)   -179.9979         0.025480   
    196. D(H  41,C  21,C  18,C  19)     -0.0010         0.025639   
    197. D(H  41,C  21,C  18,C  17)   -179.9974         0.025639   
    198. D(C  22,C  21,C  18,C  19)    179.9910         0.025639   
    199. D(C  22,C  21,C  18,C  17)     -0.0054         0.025639   
    200. D(H  42,C  22,C  21,H  41)     -0.0076         0.030062   
    201. D(H  42,C  22,C  21,C  18)   -179.9995         0.030062   
    202. D(C  15,C  22,C  21,H  41)   -179.9945         0.030062   
    203. D(C  15,C  22,C  21,C  18)      0.0136         0.030062   
    204. D(H  42,C  22,C  15,C  16)    179.9986         0.024650   
    205. D(H  42,C  22,C  15,C  14)      0.0349         0.024650   
    206. D(C  21,C  22,C  15,C  16)     -0.0145         0.024650   
    207. D(C  21,C  22,C  15,C  14)   -179.9782         0.024650   
    208. D(C   9,O  23,C  12,C  13)    179.9174         0.029587   
    209. D(C   9,O  23,C  12,N  11)     -0.0108         0.029587   
    210. D(C  12,O  23,C   9,C  10)      0.0068         0.029305   
    211. D(C  12,O  23,C   9,C   8)   -179.9275         0.029305   
    212. D(H  43,C  24,C   6,C   7)     -0.2413         0.024908   
    213. D(H  43,C  24,C   6,C   5)    179.8291         0.024908   
    214. D(C  25,C  24,C   6,C   7)    179.9465         0.024908   
    215. D(C  25,C  24,C   6,C   5)      0.0169         0.024908   
    216. D(H  44,C  25,C  24,H  43)     -0.3237         0.030641   
    217. D(H  44,C  25,C  24,C   6)    179.4886         0.030641   
    218. D(C   3,C  25,C  24,H  43)   -179.8678         0.030641   
    219. D(C   3,C  25,C  24,C   6)     -0.0555         0.030641   
    220. D(H  44,C  25,C   3,C   4)   -179.4759         0.024027   
    221. D(H  44,C  25,C   3,N   1)      0.6005         0.024027   
    222. D(C  24,C  25,C   3,C   4)      0.0597         0.024027   
    223. D(C  24,C  25,C   3,N   1)   -179.8639         0.024027   
    -----------------------------------------------------------------

Number of atoms                         .... 45
Number of degrees of freedom            .... 223

         *************************************************************
         *                GEOMETRY OPTIMIZATION CYCLE   1            *
         *************************************************************
---------------------------------
CARTESIAN COORDINATES (ANGSTROEM)
---------------------------------
  C     -7.034100    1.206500   -1.691000
  N     -6.662000    0.458900   -0.515900
  C     -7.700700   -0.020200    0.361600
  C     -5.347200    0.218500   -0.232700
  C     -4.966600   -0.582500    0.858400
  C     -3.644500   -0.825600    1.141400
  C     -2.614000   -0.289600    0.359700
  C     -1.217500   -0.517300    0.615300
  C     -0.687800   -1.248700    1.617300
  C      0.711300   -1.433900    1.808600
  C      1.405700   -2.142700    2.772900
  N      2.727400   -2.029300    2.544400
  C      2.838400   -1.276300    1.475800
  C      4.067800   -0.892400    0.867300
  C      4.145900   -0.118000   -0.231900
  C      5.354900    0.305000   -0.897700
  C      6.635900   -0.059200   -0.461300
  C      7.760900    0.367900   -1.129000
  C      7.638700    1.177900   -2.261400
  C      8.791400    1.616500   -2.947000
  N      9.728300    1.973400   -3.504700
  C      6.369800    1.550800   -2.710800
  C      5.251400    1.117700   -2.035300
  O      1.637600   -0.883200    0.983500
  C     -2.995800    0.508000   -0.726400
  C     -4.314900    0.758400   -1.018500
  H     -6.716800    2.252500   -1.619000
  H     -8.114900    1.186400   -1.807600
  H     -6.589700    0.768100   -2.588700
  H     -8.661600    0.369600    0.034600
  H     -7.756100   -1.114100    0.357300
  H     -7.531500    0.316500    1.388200
  H     -5.715800   -1.029000    1.491400
  H     -3.405300   -1.449900    1.988600
  H     -0.533000   -0.045000   -0.078900
  H     -1.306100   -1.747300    2.348200
  H      1.022700   -2.711200    3.595100
  H      4.938100   -1.282100    1.371200
  H      3.221400    0.231200   -0.674200
  H      6.748500   -0.684000    0.410500
  H      8.744300    0.081900   -0.785400
  H      6.277400    2.176900   -3.586300
  H      4.271800    1.408600   -2.386500
  H     -2.229400    0.942800   -1.352900
  H     -4.544500    1.387100   -1.863100

----------------------------
CARTESIAN COORDINATES (A.U.)
----------------------------
  NO LB      ZA    FRAG     MASS         X           Y           Z
   0 C     6.0000    0    12.011  -13.292523    2.279955   -3.195527
   1 N     7.0000    0    14.007  -12.589356    0.867195   -0.974910
   2 C     6.0000    0    12.011  -14.552214   -0.038172    0.683325
   3 C     6.0000    0    12.011  -10.104744    0.412905   -0.439739
   4 C     6.0000    0    12.011   -9.385514   -1.100765    1.622141
   5 C     6.0000    0    12.011   -6.887107   -1.560158    2.156933
   6 C     6.0000    0    12.011   -4.939744   -0.547265    0.679734
   7 C     6.0000    0    12.011   -2.300742   -0.977555    1.162748
   8 C     6.0000    0    12.011   -1.299754   -2.359701    3.056254
   9 C     6.0000    0    12.011    1.344162   -2.709678    3.417759
  10 C     6.0000    0    12.011    2.656388   -4.049116    5.240022
  11 N     7.0000    0    14.007    5.154039   -3.834821    4.808219
  12 C     6.0000    0    12.011    5.363799   -2.411857    2.788858
  13 C     6.0000    0    12.011    7.687028   -1.686392    1.638959
  14 C     6.0000    0    12.011    7.834616   -0.222988   -0.438227
  15 C     6.0000    0    12.011   10.119294    0.576366   -1.696407
  16 C     6.0000    0    12.011   12.540034   -0.111872   -0.871731
  17 C     6.0000    0    12.011   14.665976    0.695230   -2.133501
  18 C     6.0000    0    12.011   14.435051    2.225908   -4.273427
  19 C     6.0000    0    12.011   16.613338    3.054742   -5.569023
  20 N     7.0000    0    14.007   18.383823    3.729186   -6.622923
  21 C     6.0000    0    12.011   12.037178    2.930587   -5.122670
  22 C     6.0000    0    12.011    9.923708    2.112147   -3.846160
  23 O     8.0000    0    15.999    3.094616   -1.669006    1.858546
  24 C     6.0000    0    12.011   -5.661242    0.959981   -1.372697
  25 C     6.0000    0    12.011   -8.153979    1.433168   -1.924686
  26 H     1.0000    0     1.008  -12.692912    4.256608   -3.059467
  27 H     1.0000    0     1.008  -15.334939    2.241971   -3.415869
  28 H     1.0000    0     1.008  -12.452728    1.451499   -4.891934
  29 H     1.0000    0     1.008  -16.368052    0.698443    0.065385
  30 H     1.0000    0     1.008  -14.656905   -2.105344    0.675199
  31 H     1.0000    0     1.008  -14.232472    0.598098    2.623318
  32 H     1.0000    0     1.008  -10.801297   -1.944528    2.818338
  33 H     1.0000    0     1.008   -6.435084   -2.739914    3.757909
  34 H     1.0000    0     1.008   -1.007224   -0.085038   -0.149099
  35 H     1.0000    0     1.008   -2.468171   -3.301918    4.437455
  36 H     1.0000    0     1.008    1.932623   -5.123425    6.793754
  37 H     1.0000    0     1.008    9.331657   -2.422818    2.591192
  38 H     1.0000    0     1.008    6.087564    0.436905   -1.274053
  39 H     1.0000    0     1.008   12.752817   -1.292573    0.775733
  40 H     1.0000    0     1.008   16.524332    0.154769   -1.484191
  41 H     1.0000    0     1.008   11.862567    4.113745   -6.777125
  42 H     1.0000    0     1.008    8.072532    2.661868   -4.509831
  43 H     1.0000    0     1.008   -4.212955    1.781634   -2.556610
  44 H     1.0000    0     1.008   -8.587860    2.621239   -3.520749

--------------------------------
INTERNAL COORDINATES (ANGSTROEM)
--------------------------------
 C      0   0   0     0.000000000000     0.00000000     0.00000000
 N      1   0   0     1.441604723910     0.00000000     0.00000000
 C      2   1   0     1.441679836163   118.84974429     0.00000000
 C      2   1   3     1.366269900130   120.57059187   180.55635265
 C      4   2   1     1.406042876302   121.43828949   184.26586377
 C      5   4   2     1.373730330159   121.41227506   179.89516895
 C      6   5   4     1.400100403543   121.70805300     0.00000000
 C      7   6   5     1.437842446167   123.70934031   180.08845412
 C      8   7   6     1.348900311365   126.82092464   359.50025241
 C      9   8   7     1.424210497083   123.78319210   179.87225388
 C     10   9   8     1.383641315515   130.78644473   179.93040481
 N     11  10   9     1.346091638782   109.34832219   179.92570326
 C     12  11  10     1.311958825573   105.64571737     0.00000000
 C     13  12  11     1.424456324357   125.14487742   180.08444780
 C     14  13  12     1.346861392275   123.61666632   179.93537789
 C     15  14  13     1.443571834028   126.40228310   180.08824129
 C     16  15  14     1.401444825885   123.07653739     0.18815714
 C     17  16  15     1.376176841834   121.03015647   179.96937209
 C     18  17  16     1.397627489712   120.09939613     0.00000000
 C     19  18  17     1.411075692513   120.15780912   180.00205244
 N     20  19  18     1.147252592065   179.97485998   188.32869467
 C     19  18  17     1.396825679890   119.65790761     0.00000000
 C     22  19  18     1.376478993665   119.74962244     0.00000000
 O     13  12  11     1.356026378799   112.77824999     0.00000000
 C      7   6   5     1.400553536999   116.76531523     0.00000000
 C     25   7   6     1.374062363941   122.02806240     0.00000000
 H      1   2   3     1.095435662191   111.52112712   112.28568356
 H      1   2   3     1.087257195883   109.53677999   352.51535149
 H      1   2   3     1.093412643973   110.87911509   233.45213827
 H      3   2   1     1.087291060388   109.54422423   353.80003227
 H      3   2   1     1.095310394363   111.46572237   113.50447745
 H      3   2   1     1.093573541194   110.95266026   234.67733903
 H      5   4   2     1.077660377856   120.24257905     0.38477802
 H      6   5   4     1.079219611571   118.51567088   180.19469330
 H      8   7   6     1.083291825871   115.51461787   179.49353674
 H      9   8   7     1.079403381503   121.90528986   359.89028611
 H     11  10   9     1.070464427246   128.88730640   359.92245911
 H     14  13  12     1.078519072618   113.54548734   359.95793764
 H     15  14  13     1.082714265169   117.99015512     0.07303756
 H     17  16  15     1.078466058808   119.84870065     0.00000000
 H     18  17  16     1.080246508904   120.51077880   180.01552781
 H     22  19  18     1.080295894651   119.54839059   180.00264007
 H     23  22  19     1.080546347918   119.49798123   180.00048566
 H     25   7   6     1.081167077745   119.02216084   179.82905816
 H     26  25   7     1.077649762214   118.51950046   179.48862482

---------------------------
INTERNAL COORDINATES (A.U.)
---------------------------
 C      0   0   0     0.000000000000     0.00000000     0.00000000
 N      1   0   0     2.724238121557     0.00000000     0.00000000
 C      2   1   0     2.724380063145   118.84974429     0.00000000
 C      2   1   3     2.581875936265   120.57059187   180.55635265
 C      4   2   1     2.657035968762   121.43828949   184.26586377
 C      5   4   2     2.595974105863   121.41227506   179.89516895
 C      6   5   4     2.645806322688   121.70805300     0.00000000
 C      7   6   5     2.717128446983   123.70934031   180.08845412
 C      8   7   6     2.549052170441   126.82092464   359.50025241
 C      9   8   7     2.691367796542   123.78319210   179.87225388
 C     10   9   8     2.614703153902   130.78644473   179.93040481
 N     11  10   9     2.543744548460   109.34832219   179.92570326
 C     12  11  10     2.479242879315   105.64571737     0.00000000
 C     13  12  11     2.691832342766   125.14487742   180.08444780
 C     14  13  12     2.545199171751   123.61666632   179.93537789
 C     15  14  13     2.727955420956   126.40228310   180.08824129
 C     16  15  14     2.648346912724   123.07653739     0.18815714
 C     17  16  15     2.600597342911   121.03015647   179.96937209
 C     18  17  16     2.641133192796   120.09939613     0.00000000
 C     19  18  17     2.666546613082   120.15780912   180.00205244
 N     20  19  18     2.167993205434   179.97485998   188.32869467
 C     19  18  17     2.639617991820   119.65790761     0.00000000
 C     22  19  18     2.601168327122   119.74962244     0.00000000
 O     13  12  11     2.562518486304   112.77824999     0.00000000
 C      7   6   5     2.646662620823   116.76531523     0.00000000
 C     25   7   6     2.596601558778   122.02806240     0.00000000
 H      1   2   3     2.070073398872   111.52112712   112.28568356
 H      1   2   3     2.054618337355   109.53677999   352.51535149
 H      1   2   3     2.066250448476   110.87911509   233.45213827
 H      3   2   1     2.054682331994   109.54422423   353.80003227
 H      3   2   1     2.069836676984   111.46572237   113.50447745
 H      3   2   1     2.066554500159   110.95266026   234.67733903
 H      5   4   2     2.036482979525   120.24257905     0.38477802
 H      6   5   4     2.039429504227   118.51567088   180.19469330
 H      8   7   6     2.047124874013   115.51461787   179.49353674
 H      9   8   7     2.039776779069   121.90528986   359.89028611
 H     11  10   9     2.022884603601   128.88730640   359.92245911
 H     14  13  12     2.038105677458   113.54548734   359.95793764
 H     15  14  13     2.046033442459   117.99015512     0.07303756
 H     17  16  15     2.038005495876   119.84870065     0.00000000
 H     18  17  16     2.041370058954   120.51077880   180.01552781
 H     22  19  18     2.041463384490   119.54839059   180.00264007
 H     23  22  19     2.041936672575   119.49798123   180.00048566
 H     25   7   6     2.043109681950   119.02216084   179.82905816
 H     26  25   7     2.036462918870   118.51950046   179.48862482

---------------------
BASIS SET INFORMATION
---------------------
There are 4 groups of distinct atoms

 Group   1 Type C   : 19s6p3d2f contracted to 5s4p3d2f pattern {88111/3111/111/11}
 Group   2 Type N   : 19s6p3d2f contracted to 5s4p3d2f pattern {88111/3111/111/11}
 Group   3 Type O   : 19s6p3d2f contracted to 5s4p3d2f pattern {88111/3111/111/11}
 Group   4 Type H   : 5s2p1d contracted to 3s2p1d pattern {311/11/1}

Atom   0C    basis set group =>   1
Atom   1N    basis set group =>   2
Atom   2C    basis set group =>   1
Atom   3C    basis set group =>   1
Atom   4C    basis set group =>   1
Atom   5C    basis set group =>   1
Atom   6C    basis set group =>   1
Atom   7C    basis set group =>   1
Atom   8C    basis set group =>   1
Atom   9C    basis set group =>   1
Atom  10C    basis set group =>   1
Atom  11N    basis set group =>   2
Atom  12C    basis set group =>   1
Atom  13C    basis set group =>   1
Atom  14C    basis set group =>   1
Atom  15C    basis set group =>   1
Atom  16C    basis set group =>   1
Atom  17C    basis set group =>   1
Atom  18C    basis set group =>   1
Atom  19C    basis set group =>   1
Atom  20N    basis set group =>   2
Atom  21C    basis set group =>   1
Atom  22C    basis set group =>   1
Atom  23O    basis set group =>   3
Atom  24C    basis set group =>   1
Atom  25C    basis set group =>   1
Atom  26H    basis set group =>   4
Atom  27H    basis set group =>   4
Atom  28H    basis set group =>   4
Atom  29H    basis set group =>   4
Atom  30H    basis set group =>   4
Atom  31H    basis set group =>   4
Atom  32H    basis set group =>   4
Atom  33H    basis set group =>   4
Atom  34H    basis set group =>   4
Atom  35H    basis set group =>   4
Atom  36H    basis set group =>   4
Atom  37H    basis set group =>   4
Atom  38H    basis set group =>   4
Atom  39H    basis set group =>   4
Atom  40H    basis set group =>   4
Atom  41H    basis set group =>   4
Atom  42H    basis set group =>   4
Atom  43H    basis set group =>   4
Atom  44H    basis set group =>   4
---------------------------------
AUXILIARY/J BASIS SET INFORMATION
---------------------------------
There are 4 groups of distinct atoms

 Group   1 Type C   : 10s7p5d2f1g contracted to 10s7p5d2f1g pattern {1111111111/1111111/11111/11/1}
 Group   2 Type N   : 10s7p5d2f1g contracted to 10s7p5d2f1g pattern {1111111111/1111111/11111/11/1}
 Group   3 Type O   : 10s7p5d2f1g contracted to 10s7p5d2f1g pattern {1111111111/1111111/11111/11/1}
 Group   4 Type H   : 4s3p2d1f contracted to 4s3p2d1f pattern {1111/111/11/1}

Atom   0C    basis set group =>   1
Atom   1N    basis set group =>   2
Atom   2C    basis set group =>   1
Atom   3C    basis set group =>   1
Atom   4C    basis set group =>   1
Atom   5C    basis set group =>   1
Atom   6C    basis set group =>   1
Atom   7C    basis set group =>   1
Atom   8C    basis set group =>   1
Atom   9C    basis set group =>   1
Atom  10C    basis set group =>   1
Atom  11N    basis set group =>   2
Atom  12C    basis set group =>   1
Atom  13C    basis set group =>   1
Atom  14C    basis set group =>   1
Atom  15C    basis set group =>   1
Atom  16C    basis set group =>   1
Atom  17C    basis set group =>   1
Atom  18C    basis set group =>   1
Atom  19C    basis set group =>   1
Atom  20N    basis set group =>   2
Atom  21C    basis set group =>   1
Atom  22C    basis set group =>   1
Atom  23O    basis set group =>   3
Atom  24C    basis set group =>   1
Atom  25C    basis set group =>   1
Atom  26H    basis set group =>   4
Atom  27H    basis set group =>   4
Atom  28H    basis set group =>   4
Atom  29H    basis set group =>   4
Atom  30H    basis set group =>   4
Atom  31H    basis set group =>   4
Atom  32H    basis set group =>   4
Atom  33H    basis set group =>   4
Atom  34H    basis set group =>   4
Atom  35H    basis set group =>   4
Atom  36H    basis set group =>   4
Atom  37H    basis set group =>   4
Atom  38H    basis set group =>   4
Atom  39H    basis set group =>   4
Atom  40H    basis set group =>   4
Atom  41H    basis set group =>   4
Atom  42H    basis set group =>   4
Atom  43H    basis set group =>   4
Atom  44H    basis set group =>   4
---------------------------------
AUXILIARY/C BASIS SET INFORMATION
---------------------------------
There are 4 groups of distinct atoms

 Group   1 Type C   : 9s7p6d4f2g contracted to 9s7p6d4f2g pattern {111111111/1111111/111111/1111/11}
 Group   2 Type N   : 9s7p6d4f2g contracted to 9s7p6d4f2g pattern {111111111/1111111/111111/1111/11}
 Group   3 Type O   : 9s7p6d4f2g contracted to 9s7p6d4f2g pattern {111111111/1111111/111111/1111/11}
 Group   4 Type H   : 4s3p2d1f contracted to 4s3p2d1f pattern {1111/111/11/1}

Atom   0C    basis set group =>   1
Atom   1N    basis set group =>   2
Atom   2C    basis set group =>   1
Atom   3C    basis set group =>   1
Atom   4C    basis set group =>   1
Atom   5C    basis set group =>   1
Atom   6C    basis set group =>   1
Atom   7C    basis set group =>   1
Atom   8C    basis set group =>   1
Atom   9C    basis set group =>   1
Atom  10C    basis set group =>   1
Atom  11N    basis set group =>   2
Atom  12C    basis set group =>   1
Atom  13C    basis set group =>   1
Atom  14C    basis set group =>   1
Atom  15C    basis set group =>   1
Atom  16C    basis set group =>   1
Atom  17C    basis set group =>   1
Atom  18C    basis set group =>   1
Atom  19C    basis set group =>   1
Atom  20N    basis set group =>   2
Atom  21C    basis set group =>   1
Atom  22C    basis set group =>   1
Atom  23O    basis set group =>   3
Atom  24C    basis set group =>   1
Atom  25C    basis set group =>   1
Atom  26H    basis set group =>   4
Atom  27H    basis set group =>   4
Atom  28H    basis set group =>   4
Atom  29H    basis set group =>   4
Atom  30H    basis set group =>   4
Atom  31H    basis set group =>   4
Atom  32H    basis set group =>   4
Atom  33H    basis set group =>   4
Atom  34H    basis set group =>   4
Atom  35H    basis set group =>   4
Atom  36H    basis set group =>   4
Atom  37H    basis set group =>   4
Atom  38H    basis set group =>   4
Atom  39H    basis set group =>   4
Atom  40H    basis set group =>   4
Atom  41H    basis set group =>   4
Atom  42H    basis set group =>   4
Atom  43H    basis set group =>   4
Atom  44H    basis set group =>   4


           ************************************************************
           *        Program running with 4 parallel MPI-processes     *
           *              working on a common directory               *
           ************************************************************
------------------------------------------------------------------------------
                           ORCA GTO INTEGRAL CALCULATION
                           -- RI-GTO INTEGRALS CHOSEN --
------------------------------------------------------------------------------
------------------------------------------------------------------------------
                   ___                                                        
                  /   \      - P O W E R E D   B Y -                         
                 /     \                                                     
                 |  |  |   _    _      __       _____    __    __             
                 |  |  |  | |  | |    /  \     |  _  \  |  |  /  |          
                  \  \/   | |  | |   /    \    | | | |  |  | /  /          
                 / \  \   | |__| |  /  /\  \   | |_| |  |  |/  /          
                |  |  |   |  __  | /  /__\  \  |    /   |      \           
                |  |  |   | |  | | |   __   |  |    \   |  |\   \          
                \     /   | |  | | |  |  |  |  | |\  \  |  | \   \       
                 \___/    |_|  |_| |__|  |__|  |_| \__\ |__|  \__/        
                                                                              
                      - O R C A' S   B I G   F R I E N D -                    
                                      &                                       
                       - I N T E G R A L  F E E D E R -                       
                                                                              
 v1 FN, 2020, v2 2021                                                         
------------------------------------------------------------------------------


Reading SHARK input file optpbed3-b2plyp-test-290.SHARKINP.tmp ... ok
----------------------
SHARK INTEGRAL PACKAGE
----------------------

Number of atoms                             ...     45
Number of basis functions                   ...   1618
Number of shells                            ...    634
Maximum angular momentum                    ...      3
Integral batch strategy                     ... SHARK/LIBINT Hybrid
RI-J (if used) integral strategy            ... SPLIT-RIJ (Revised 2003 algorithm where possible)
Printlevel                                  ...      1
Contraction scheme used                     ... PARTIAL GENERAL contraction
Coulomb Range Separation                    ... NOT USED
Exchange Range Separation                   ... NOT USED
Finite Nucleus Model                        ... NOT USED
Auxiliary Coulomb fitting basis             ... AVAILABLE
   # of basis functions in Aux-J            ...   2624
   # of shells in Aux-J                     ...    840
   Maximum angular momentum in Aux-J        ...      4
Auxiliary J/K fitting basis                 ... NOT available
Auxiliary Correlation fitting basis         ... AVAILABLE
   # of basis functions in Aux-C            ...   3326
   # of shells in Aux-C                     ...    918
   Maximum angular momentum in Aux-C        ...      4
Auxiliary 'external' fitting basis          ... NOT available
Integral threshold                          ...     2.500000e-11
Primitive cut-off                           ...     2.500000e-12
Primitive pair pre-selection threshold      ...     2.500000e-12

Calculating pre-screening integrals         ... done (  0.3 sec) Dimension = 634
Calculating pre-screening integrals (ORCA)  ... done (  0.8 sec) Dimension = 478
Organizing shell pair data                  ... done (  2.0 sec)
Shell pair information
Total number of shell pairs                 ...    201295
Shell pairs after pre-screening             ...     99846
Total number of primitive shell pairs       ...    262585
Primitive shell pairs kept                  ...    116329
          la=0 lb=0:  22707 shell pairs
          la=1 lb=0:  26463 shell pairs
          la=1 lb=1:   6719 shell pairs
          la=2 lb=0:  16290 shell pairs
          la=2 lb=1:   8497 shell pairs
          la=2 lb=2:   2747 shell pairs
          la=3 lb=0:   8420 shell pairs
          la=3 lb=1:   4436 shell pairs
          la=3 lb=2:   2813 shell pairs
          la=3 lb=3:    754 shell pairs

Calculating one electron integrals          ... done (  0.4 sec)
Calculating RI/J V-Matrix + Cholesky decomp.... done (  0.6 sec)
Calculating RI/C V-Matrix + Cholesky decomp.... done (  0.9 sec)
Calculating Nuclear repulsion               ... done (  0.0 sec) ENN=   1875.782865662681 Eh

SHARK setup successfully completed in   6.6 seconds

Maximum memory used throughout the entire GTOINT-calculation: 177.0 MB


           ************************************************************
           *        Program running with 4 parallel MPI-processes     *
           *              working on a common directory               *
           ************************************************************
-------------------------------------------------------------------------------
                                 ORCA SCF
-------------------------------------------------------------------------------

------------
SCF SETTINGS
------------
Hamiltonian:
 Density Functional     Method          .... DFT(GTOs)
 Exchange Functional    Exchange        .... PBE
   PBE kappa parameter   XKappa         ....  0.804000
   PBE mue parameter    XMuePBE         ....  0.219520
 Correlation Functional Correlation     .... PBE
   PBE beta parameter  CBetaPBE         ....  0.066725
 LDA part of GGA corr.  LDAOpt          .... PW91-LDA
 Gradients option       PostSCFGGA      .... off
 Hybrid DFT is turned on
   Fraction HF Exchange ScalHFX         ....  0.250000
   Scaling of DF-GGA-X  ScalDFX         ....  0.750000
   Scaling of DF-GGA-C  ScalDFC         ....  1.000000
   Scaling of DF-LDA-C  ScalLDAC        ....  1.000000
   Perturbative correction              ....  0.000000
   Density functional embedding theory  .... OFF
   NL short-range parameter             ....  6.900000
 RI-approximation to the Coulomb term is turned on
   Number of AuxJ basis functions       .... 2624
   RIJ-COSX (HFX calculated with COS-X)).... on


General Settings:
 Integral files         IntName         .... optpbed3-b2plyp-test-290
 Hartree-Fock type      HFTyp           .... RHF
 Total Charge           Charge          ....    0
 Multiplicity           Mult            ....    1
 Number of Electrons    NEL             ....  180
 Basis Dimension        Dim             .... 1462
 Nuclear Repulsion      ENuc            ....   1875.7828656627 Eh

Convergence Acceleration:
 DIIS                   CNVDIIS         .... on
   Start iteration      DIISMaxIt       ....    12
   Startup error        DIISStart       ....  0.200000
   # of expansion vecs  DIISMaxEq       ....     5
   Bias factor          DIISBfac        ....   1.050
   Max. coefficient     DIISMaxC        ....  10.000
 Trust-Rad. Augm. Hess. CNVTRAH         .... auto
   Auto Start mean grad. ratio tolernc. ....  1.125000
   Auto Start start iteration           ....    20
   Auto Start num. interpolation iter.  ....    10
   Max. Number of Micro iterations      ....    16
   Max. Number of Macro iterations      .... Maxiter - #DIIS iter
   Number of Davidson start vectors     ....     2
   Converg. threshold I  (grad. norm)   ....   1.000e-05
   Converg. threshold II (energy diff.) ....   1.000e-08
   Grad. Scal. Fac. for Micro threshold ....   0.100
   Minimum threshold for Micro iter.    ....   0.010
   NR start threshold (gradient norm)   ....   0.001
   Initial trust radius                 ....   0.400
   Minimum AH scaling param. (alpha)    ....   1.000
   Maximum AH scaling param. (alpha)    .... 1000.000
   Orbital update algorithm             .... Taylor
   White noise on init. David. guess    .... on
   Maximum white noise                  ....   0.010
   Quad. conv. algorithm                .... NR
 SOSCF                  CNVSOSCF        .... on
   Start iteration      SOSCFMaxIt      ....   150
   Startup grad/error   SOSCFStart      ....  0.003300
 Level Shifting         CNVShift        .... on
   Level shift para.    LevelShift      ....    0.2500
   Turn off err/grad.   ShiftErr        ....    0.0010
 Zerner damping         CNVZerner       .... off
 Static damping         CNVDamp         .... on
   Fraction old density DampFac         ....    0.7000
   Max. Damping (<1)    DampMax         ....    0.9800
   Min. Damping (>=0)   DampMin         ....    0.0000
   Turn off err/grad.   DampErr         ....    0.1000
 Fernandez-Rico         CNVRico         .... off

SCF Procedure:
 Maximum # iterations   MaxIter         ....   125
 SCF integral mode      SCFMode         .... Direct
   Integral package                     .... SHARK and LIBINT hybrid scheme
 Reset frequency        DirectResetFreq ....    20
 Integral Threshold     Thresh          ....  2.500e-11 Eh
 Primitive CutOff       TCut            ....  2.500e-12 Eh

Convergence Tolerance:
 Convergence Check Mode ConvCheckMode   .... Total+1el-Energy
 Convergence forced     ConvForced      .... 0
 Energy Change          TolE            ....  1.000e-08 Eh
 1-El. energy change                    ....  1.000e-05 Eh
 Orbital Gradient       TolG            ....  1.000e-05
 Orbital Rotation angle TolX            ....  1.000e-05
 DIIS Error             TolErr          ....  5.000e-07


Diagonalization of the overlap matrix:
Smallest eigenvalue                        ... 2.323e-07
Time for diagonalization                   ...    0.568 sec
Threshold for overlap eigenvalues          ... 1.000e-08
Number of eigenvalues below threshold      ... 0
Time for construction of square roots      ...    0.654 sec
Total time needed                          ...    1.234 sec

Time for model grid setup =    1.520 sec

------------------------------
INITIAL GUESS: MODEL POTENTIAL
------------------------------
Loading Hartree-Fock densities                     ... done
Calculating cut-offs                               ... done
Initializing the effective Hamiltonian             ... done
Setting up the integral package (SHARK)            ... done
Starting the Coulomb interaction                   ... done (   4.8 sec)
Reading the grid                                   ... done
Mapping shells                                     ... done
Starting the XC term evaluation                    ... done (   2.9 sec)
  promolecular density results
     # of electrons  =    179.992985510
     EX              =   -145.968206383
     EC              =     -6.019337201
     EX+EC           =   -151.987543583
Transforming the Hamiltonian                       ... done (   0.3 sec)
Diagonalizing the Hamiltonian                      ... done (   0.7 sec)
Back transforming the eigenvectors                 ... done (   0.2 sec)
Now organizing SCF variables                       ... done
                      ------------------
                      INITIAL GUESS DONE (  10.5 sec)
                      ------------------
-------------------
DFT GRID GENERATION
-------------------

General Integration Accuracy     IntAcc      ... 4.388
Radial Grid Type                 RadialGrid  ... OptM3 with GC (2021)
Angular Grid (max. ang.)         AngularGrid ... 4 (Lebedev-302)
Angular grid pruning method      GridPruning ... 4 (adaptive)
Weight generation scheme         WeightScheme... Becke
Basis function cutoff            BFCut       ... 1.0000e-11
Integration weight cutoff        WCut        ... 1.0000e-14
Angular grids for H and He will be reduced by one unit
Partially contracted basis set               ... off
Rotationally invariant grid construction     ... off

Total number of grid points                  ...   223106
Total number of batches                      ...     3508
Average number of points per batch           ...       63
Average number of grid points per atom       ...     4958
Time for grid setup =    3.609 sec

--------------------
COSX GRID GENERATION
--------------------

GRIDX 1
-------
General Integration Accuracy     IntAcc      ... 3.816
Radial Grid Type                 RadialGrid  ... OptM3 with GC (2021)
Angular Grid (max. ang.)         AngularGrid ... 1 (Lebedev-50)
Angular grid pruning method      GridPruning ... 4 (adaptive)
Weight generation scheme         WeightScheme... Becke
Basis function cutoff            BFCut       ... 1.0000e-11
Integration weight cutoff        WCut        ... 1.0000e-14
Angular grids for H and He will be reduced by one unit
Partially contracted basis set               ... on
Rotationally invariant grid construction     ... off

Total number of grid points                  ...    28376
Total number of batches                      ...      469
Average number of points per batch           ...       60
Average number of grid points per atom       ...      631
UseSFitting                                  ... on

GRIDX 2
-------
General Integration Accuracy     IntAcc      ... 4.020
Radial Grid Type                 RadialGrid  ... OptM3 with GC (2021)
Angular Grid (max. ang.)         AngularGrid ... 2 (Lebedev-110)
Angular grid pruning method      GridPruning ... 4 (adaptive)
Weight generation scheme         WeightScheme... Becke
Basis function cutoff            BFCut       ... 1.0000e-11
Integration weight cutoff        WCut        ... 1.0000e-14
Angular grids for H and He will be reduced by one unit
Partially contracted basis set               ... on
Rotationally invariant grid construction     ... off

Total number of grid points                  ...    67385
Total number of batches                      ...     1079
Average number of points per batch           ...       62
Average number of grid points per atom       ...     1497
UseSFitting                                  ... on

GRIDX 3
-------
General Integration Accuracy     IntAcc      ... 4.338
Radial Grid Type                 RadialGrid  ... OptM3 with GC (2021)
Angular Grid (max. ang.)         AngularGrid ... 3 (Lebedev-194)
Angular grid pruning method      GridPruning ... 4 (adaptive)
Weight generation scheme         WeightScheme... Becke
Basis function cutoff            BFCut       ... 1.0000e-11
Integration weight cutoff        WCut        ... 1.0000e-14
Angular grids for H and He will be reduced by one unit
Partially contracted basis set               ... on
Rotationally invariant grid construction     ... off

Total number of grid points                  ...   145322
Total number of batches                      ...     2293
Average number of points per batch           ...       63
Average number of grid points per atom       ...     3229
UseSFitting                                  ... on

Time for X-Grid setup             =   10.794 sec


--------------------
CPCM SOLVATION MODEL
--------------------
CPCM parameters:
  Epsilon                                         ...       8.9300
  Refrac                                          ...       1.4242
  Rsolv                                           ...       1.3000
  Surface type                                    ... GAUSSIAN VDW
  Epsilon function type                           ...         CPCM
Solvent:                                     ... DICHLOROMETHANE
SMD-CDS solvent descriptors:
  Soln                                       ...    1.4242
  Soln25                                     ...    1.4212
  Sola                                       ...    0.1000
  Solb                                       ...    0.0500
  Solg                                       ...   39.1500
  Solc                                       ...    0.0000
  Solh                                       ...    0.6670
Radii:
 Radius for C  used is    3.4960 Bohr (=   1.8500 Ang.)
 Radius for N  used is    3.5716 Bohr (=   1.8900 Ang.)
 Radius for O  used is    3.9949 Bohr (=   2.1140 Ang.)
 Radius for H  used is    2.2677 Bohr (=   1.2000 Ang.)
Calculating surface                               ...        done! (  0.0s)
GEPOL surface points                              ...         2601
GEPOL Volume                                      ...    2506.4879
GEPOL Surface-area                                ...    1424.0481
Calculating surface distance matrix               ...        done! (  0.1s)
Performing Cholesky decomposition & store         ...        done! (  0.4s)
Overall time for CPCM initialization              ...                 0.6s
 re-compute Schwartz prescreening matrix in partically contracted basis (1) ...done (   0.367 sec)
--------------
SCF ITERATIONS
--------------
ITER       Energy         Delta-E        Max-DP      RMS-DP      [F,P]     Damp
               ***  Starting incremental Fock matrix formation  ***
  0  -1087.8050970073   0.000000000000 6.06351943  0.01703404  0.2282800 0.7000
  1  -1088.0364955226  -0.231398515251 6.01604325  0.01659835  0.1032185 0.7000
                               ***Turning on DIIS***
  2  -1088.1417216257  -0.10522610309114.97263147  0.04050521  0.0382468 0.0000
  3  -1088.3022184617  -0.160496836003 0.34534991  0.00169315  0.0480504 0.0000
  4  -1088.3345538940  -0.032335432287 0.20813772  0.00064289  0.0168074 0.0000
  5  -1088.3363675144  -0.001813620400 0.14880131  0.00044749  0.0084189 0.0000
                      *** Initiating the SOSCF procedure ***
                           *** Shutting down DIIS ***
                      *** Re-Reading the Fockian *** 
                      *** Removing any level shift *** 
ITER      Energy       Delta-E        Grad      Rot      Max-DP    RMS-DP
  6  -1088.33657322  -0.0002057054  0.000408  0.000408  0.075780  0.000358
               *** Restarting incremental Fock matrix formation ***
  7  -1088.33655874   0.0000144765  0.000277  0.002783  2.013532  0.006227
  8  -1088.33656628  -0.0000075324  0.000404  0.001630  1.009246  0.003653
  9  -1088.33656857  -0.0000022954  0.000275  0.000808  1.105238  0.003899
 10  -1088.33657119  -0.0000026209  0.000067  0.000143  0.257662  0.000684
 11  -1088.33657099   0.0000002042  0.000069  0.000240  0.398485  0.001314
 12  -1088.33657103  -0.0000000446  0.000007  0.000021  0.099421  0.000327
 13  -1088.33657118  -0.0000001509  0.000010  0.000012  0.213273  0.000588
 14  -1088.33657100   0.0000001879  0.000005  0.000021  1.014735  0.002816
 15  -1088.33657021   0.0000007845  0.000009  0.000014  0.581366  0.001569
 16  -1088.33657070  -0.0000004909  0.000008  0.000029  2.585803  0.007144
 17  -1088.33657273  -0.0000020291  0.000015  0.000022  1.666001  0.004573
 18  -1088.33657148   0.0000012550  0.000005  0.000010  0.762398  0.001977
 19  -1088.33657081   0.0000006618  0.000003  0.000008  0.072057  0.000281
 20  -1088.33657083  -0.0000000204  0.000003  0.000004  0.225034  0.000651
[...]
   Transformed RI Coulomb         ...     1.61 sec
   Transformed RI-exchange        ...  1061.26 sec
   (ab|v) reading and digestion   ...   993.97 sec
   Final sigma-completion         ...     0.01 sec
   Done building sigma-vectors             Size of expansion space: 40
   Lowest Energy          :     0.107166223308
   Maximum Energy change  :     0.000019036587 (vector 8)
   Maximum residual norm  :     0.000007061263

                       ****Iteration    8****
              <<< Entering MO-section for Build Sigma(Double) >>>
   Forming the XC and CPCM contribution:
   Time for densities:            0.453
   Time for XC-Integration:      29.749
   Time for LR-CPCM terms:       23.735
   Time for Sigma-Completion:     0.337
   Time for building 10 sigma-vectors
   Data Preparation Phase         ...     0.02 sec
   Transformed RI Coulomb         ...     1.59 sec
   Transformed RI-exchange        ...  1065.07 sec
   (ab|v) reading and digestion   ...   973.76 sec
   Final sigma-completion         ...     0.01 sec
   Done building sigma-vectors             Size of expansion space: 50
   Lowest Energy          :     0.107166223023
   Maximum Energy change  :     0.000024796508 (vector 8)
   Maximum residual norm  :     0.000005507081

                       ****Iteration    9****
              <<< Entering MO-section for Build Sigma(Double) >>>
   Forming the XC and CPCM contribution:
   Time for densities:            0.459
   Time for XC-Integration:      29.699
   Time for LR-CPCM terms:       23.936
   Time for Sigma-Completion:     0.338
   Time for building 10 sigma-vectors
   Data Preparation Phase         ...     0.02 sec
   Transformed RI Coulomb         ...     1.58 sec
   Transformed RI-exchange        ...  1058.01 sec
   (ab|v) reading and digestion   ...  1001.94 sec
   Final sigma-completion         ...     0.01 sec
   Done building sigma-vectors             Size of expansion space: 60
   Lowest Energy          :     0.107166222999
   Maximum Energy change  :     0.000022075652 (vector 8)
   Maximum residual norm  :     0.000003933592

                       ****Iteration   10****
              <<< Entering MO-section for Build Sigma(Double) >>>
   Forming the XC and CPCM contribution:
   Time for densities:            0.447
   Time for XC-Integration:      30.057
   Time for LR-CPCM terms:       23.564
   Time for Sigma-Completion:     0.337
   Time for building 10 sigma-vectors
   Data Preparation Phase         ...     0.02 sec
   Transformed RI Coulomb         ...     1.63 sec
   Transformed RI-exchange        ...  1080.84 sec
   (ab|v) reading and digestion   ...   982.15 sec
   Final sigma-completion         ...     0.01 sec
   Done building sigma-vectors             Size of expansion space: 70
   Lowest Energy          :     0.107166222997
   Maximum Energy change  :     0.000009061172 (vector 8)
   Maximum residual norm  :     0.000001183976
   Rebuilding the expansion space

                       ****Iteration   11****
              <<< Entering MO-section for Build Sigma(Double) >>>
   Forming the XC and CPCM contribution:
   Time for densities:            0.873
   Time for XC-Integration:      57.912
   Time for LR-CPCM terms:       35.843
   Time for Sigma-Completion:     0.686
   Time for building 20 sigma-vectors
   Data Preparation Phase         ...     0.03 sec
   Transformed RI Coulomb         ...     2.68 sec
   Transformed RI-exchange        ...  2178.76 sec
   (ab|v) reading and digestion   ...  2051.52 sec
   Final sigma-completion         ...     0.03 sec
   Done building sigma-vectors             Size of expansion space: 20
   Lowest Energy          :     0.107166222670
   Maximum Energy change  :     0.000002066414 (vector 8)
   Maximum residual norm  :     0.000000295537

      *** CONVERGENCE OF RESIDUAL NORM REACHED ***

Storing the converged CI vectors               ... optpbed3-b2plyp-test-290_job2.cis1

                 *** DAVIDSON DONE ***

Total time for solving the CIS problem: 15043.250sec

------------------
DOUBLES CORRECTION (Double precision version)
------------------

The (D) correction will be scaled by  0.2700
Doing v(i,a)*T(i,a) terms (RI)                    ... ok
Doing u(i,j,a,b) terms for state   0              ... ok
Doing u(i,j,a,b) terms for state   1              ... ok
Doing u(i,j,a,b) terms for state   2              ... ok
Doing u(i,j,a,b) terms for state   3              ... ok
Doing u(i,j,a,b) terms for state   4              ... ok
Doing u(i,j,a,b) terms for state   5              ... ok
Doing u(i,j,a,b) terms for state   6              ... ok
Doing u(i,j,a,b) terms for state   7              ... ok
Doing u(i,j,a,b) terms for state   8              ... ok
Doing u(i,j,a,b) terms for state   9              ... ok

Contributions to the (D) correction(s) (in eV)

STATE  Final   Init.   Total   v(ext)   v(int)  v(3)    u
       omega   omega     (D)                             
-----------------------------------------------------------------------------
   0   2.573   2.916  -0.343   0.660   1.033  -0.038  -1.999
   1   3.655   4.105  -0.449   0.557   1.017  -0.064  -1.960
   2   3.615   4.261  -0.646   0.656   0.965  -0.036  -2.232
   3   4.319   4.514  -0.195   0.035   1.005  -0.001  -1.234
   4   4.085   4.569  -0.484   0.477   0.984  -0.048  -1.897
   5   4.574   4.747  -0.173   0.035   1.015  -0.001  -1.222
   6   4.335   4.844  -0.510   0.527   0.967  -0.023  -1.981
   7   4.747   4.927  -0.181   0.034   1.020  -0.001  -1.233
   8   4.896   5.133  -0.237   0.270   0.996  -0.043  -1.460
   9   4.978   5.185  -0.207   0.030   1.013  -0.001  -1.249

(D)-timings
 V(i,a)*T(i,a) terms           ...  2276.257 sec
 U(i,j,a,b) 3-internal         ...    46.504 sec
 U(i,j,a,b) 3-external         ...  1053.718 sec
 U(i,j,a,b) pair terms         ...  1415.291 sec
 Total measured time           ... 12498.319 sec

 Time for (ab|v) I/O           ...   214.515 sec


------------------------------------
TD-DFT/TDA EXCITED STATES (SINGLETS)
------------------------------------

the weight of the individual excitations are printed if larger than 1.0e-02

STATE  1:  E=   0.094568 au      2.573 eV    20755.4 cm**-1 <S**2> =   0.000000
    88a ->  90a  :     0.067012 (c=  0.25886670)
    89a ->  90a  :     0.831134 (c= -0.91166576)
    89a ->  91a  :     0.072224 (c= -0.26874437)

STATE  2:  E=   0.134329 au      3.655 eV    29481.7 cm**-1 <S**2> =   0.000000
    88a ->  90a  :     0.043602 (c=  0.20881193)
    89a ->  90a  :     0.041827 (c= -0.20451550)
    89a ->  91a  :     0.796685 (c=  0.89257228)
    89a ->  99a  :     0.054986 (c= -0.23449160)

STATE  3:  E=   0.132834 au      3.615 eV    29153.7 cm**-1 <S**2> =   0.000000
    87a ->  90a  :     0.061052 (c=  0.24708607)
    87a ->  91a  :     0.013718 (c= -0.11712594)
    88a ->  90a  :     0.760897 (c=  0.87229418)
    88a ->  91a  :     0.018354 (c=  0.13547764)
    89a ->  90a  :     0.092663 (c=  0.30440600)
    89a ->  91a  :     0.024373 (c= -0.15611888)

STATE  4:  E=   0.158708 au      4.319 eV    34832.4 cm**-1 <S**2> =   0.000000
    88a ->  92a  :     0.027706 (c= -0.16645161)
    89a ->  92a  :     0.478963 (c= -0.69207175)
    89a ->  93a  :     0.260463 (c=  0.51035616)
    89a ->  95a  :     0.087301 (c= -0.29546756)
    89a ->  98a  :     0.016570 (c= -0.12872363)
    89a -> 100a  :     0.028570 (c=  0.16902774)
    89a -> 105a  :     0.012259 (c= -0.11072170)
    89a -> 106a  :     0.018631 (c= -0.13649586)

STATE  5:  E=   0.150119 au      4.085 eV    32947.3 cm**-1 <S**2> =   0.000000
    86a ->  90a  :     0.025511 (c=  0.15972036)
    86a ->  91a  :     0.053943 (c=  0.23225570)
    88a ->  99a  :     0.035090 (c=  0.18732451)
    88a -> 101a  :     0.014483 (c= -0.12034568)
    89a ->  91a  :     0.028890 (c=  0.16997198)
    89a ->  99a  :     0.583397 (c=  0.76380461)
    89a -> 100a  :     0.015407 (c= -0.12412568)
    89a -> 101a  :     0.132183 (c= -0.36356914)
    89a -> 102a  :     0.028979 (c=  0.17023336)

STATE  6:  E=   0.168084 au      4.574 eV    36890.2 cm**-1 <S**2> =   0.000000
    88a ->  92a  :     0.018591 (c=  0.13634927)
    88a ->  93a  :     0.029209 (c= -0.17090575)
    89a ->  92a  :     0.219733 (c=  0.46875654)
    89a ->  93a  :     0.081535 (c=  0.28554339)
    89a ->  95a  :     0.497262 (c= -0.70516826)
    89a ->  96a  :     0.011926 (c=  0.10920828)
    89a -> 103a  :     0.020895 (c=  0.14455030)
    89a -> 105a  :     0.011253 (c= -0.10608009)
    89a -> 106a  :     0.018848 (c=  0.13728851)
    89a -> 109a  :     0.012197 (c=  0.11043875)

STATE  7:  E=   0.159298 au      4.335 eV    34961.8 cm**-1 <S**2> =   0.000000
    85a ->  90a  :     0.387486 (c= -0.62248390)
    85a ->  91a  :     0.038768 (c=  0.19689470)
    87a ->  94a  :     0.077376 (c=  0.27816578)
    88a ->  94a  :     0.155493 (c=  0.39432610)
    89a ->  94a  :     0.300994 (c= -0.54862897)

STATE  8:  E=   0.174437 au      4.747 eV    38284.5 cm**-1 <S**2> =   0.000000
    89a ->  92a  :     0.016648 (c= -0.12902531)
    89a ->  93a  :     0.142935 (c= -0.37806780)
    89a ->  95a  :     0.121280 (c= -0.34825219)
    89a ->  96a  :     0.541727 (c= -0.73602103)
    89a ->  97a  :     0.080725 (c=  0.28412129)
    89a -> 103a  :     0.020396 (c= -0.14281399)

STATE  9:  E=   0.179916 au      4.896 eV    39487.1 cm**-1 <S**2> =   0.000000
    86a ->  99a  :     0.012012 (c= -0.10959818)
    87a ->  90a  :     0.115049 (c= -0.33918861)
    88a ->  91a  :     0.098144 (c=  0.31327984)
    89a ->  94a  :     0.032986 (c= -0.18162176)
    89a ->  99a  :     0.081701 (c= -0.28583406)
    89a -> 100a  :     0.036946 (c= -0.19221268)
    89a -> 101a  :     0.439566 (c= -0.66299804)
    89a -> 102a  :     0.043346 (c= -0.20819746)
    89a -> 107a  :     0.015500 (c=  0.12449765)
    89a -> 108a  :     0.022803 (c=  0.15100670)

STATE 10:  E=   0.182943 au      4.978 eV    40151.4 cm**-1 <S**2> =   0.000000
    88a ->  92a  :     0.030194 (c=  0.17376391)
    88a ->  93a  :     0.016498 (c=  0.12844543)
    88a ->  95a  :     0.034327 (c= -0.18527454)
    89a ->  93a  :     0.108680 (c= -0.32966597)
    89a ->  95a  :     0.016112 (c= -0.12693472)
    89a ->  96a  :     0.190921 (c=  0.43694470)
    89a ->  97a  :     0.275502 (c=  0.52488249)
    89a ->  98a  :     0.110589 (c= -0.33254952)
    89a -> 100a  :     0.128077 (c=  0.35787887)
    89a -> 116a  :     0.010842 (c= -0.10412448)


-----------------------------
TD-DFT/TDA-EXCITATION SPECTRA
-----------------------------

Center of mass = (  1.7820, -0.0863, -0.3322)
Calculating the Dipole integrals                  ... done
Transforming integrals                            ... done
Calculating the Linear Momentum integrals         ... done
Transforming integrals                            ... done
Calculating angular momentum integrals            ... done
Transforming integrals                            ... done

-----------------------------------------------------------------------------
         ABSORPTION SPECTRUM VIA TRANSITION ELECTRIC DIPOLE MOMENTS
-----------------------------------------------------------------------------
State   Energy    Wavelength  fosc         T2        TX        TY        TZ  
        (cm-1)      (nm)                 (au**2)    (au)      (au)      (au) 
-----------------------------------------------------------------------------
   1   20755.4    481.8   1.375890491  21.82374   4.62317   0.25584  -0.62012
   2   29481.7    339.2   0.569747847   6.36217  -1.28071   1.24136  -1.78353
   3   29153.7    343.0   0.323008255   3.64750   1.05369   0.86178  -1.33962
   4   34832.4    287.1   0.013160821   0.12439  -0.00486  -0.26201  -0.23604
   5   32947.3    303.5   0.256586078   2.56383  -0.43119   0.91730  -1.23954
   6   36890.2    271.1   0.014901066   0.13298   0.01094   0.27420   0.24015
   7   34961.8    286.0   0.009623330   0.09062  -0.29908   0.02796  -0.01968
   8   38284.5    261.2   0.000085356   0.00073   0.01425   0.00741   0.02182
   9   39487.1    253.2   0.084566689   0.70505  -0.51613  -0.36568   0.55221
  10   40151.4    249.1   0.000976706   0.00801   0.01678   0.07677   0.04282

-----------------------------------------------------------------------------
         ABSORPTION SPECTRUM VIA TRANSITION VELOCITY DIPOLE MOMENTS
-----------------------------------------------------------------------------
State   Energy    Wavelength   fosc        P2         PX        PY        PZ  
        (cm-1)      (nm)                 (au**2)     (au)      (au)      (au) 
-----------------------------------------------------------------------------
   1   20755.4    481.8   1.314202027   0.18642  -0.42890  -0.01611   0.04698
   2   29481.7    339.2   0.285991488   0.05763   0.15584  -0.10677   0.14812
   3   29153.7    343.0   0.292362574   0.05825  -0.17296  -0.09011   0.14219
   4   34832.4    287.1   0.010047784   0.00239   0.00093   0.03761   0.03125
   5   32947.3    303.5   0.067787524   0.01526   0.09664  -0.04684   0.06108
   6   36890.2    271.1   0.010737422   0.00271  -0.00211  -0.04053  -0.03256
   7   34961.8    286.0   0.004146364   0.00099   0.02989   0.00462  -0.00873
   8   38284.5    261.2   0.000052125   0.00001  -0.00266  -0.00095  -0.00238
   9   39487.1    253.2   0.033527856   0.00905   0.06687   0.03552  -0.05757
  10   40151.4    249.1   0.001926201   0.00053  -0.00318  -0.01865  -0.01306

-------------------------------------------------------------------
                             CD SPECTRUM
-------------------------------------------------------------------
State  Energy     Wavelength     R         MX        MY        MZ   
       (cm-1)       (nm)     (1e40*cgs)   (au)      (au)      (au)  
-------------------------------------------------------------------
   1   20755.4    481.8      6.67213   0.04073   1.05863   0.71759
   2   29481.7    339.2      9.29433  -0.01247  -0.18214  -0.12887
   3   29153.7    343.0     -0.39942   0.01655   0.51949   0.34785
   4   34832.4    287.1     -4.86568  -0.06236  -0.23905   0.31037
   5   32947.3    303.5      1.65194  -0.01002  -0.08765  -0.06421
   6   36890.2    271.1     -3.85026  -0.03949   0.21604  -0.27888
   7   34961.8    286.0     -0.20792  -0.00537  -0.13684  -0.09042
   8   38284.5    261.2      0.32495   0.00205  -0.02045   0.03719
   9   39487.1    253.2      1.08477   0.00259   0.09259   0.06790
  10   40151.4    249.1      1.59713   0.06713   0.09754  -0.12207

-------------------------------------------------------------------
         CD SPECTRUM VIA TRANSITION VELOCITY DIPOLE MOMENTS        
-------------------------------------------------------------------
State  Energy     Wavelength     R         MX        MY        MZ   
       (cm-1)       (nm)     (1e40*cgs)   (au)      (au)      (au)  
-------------------------------------------------------------------
   1   20755.4    481.8     -4.01232   0.04073   1.05863   0.71759
   2   29481.7    339.2     -5.56370  -0.01247  -0.18214  -0.12887
   3   29153.7    343.0     -0.75789   0.01655   0.51949   0.34785
   4   34832.4    287.1      1.93340  -0.06236  -0.23905   0.31037
   5   32947.3    303.5     -2.46156  -0.01002  -0.08765  -0.06421
   6   36890.2    271.1      1.14155  -0.03949   0.21604  -0.27888
   7   34961.8    286.0     -0.01009  -0.00537  -0.13684  -0.09042
   8   38284.5    261.2     -0.20151   0.00205  -0.02045   0.03719
   9   39487.1    253.2     -1.17329   0.00259   0.09259   0.06790
  10   40151.4    249.1     -1.13111   0.06713   0.09754  -0.12207

Total run time:    27554.834 sec

           *** ORCA-CIS/TD-DFT FINISHED WITHOUT ERROR ***

Maximum memory used throughout the entire CIS-calculation: 2860.6 MB

-----------------------
CIS/TD-DFT TOTAL ENERGY
-----------------------

    E(SCF)  =  -1087.305352885 Eh
    DE(CIS) =      0.094568395 Eh (Root  1)
    ----------------------------- ---------
    E(tot)  =  -1087.210784490 Eh



-------------------------------------------------------------------------------
                          DFT DISPERSION CORRECTION                            
                                                                               
                              DFTD3 V3.1  Rev 1                                
                          USING Becke-Johnson damping                          
-------------------------------------------------------------------------------
The B2PLYP functional is recognized
Active option DFTDOPT                   ...         4   

molecular C6(AA) [au] = 24924.019582 


            DFT-D V3
 parameters
 s6 scaling factor         :     0.6400 
 a1 scaling factor         :     0.3065 
 s8 scaling factor         :     0.9147 
 a2 scaling factor         :     5.0570 
 ad hoc parameters k1-k3   :    16.0000     1.3333    -4.0000 

 Edisp/kcal,au: -27.196893931292  -0.043341004645 
 E6   /kcal   : -15.315249115 
 E8   /kcal   : -11.881644816 
 % E8         :  43.687506545 

-------------------------   ----------------
Dispersion correction           -0.043341005
-------------------------   ----------------


-------------------------   --------------------
FINAL SINGLE POINT ENERGY     -1087.254125494226
-------------------------   --------------------


                            ***************************************
                            *     ORCA property calculations      *
                            ***************************************


  WARNING: The energy has been calculated at the MP2 level but the densities
           used in the property calculations are still SCF densities
           MP2 response densities have not been calculated 
           use %mp2 Density relaxed end
           or  %mp2 Density unrelaxed end

                                    ---------------------
                                    Active property flags
                                    ---------------------
   (+) Dipole Moment


------------------------------------------------------------------------------
                       ORCA ELECTRIC PROPERTIES CALCULATION
------------------------------------------------------------------------------

Dipole Moment Calculation                       ... on
Quadrupole Moment Calculation                   ... off
Polarizability Calculation                      ... off
GBWName                                         ... optpbed3-b2plyp-test-290_job2.gbw
Electron density                                ... optpbed3-b2plyp-test-290_job2.scfp
The origin for moment calculation is the CENTER OF MASS  = ( 1.781952, -0.086322 -0.332232)

-------------
DIPOLE MOMENT
-------------
                                X             Y             Z
Electronic contribution:     38.01273      -1.90529       0.84519
Nuclear contribution   :    -42.69281       1.89136      -0.55782
                        -----------------------------------------
Total Dipole Moment    :     -4.68009      -0.01394       0.28737
                        -----------------------------------------
Magnitude (a.u.)       :      4.68892
Magnitude (Debye)      :     11.91829



--------------------
Rotational spectrum 
--------------------
 
Rotational constants in cm-1:     0.013108     0.001777     0.001566 
Rotational constants in MHz :   392.961152    53.275268    46.946661 

 Dipole components along the rotational axes: 
x,y,z [a.u.] :     4.671136    -0.407800     0.012614 
x,y,z [Debye]:    11.873085    -1.036546     0.032062 

 

Timings for individual modules:

Sum of individual times         ...    32530.497 sec (= 542.175 min)
GTO integral calculation        ...        7.613 sec (=   0.127 min)   0.0 %
SCF iterations                  ...     2353.801 sec (=  39.230 min)   7.2 %
MP2 module                      ...     2612.935 sec (=  43.549 min)   8.0 %
CIS module                      ...    27556.148 sec (= 459.269 min)  84.7 %



                             ****ORCA TERMINATED NORMALLY****
TOTAL RUN TIME: 0 days 21 hours 30 minutes 58 seconds 365 msec
