
                                 *****************
                                 * O   R   C   A *
                                 *****************

                                            #,                                       
                                            ###                                      
                                            ####                                     
                                            #####                                    
                                            ######                                   
                                           ########,                                 
                                     ,,################,,,,,                         
                               ,,#################################,,                 
                          ,,##########################################,,             
                       ,#########################################, ''#####,          
                    ,#############################################,,   '####,        
                  ,##################################################,,,,####,       
                ,###########''''           ''''###############################       
              ,#####''   ,,,,##########,,,,          '''####'''          '####       
            ,##' ,,,,###########################,,,                        '##       
           ' ,,###''''                  '''############,,,                           
         ,,##''                                '''############,,,,        ,,,,,,###''
      ,#''                                            '''#######################'''  
     '                                                          ''''####''''         
             ,#######,   #######,   ,#######,      ##                                
            ,#'     '#,  ##    ##  ,#'     '#,    #''#        ######   ,####,        
            ##       ##  ##   ,#'  ##            #'  '#       #        #'  '#        
            ##       ##  #######   ##           ,######,      #####,   #    #        
            '#,     ,#'  ##    ##  '#,     ,#' ,#      #,         ##   #,  ,#        
             '#######'   ##     ##  '#######'  #'      '#     #####' # '####'        



                  #######################################################
                  #                        -***-                        #
                  #          Department of theory and spectroscopy      #
                  #    Directorship and core code : Frank Neese         #
                  #        Max Planck Institute fuer Kohlenforschung    #
                  #                Kaiser Wilhelm Platz 1               #
                  #                 D-45470 Muelheim/Ruhr               #
                  #                      Germany                        #
                  #                                                     #
                  #                  All rights reserved                #
                  #                        -***-                        #
                  #######################################################


                         Program Version 5.0.2 -  RELEASE  -


 With contributions from (in alphabetic order):
   Daniel Aravena         : Magnetic Suceptibility
   Michael Atanasov       : Ab Initio Ligand Field Theory (pilot matlab implementation)
   Alexander A. Auer      : GIAO ZORA, VPT2 properties, NMR spectrum
   Ute Becker             : Parallelization
   Giovanni Bistoni       : ED, misc. LED, open-shell LED, HFLD
   Martin Brehm           : Molecular dynamics
   Dmytro Bykov           : SCF Hessian
   Vijay G. Chilkuri      : MRCI spin determinant printing, contributions to CSF-ICE
   Dipayan Datta          : RHF DLPNO-CCSD density
   Achintya Kumar Dutta   : EOM-CC, STEOM-CC
   Dmitry Ganyushin       : Spin-Orbit,Spin-Spin,Magnetic field MRCI
   Miquel Garcia          : C-PCM and meta-GGA Hessian, CC/C-PCM, Gaussian charge scheme
   Yang Guo               : DLPNO-NEVPT2, F12-NEVPT2, CIM, IAO-localization
   Andreas Hansen         : Spin unrestricted coupled pair/coupled cluster methods
   Benjamin Helmich-Paris : MC-RPA, TRAH-SCF, COSX integrals
   Lee Huntington         : MR-EOM, pCC
   Robert Izsak           : Overlap fitted RIJCOSX, COSX-SCS-MP3, EOM
   Marcus Kettner         : VPT2
   Christian Kollmar      : KDIIS, OOCD, Brueckner-CCSD(T), CCSD density, CASPT2, CASPT2-K
   Simone Kossmann        : Meta GGA functionals, TD-DFT gradient, OOMP2, MP2 Hessian
   Martin Krupicka        : Initial AUTO-CI
   Lucas Lang             : DCDCAS
   Marvin Lechner         : AUTO-CI (C++ implementation), FIC-MRCC
   Dagmar Lenk            : GEPOL surface, SMD
   Dimitrios Liakos       : Extrapolation schemes; Compound Job, initial MDCI parallelization
   Dimitrios Manganas     : Further ROCIS development; embedding schemes
   Dimitrios Pantazis     : SARC Basis sets
   Anastasios Papadopoulos: AUTO-CI, single reference methods and gradients
   Taras Petrenko         : DFT Hessian,TD-DFT gradient, ASA, ECA, R-Raman, ABS, FL, XAS/XES, NRVS
   Peter Pinski           : DLPNO-MP2, DLPNO-MP2 Gradient
   Christoph Reimann      : Effective Core Potentials
   Marius Retegan         : Local ZFS, SOC
   Christoph Riplinger    : Optimizer, TS searches, QM/MM, DLPNO-CCSD(T), (RO)-DLPNO pert. Triples
   Tobias Risthaus        : Range-separated hybrids, TD-DFT gradient, RPA, STAB
   Michael Roemelt        : Original ROCIS implementation
   Masaaki Saitow         : Open-shell DLPNO-CCSD energy and density
   Barbara Sandhoefer     : DKH picture change effects
   Avijit Sen             : IP-ROCIS
   Kantharuban Sivalingam : CASSCF convergence, NEVPT2, FIC-MRCI
   Bernardo de Souza      : ESD, SOC TD-DFT
   Georgi Stoychev        : AutoAux, RI-MP2 NMR, DLPNO-MP2 response
   Willem Van den Heuvel  : Paramagnetic NMR
   Boris Wezisla          : Elementary symmetry handling
   Frank Wennmohs         : Technical directorship


 We gratefully acknowledge several colleagues who have allowed us to
 interface, adapt or use parts of their codes:
   Stefan Grimme, W. Hujo, H. Kruse, P. Pracht,  : VdW corrections, initial TS optimization,
                  C. Bannwarth, S. Ehlert          DFT functionals, gCP, sTDA/sTD-DF
   Ed Valeev, F. Pavosevic, A. Kumar             : LibInt (2-el integral package), F12 methods
   Garnet Chan, S. Sharma, J. Yang, R. Olivares  : DMRG
   Ulf Ekstrom                                   : XCFun DFT Library
   Mihaly Kallay                                 : mrcc  (arbitrary order and MRCC methods)
   Jiri Pittner, Ondrej Demel                    : Mk-CCSD
   Frank Weinhold                                : gennbo (NPA and NBO analysis)
   Christopher J. Cramer and Donald G. Truhlar   : smd solvation model
   Lars Goerigk                                  : TD-DFT with DH, B97 family of functionals
   V. Asgeirsson, H. Jonsson                     : NEB implementation
   FAccTs GmbH                                   : IRC, NEB, NEB-TS, DLPNO-Multilevel, CI-OPT
                                                   MM, QMMM, 2- and 3-layer-ONIOM, Crystal-QMMM,
                                                   LR-CPCM, SF, NACMEs, symmetry and pop. for TD-DFT,
                                                   nearIR, NL-DFT gradient (VV10), updates on ESD,
                                                   ML-optimized integration grids
   S Lehtola, MJT Oliveira, MAL Marques          : LibXC Library
   Liviu Ungur et al                             : ANISO software


 Your calculation uses the libint2 library for the computation of 2-el integrals
 For citations please refer to: http://libint.valeyev.net

 Your ORCA version has been built with support for libXC version: 5.1.0
 For citations please refer to: https://tddft.org/programs/libxc/

 This ORCA versions uses:
   CBLAS   interface :  Fast vector & matrix operations
   LAPACKE interface :  Fast linear algebra routines
   SCALAPACK package :  Parallel linear algebra routines
   Shared memory     :  Shared parallel matrices
   BLAS/LAPACK       :  OpenBLAS 0.3.15  USE64BITINT DYNAMIC_ARCH NO_AFFINITY Haswell SINGLE_THREADED
        Core in use  :  Haswell
   Copyright (c) 2011-2014, The OpenBLAS Project


Your calculation utilizes the atom-pairwise dispersion correction
with the Becke-Johnson damping scheme (D3BJ)
Cite in your paper:
S.Grimme, S.Ehrlich, L.Goerigk, J Comput Chem, (2011), 32, 1456–1465 
S.Grimme, J.Antony, S.Ehrlich and H.Krieg, J.Chem.Phys., 132, (2010), 154104 
   

Your calculation utilizes the SMD solvation module
Please cite in your paper:
A.V. Marenich, C.J. Cramer, D.G. Truhlar J. Phys. Chem. B, 113, (2009), 6378 

================================================================================

----- Orbital basis set information -----
Your calculation utilizes the basis: aug-cc-pVTZ 
    H, B-Ne : Obtained from the ccRepo (grant-hill.group.shef.ac.uk/ccrepo) Feb. 2017
              R. A. Kendall, T. H. Dunning, Jr., R. J. Harrison, J. Chem. Phys. 96, 6796 (1992)
         He : Obtained from the ccRepo (grant-hill.group.shef.ac.uk/ccrepo) Feb. 2017
              D. E. Woon, T. H. Dunning, Jr., J. Chem. Phys. 100, 2975 (1994)
  Li-Be, Na : Obtained from the ccRepo (grant-hill.group.shef.ac.uk/ccrepo) Feb. 2017
              B. P. Prascher, D. E. Woon, K. A. Peterson, T. H. Dunning, Jr., A. K. Wilson, Theor. Chem. Acc. 128, 69 (2011)
         Mg : Obtained from the Peterson Research Group Website (tyr0.chem.wsu.edu/~kipeters) Feb. 2017
              B. P. Prascher, D. E. Woon, K. A. Peterson, T. H. Dunning, Jr., A. K. Wilson, Theor. Chem. Acc. 128, 69 (2011)
      Al-Ar : Obtained from the ccRepo (grant-hill.group.shef.ac.uk/ccrepo) Feb. 2017
              D. E. Woon, T. H. Dunning, Jr., J. Chem. Phys. 98, 1358 (1993)
      Sc-Zn : Obtained from the ccRepo (grant-hill.group.shef.ac.uk/ccrepo) Feb. 2017
              N. B. Balabanov, K. A. Peterson, J. Chem. Phys. 123, 064107 (2005)
              N. B. Balabanov, K. A. Peterson, J. Chem. Phys. 125, 074110 (2006)
      Ga-Kr : Obtained from the ccRepo (grant-hill.group.shef.ac.uk/ccrepo) Feb. 2017
              A. K. Wilson, D. E. Woon, K. A. Peterson, T. H. Dunning, Jr., J. Chem. Phys. 110, 7667 (1999)
     Ag, Au : Obtained from the Peterson Research Group Website (tyr0.chem.wsu.edu/~kipeters) Feb. 2017
              K. A. Peterson, C. Puzzarini, Theor. Chem. Acc. 114, 283 (2005)

The basis set includes element-specific modifications.

Your calculation utilizes the basis: cc-pVTZ 
       H, B-Ne : Obtained from the ccRepo (grant-hill.group.shef.ac.uk/ccrepo) Feb. 2017
                 T. H. Dunning, Jr., J. Chem. Phys. 90, 1007 (1989)
            He : Obtained from the ccRepo (grant-hill.group.shef.ac.uk/ccrepo) Feb. 2017
                 D. E. Woon, T. H. Dunning, Jr., J. Chem. Phys. 100, 2975 (1994)
  Li-Be, Na-Mg : Obtained from the ccRepo (grant-hill.group.shef.ac.uk/ccrepo) Feb. 2017
                 B. P. Prascher, D. E. Woon, K. A. Peterson, T. H. Dunning, Jr., A. K. Wilson, Theor. Chem. Acc. 128, 69 (2011)
         Al-Ar : Obtained from the ccRepo (grant-hill.group.shef.ac.uk/ccrepo) Feb. 2017
                 D. E. Woon, T. H. Dunning, Jr., J. Chem. Phys. 98, 1358 (1993)
            Ca : Obtained from the Peterson Research Group Website (tyr0.chem.wsu.edu/~kipeters) Feb. 2017
                 J. Koput, K. A. Peterson, J. Phys. Chem. 106, 9595 (2002)
         Sc-Zn : Obtained from the ccRepo (grant-hill.group.shef.ac.uk/ccrepo) Feb. 2017
                 N. B. Balabanov, K. A. Peterson, J. Chem. Phys. 123, 064107 (2005)
                 N. B. Balabanov, K. A. Peterson, J. Chem. Phys. 125, 074110 (2006)
         Ga-Kr : Obtained from the ccRepo (grant-hill.group.shef.ac.uk/ccrepo) Feb. 2017
                 A. K. Wilson, D. E. Woon, K. A. Peterson, T. H. Dunning, Jr., J. Chem. Phys. 110, 7667 (1999)
             Y : Obtained from the ccRepo (grant-hill.group.shef.ac.uk/ccrepo) Feb. 2017
                 K. A. Peterson, D. Figgen, M. Dolg, H. Stoll, J. Chem. Phys. 126, 124101 (2007)
        Ag, Au : Obtained from the Peterson Research Group Website (tyr0.chem.wsu.edu/~kipeters) Feb. 2017
                 K. A. Peterson, C. Puzzarini, Theor. Chem. Acc. 114, 283 (2005)

----- AuxJ basis set information -----
Your calculation utilizes the auxiliary basis: aug-cc-pVTZ/JK 
  H, B-F, Al-Cl, Ga-Br : Obtained from the TURBOMOLE 7.0 basis set library

The basis set includes element-specific modifications.

Your calculation utilizes the auxiliary basis: cc-pVTZ/JK 
  H, B-F, Al-Cl, Ga-Br : Obtained from the TURBOMOLE 7.0 basis set library

----- AuxC basis set information -----
Your calculation utilizes the auxiliary basis: aug-cc-pVTZ/C 
  H-He, B-F, Al-Ar, Ga-Kr : Obtained from the EMSL Basis Set Exchange (bse.pnl.gov) Feb. 2017
                            F. Weigend, A. Kohn, C. Hattig, J. Chem. Phys. 116, 3175 (2002)
                   Be, Mg : Obtained from the TURBOMOLE 7.0 basis set library
                            C. Haettig, Phys. Chem. Chem. Phys. 7, 59 (2005)
                       Ne : Obtained from the EMSL Basis Set Exchange (bse.pnl.gov) Feb. 2017
                            C. Haettig, Phys. Chem. Chem. Phys. 7, 59 (2005)
                            F. Weigend, A. Kohn, C. Hattig, J. Chem. Phys. 116, 3175 (2002)
                    Sc-Zn : Obtained from the EMSL Basis Set Exchange (bse.pnl.gov) Feb. 2017
                            J. G. Hill, J. A. Platts, J. Chem. Phys. 128, 044104 (2008)

The basis set includes element-specific modifications.

Your calculation utilizes the auxiliary basis: cc-pVTZ/C 
  Obtained from the EMSL Basis Set Exchange (bse.pnl.gov) Feb. 2017
  H-He, B-F, Al-Ar, Ga-Kr : F. Weigend, A. Kohn, C. Hattig, J. Chem. Phys. 116, 3175 (2002)
             Li-Be, Na-Mg : C. Haettig, Phys. Chem. Chem. Phys. 7, 59 (2005)
                       Ne : C. Haettig, Phys. Chem. Chem. Phys. 7, 59 (2005)
                            F. Weigend, A. Kohn, C. Hattig, J. Chem. Phys. 116, 3175 (2002)
                    Sc-Zn : J. G. Hill, J. A. Platts, J. Chem. Phys. 128, 044104 (2008)

================================================================================
                                        WARNINGS
                       Please study these warnings very carefully!
================================================================================


WARNING: Geometry Optimization
  ===> : Switching off AutoStart
         For restart on a previous wavefunction, please use MOREAD

INFO   : the flag for use of the SHARK integral package has been found!



***************************************
The coordinates will be read from file: 
***************************************


Your calculation utilizes the atom-pairwise dispersion correction
with the Becke-Johnson damping scheme (D3BJ)
Cite in your paper:
S.Grimme, S.Ehrlich, L.Goerigk, J Comput Chem, (2011), 32, 1456–1465 
S.Grimme, J.Antony, S.Ehrlich and H.Krieg, J.Chem.Phys., 132, (2010), 154104 
   

Your calculation utilizes the SMD solvation module
Please cite in your paper:
A.V. Marenich, C.J. Cramer, D.G. Truhlar J. Phys. Chem. B, 113, (2009), 6378 

================================================================================

----- Orbital basis set information -----
Your calculation utilizes the basis: aug-cc-pVTZ 
    H, B-Ne : Obtained from the ccRepo (grant-hill.group.shef.ac.uk/ccrepo) Feb. 2017
              R. A. Kendall, T. H. Dunning, Jr., R. J. Harrison, J. Chem. Phys. 96, 6796 (1992)
         He : Obtained from the ccRepo (grant-hill.group.shef.ac.uk/ccrepo) Feb. 2017
              D. E. Woon, T. H. Dunning, Jr., J. Chem. Phys. 100, 2975 (1994)
  Li-Be, Na : Obtained from the ccRepo (grant-hill.group.shef.ac.uk/ccrepo) Feb. 2017
              B. P. Prascher, D. E. Woon, K. A. Peterson, T. H. Dunning, Jr., A. K. Wilson, Theor. Chem. Acc. 128, 69 (2011)
         Mg : Obtained from the Peterson Research Group Website (tyr0.chem.wsu.edu/~kipeters) Feb. 2017
              B. P. Prascher, D. E. Woon, K. A. Peterson, T. H. Dunning, Jr., A. K. Wilson, Theor. Chem. Acc. 128, 69 (2011)
      Al-Ar : Obtained from the ccRepo (grant-hill.group.shef.ac.uk/ccrepo) Feb. 2017
              D. E. Woon, T. H. Dunning, Jr., J. Chem. Phys. 98, 1358 (1993)
      Sc-Zn : Obtained from the ccRepo (grant-hill.group.shef.ac.uk/ccrepo) Feb. 2017
              N. B. Balabanov, K. A. Peterson, J. Chem. Phys. 123, 064107 (2005)
              N. B. Balabanov, K. A. Peterson, J. Chem. Phys. 125, 074110 (2006)
      Ga-Kr : Obtained from the ccRepo (grant-hill.group.shef.ac.uk/ccrepo) Feb. 2017
              A. K. Wilson, D. E. Woon, K. A. Peterson, T. H. Dunning, Jr., J. Chem. Phys. 110, 7667 (1999)
     Ag, Au : Obtained from the Peterson Research Group Website (tyr0.chem.wsu.edu/~kipeters) Feb. 2017
              K. A. Peterson, C. Puzzarini, Theor. Chem. Acc. 114, 283 (2005)

The basis set includes element-specific modifications.

Your calculation utilizes the basis: cc-pVTZ 
       H, B-Ne : Obtained from the ccRepo (grant-hill.group.shef.ac.uk/ccrepo) Feb. 2017
                 T. H. Dunning, Jr., J. Chem. Phys. 90, 1007 (1989)
            He : Obtained from the ccRepo (grant-hill.group.shef.ac.uk/ccrepo) Feb. 2017
                 D. E. Woon, T. H. Dunning, Jr., J. Chem. Phys. 100, 2975 (1994)
  Li-Be, Na-Mg : Obtained from the ccRepo (grant-hill.group.shef.ac.uk/ccrepo) Feb. 2017
                 B. P. Prascher, D. E. Woon, K. A. Peterson, T. H. Dunning, Jr., A. K. Wilson, Theor. Chem. Acc. 128, 69 (2011)
         Al-Ar : Obtained from the ccRepo (grant-hill.group.shef.ac.uk/ccrepo) Feb. 2017
                 D. E. Woon, T. H. Dunning, Jr., J. Chem. Phys. 98, 1358 (1993)
            Ca : Obtained from the Peterson Research Group Website (tyr0.chem.wsu.edu/~kipeters) Feb. 2017
                 J. Koput, K. A. Peterson, J. Phys. Chem. 106, 9595 (2002)
         Sc-Zn : Obtained from the ccRepo (grant-hill.group.shef.ac.uk/ccrepo) Feb. 2017
                 N. B. Balabanov, K. A. Peterson, J. Chem. Phys. 123, 064107 (2005)
                 N. B. Balabanov, K. A. Peterson, J. Chem. Phys. 125, 074110 (2006)
         Ga-Kr : Obtained from the ccRepo (grant-hill.group.shef.ac.uk/ccrepo) Feb. 2017
                 A. K. Wilson, D. E. Woon, K. A. Peterson, T. H. Dunning, Jr., J. Chem. Phys. 110, 7667 (1999)
             Y : Obtained from the ccRepo (grant-hill.group.shef.ac.uk/ccrepo) Feb. 2017
                 K. A. Peterson, D. Figgen, M. Dolg, H. Stoll, J. Chem. Phys. 126, 124101 (2007)
        Ag, Au : Obtained from the Peterson Research Group Website (tyr0.chem.wsu.edu/~kipeters) Feb. 2017
                 K. A. Peterson, C. Puzzarini, Theor. Chem. Acc. 114, 283 (2005)

----- AuxJ basis set information -----
Your calculation utilizes the auxiliary basis: aug-cc-pVTZ/JK 
  H, B-F, Al-Cl, Ga-Br : Obtained from the TURBOMOLE 7.0 basis set library

The basis set includes element-specific modifications.

Your calculation utilizes the auxiliary basis: cc-pVTZ/JK 
  H, B-F, Al-Cl, Ga-Br : Obtained from the TURBOMOLE 7.0 basis set library

----- AuxC basis set information -----
Your calculation utilizes the auxiliary basis: aug-cc-pVTZ/C 
  H-He, B-F, Al-Ar, Ga-Kr : Obtained from the EMSL Basis Set Exchange (bse.pnl.gov) Feb. 2017
                            F. Weigend, A. Kohn, C. Hattig, J. Chem. Phys. 116, 3175 (2002)
                   Be, Mg : Obtained from the TURBOMOLE 7.0 basis set library
                            C. Haettig, Phys. Chem. Chem. Phys. 7, 59 (2005)
                       Ne : Obtained from the EMSL Basis Set Exchange (bse.pnl.gov) Feb. 2017
                            C. Haettig, Phys. Chem. Chem. Phys. 7, 59 (2005)
                            F. Weigend, A. Kohn, C. Hattig, J. Chem. Phys. 116, 3175 (2002)
                    Sc-Zn : Obtained from the EMSL Basis Set Exchange (bse.pnl.gov) Feb. 2017
                            J. G. Hill, J. A. Platts, J. Chem. Phys. 128, 044104 (2008)

The basis set includes element-specific modifications.

Your calculation utilizes the auxiliary basis: cc-pVTZ/C 
  Obtained from the EMSL Basis Set Exchange (bse.pnl.gov) Feb. 2017
  H-He, B-F, Al-Ar, Ga-Kr : F. Weigend, A. Kohn, C. Hattig, J. Chem. Phys. 116, 3175 (2002)
             Li-Be, Na-Mg : C. Haettig, Phys. Chem. Chem. Phys. 7, 59 (2005)
                       Ne : C. Haettig, Phys. Chem. Chem. Phys. 7, 59 (2005)
                            F. Weigend, A. Kohn, C. Hattig, J. Chem. Phys. 116, 3175 (2002)
                    Sc-Zn : J. G. Hill, J. A. Platts, J. Chem. Phys. 128, 044104 (2008)

================================================================================
                                        WARNINGS
                       Please study these warnings very carefully!
================================================================================

INFO   : Checking CIS options ...
  ===> : (D) CORRECTION FOUND - SETTING MODE=3
  ===> : JK MODE FOUND - ACTIVATING RI-MP2 CODE
  ===> : MP2 AND CIS FOUND - CHECKING
WARNING: CIS(D) and MP2 runs must have the same orbital window
  ===> : adjusting orbital windows

WARNING: No MP2 level density has been requested!
         To caclulate MP2 level properties use
         %mp2 Density relaxed end
         or
         %mp2 Density unrelaxed end
         Otherwise for double-hybrid DFT only the energy is correct!

WARNING: The frozen-core approximation is turned on by default for 
         the MP2 part of double-hybrid DFT.

INFO   : the flag for use of the SHARK integral package has been found!

================================================================================
                                       INPUT FILE
================================================================================
NAME = optpbed3-b2plyp-test-406.inp
|  1> ! pbe0 d3bj aug-cc-PVTZ RIJCOSX Opt
|  2> %maxcore 4000
|  3> %basis
|  4>  AuxJ "aug-cc-PVTZ/JK"
|  5>  AuxC "aug-cc-PVTZ/C"
|  6>  newGTO H "cc-PVTZ" end
|  7>  newAuxJGTO H "cc-PVTZ/JK" end
|  8>  newAuxCGTO H "cc-PVTZ/C" end
|  9> end
| 10> %cpcm
| 11>  SMD true
| 12>  SMDsolvent "tetrahydrofuran"
| 13> end
| 14> %pal nprocs 4 end
| 15> * xyz 0 1
| 16> C          1.06830        0.95210       -1.16780
| 17> C         -0.16650        0.64720       -0.73190
| 18> C         -1.27640        1.57930       -0.54470
| 19> C         -2.55710        1.26420       -0.99430
| 20> C         -3.59850        2.15550       -0.81850
| 21> C         -3.37880        3.37110       -0.19180
| 22> C         -2.10750        3.69630        0.25120
| 23> C         -1.06270        2.80880        0.07420
| 24> C         -0.24210       -0.80500       -0.51580
| 25> C         -1.40970       -1.51080        0.00800
| 26> C         -1.80610       -2.72520       -0.54720
| 27> C         -2.90740       -3.39750       -0.05140
| 28> C         -3.62510       -2.86990        1.00910
| 29> C         -3.23120       -1.66900        1.57580
| 30> C         -2.13260       -0.99240        1.08060
| 31> C          0.94550       -1.34850       -0.83600
| 32> C          1.90740       -0.28500       -1.27190
| 33> C          3.13360       -0.22750       -0.39320
| 34> C          4.40640       -0.39090       -0.92010
| 35> C          5.51860       -0.33440       -0.09690
| 36> C          5.36830       -0.11320        1.26040
| 37> C          4.09980        0.05070        1.79280
| 38> C          2.98950       -0.00640        0.97150
| 39> H          1.43830        1.92510       -1.43460
| 40> H         -2.73100        0.32160       -1.49240
| 41> H         -4.58720        1.90060       -1.17160
| 42> H         -4.19560        4.06360       -0.05020
| 43> H         -1.93100        4.64440        0.73870
| 44> H         -0.07210        3.05620        0.42850
| 45> H         -1.25140       -3.13010       -1.38150
| 46> H         -3.20930       -4.33550       -0.49480
| 47> H         -4.48760       -3.39400        1.39390
| 48> H         -3.78380       -1.25700        2.40770
| 49> H         -1.82430       -0.06070        1.53210
| 50> H          1.22820       -2.38170       -0.74910
| 51> H          2.22230       -0.44770       -2.30860
| 52> H          4.53280       -0.56370       -1.97990
| 53> H          6.50470       -0.46370       -0.51890
| 54> H          6.23590       -0.06890        1.90210
| 55> H          3.97620        0.22340        2.85200
| 56> H          1.99910        0.11910        1.38460
| 57> *
| 58> 
| 59> 
| 60> $new_job
| 61> ! b2plyp aug-cc-PVTZ RIJCOSX SP
| 62> %maxcore 4000
| 63> %basis
| 64>  AuxJ "aug-cc-PVTZ/JK"
| 65>  AuxC "aug-cc-PVTZ/C"
| 66>  newGTO H "cc-PVTZ" end
| 67>  newAuxJGTO H "cc-PVTZ/JK" end
| 68>  newAuxCGTO H "cc-PVTZ/C" end
| 69> end
| 70> %cpcm
| 71>  SMD true
| 72>  SMDsolvent "tetrahydrofuran"
| 73> end
| 74> %pal nprocs 4 end
| 75> %tddft
| 76>  nroots 10
| 77>  maxdim 7
| 78> end
| 79> * xyzfile 0 1
| 80> 
| 81>                          ****END OF INPUT****
================================================================================


                 $$$$$$$$$$$$$$$$$$$$$$$$$$$$$$$$$$$$$$$$$$$$$$ 
                 $ THERE ARE  2 JOBS TO BE PROCESSED THIS RUN $
                 $$$$$$$$$$$$$$$$$$$$$$$$$$$$$$$$$$$$$$$$$$$$$$ 




                 $$$$$$$$$$$$$$$$  JOB NUMBER  1 $$$$$$$$$$$$$$


                       *****************************
                       * Geometry Optimization Run *
                       *****************************

Geometry optimization settings:
Update method            Update   .... BFGS
Choice of coordinates    CoordSys .... Z-matrix Internals
Initial Hessian          InHess   .... Almoef's Model

Convergence Tolerances:
Energy Change            TolE     ....  5.0000e-06 Eh
Max. Gradient            TolMAXG  ....  3.0000e-04 Eh/bohr
RMS Gradient             TolRMSG  ....  1.0000e-04 Eh/bohr
Max. Displacement        TolMAXD  ....  4.0000e-03 bohr
RMS Displacement         TolRMSD  ....  2.0000e-03 bohr
Strict Convergence                ....  False
------------------------------------------------------------------------------
                        ORCA OPTIMIZATION COORDINATE SETUP
------------------------------------------------------------------------------

The optimization will be done in new redundant internal coordinates
Making redundant internal coordinates   ...  (new redundants) done
Evaluating the initial hessian          ...  (Almloef) done
Evaluating the coordinates              ...  done
Calculating the B-matrix                .... done
Calculating the G-matrix                .... done
Diagonalizing the G-matrix              .... done
Small eigenvalue found = 3.218e-03
Small eigenvalue found = 6.348e-03
Small eigenvalue found = 7.451e-03
Small eigenvalue found = 1.603e-02
Small eigenvalue found = 2.562e-02
The first mode is                       ....  109
The number of degrees of freedom        ....  117

    -----------------------------------------------------------------
                    Redundant Internal Coordinates


    -----------------------------------------------------------------
         Definition                    Initial Value    Approx d2E/dq
    -----------------------------------------------------------------
      1. B(C   1,C   0)                  1.3445         0.738443   
      2. B(C   2,C   1)                  1.4614         0.480619   
      3. B(C   3,C   2)                  1.3934         0.616995   
      4. B(C   4,C   3)                  1.3820         0.643507   
      5. B(C   5,C   4)                  1.3852         0.635974   
      6. B(C   6,C   5)                  1.3850         0.636393   
      7. B(C   7,C   2)                  1.3930         0.618009   
      8. B(C   7,C   6)                  1.3822         0.642860   
      9. B(C   8,C   1)                  1.4701         0.465465   
     10. B(C   9,C   8)                  1.4614         0.480573   
     11. B(C  10,C   9)                  1.3929         0.618194   
     12. B(C  11,C  10)                  1.3823         0.642796   
     13. B(C  12,C  11)                  1.3850         0.636471   
     14. B(C  13,C  12)                  1.3851         0.636175   
     15. B(C  14,C   9)                  1.3935         0.616854   
     16. B(C  14,C  13)                  1.3820         0.643424   
     17. B(C  15,C   8)                  1.3447         0.737828   
     18. B(C  16,C  15)                  1.4988         0.418999   
     19. B(C  16,C   0)                  1.4984         0.419487   
     20. B(C  17,C  16)                  1.5096         0.402601   
     21. B(C  18,C  17)                  1.3872         0.631240   
     22. B(C  19,C  18)                  1.3849         0.636704   
     23. B(C  20,C  19)                  1.3834         0.640141   
     24. B(C  21,C  20)                  1.3854         0.635384   
     25. B(C  22,C  21)                  1.3822         0.642887   
     26. B(C  22,C  17)                  1.3900         0.624833   
     27. B(H  23,C   0)                  1.0746         0.381030   
     28. B(H  24,C   3)                  1.0802         0.373296   
     29. B(H  25,C   4)                  1.0804         0.373079   
     30. B(H  26,C   5)                  1.0802         0.373340   
     31. B(H  27,C   6)                  1.0806         0.372749   
     32. B(H  28,C   7)                  1.0808         0.372545   
     33. B(H  29,C  10)                  1.0806         0.372755   
     34. B(H  30,C  11)                  1.0806         0.372819   
     35. B(H  31,C  12)                  1.0801         0.373411   
     36. B(H  32,C  13)                  1.0804         0.373087   
     37. B(H  33,C  14)                  1.0803         0.373215   
     38. B(H  34,C  15)                  1.0747         0.380924   
     39. B(H  35,C  16)                  1.0956         0.352743   
     40. B(H  36,C  18)                  1.0812         0.371919   
     41. B(H  37,C  19)                  1.0804         0.373070   
     42. B(H  38,C  20)                  1.0800         0.373530   
     43. B(H  39,C  21)                  1.0803         0.373189   
     44. B(H  40,C  22)                  1.0804         0.373007   
     45. A(C   1,C   0,C  16)          110.4621         0.417612   
     46. A(C  16,C   0,H  23)          122.5111         0.333683   
     47. A(C   1,C   0,H  23)          127.0157         0.367094   
     48. A(C   2,C   1,C   8)          124.8997         0.394275   
     49. A(C   0,C   1,C   8)          108.5959         0.425439   
     50. A(C   0,C   1,C   2)          126.4692         0.427888   
     51. A(C   3,C   2,C   7)          118.9441         0.433436   
     52. A(C   1,C   2,C   7)          120.2223         0.414503   
     53. A(C   1,C   2,C   3)          120.8286         0.414382   
     54. A(C   4,C   3,H  24)          120.0090         0.357318   
     55. A(C   2,C   3,H  24)          119.6089         0.354775   
     56. A(C   2,C   3,C   4)          120.3787         0.436602   
     57. A(C   5,C   4,H  25)          120.0052         0.356569   
     58. A(C   3,C   4,C   5)          120.2668         0.438994   
     59. A(C   3,C   4,H  25)          119.7280         0.357283   
     60. A(C   4,C   5,C   6)          119.7595         0.438115   
     61. A(C   4,C   5,H  26)          120.1319         0.356611   
     62. A(C   6,C   5,H  26)          120.1085         0.356651   
     63. A(C   5,C   6,H  27)          120.0157         0.356555   
     64. A(C   5,C   6,C   7)          120.1394         0.438967   
     65. A(C   7,C   6,H  27)          119.8447         0.357168   
     66. A(C   6,C   7,H  28)          120.2559         0.357135   
     67. A(C   2,C   7,H  28)          119.2302         0.354753   
     68. A(C   2,C   7,C   6)          120.5078         0.436652   
     69. A(C   1,C   8,C   9)          124.8078         0.394268   
     70. A(C   9,C   8,C  15)          126.5647         0.427817   
     71. A(C   1,C   8,C  15)          108.5917         0.425376   
     72. A(C   8,C   9,C  10)          120.3690         0.414518   
     73. A(C  10,C   9,C  14)          118.9154         0.433441   
     74. A(C   8,C   9,C  14)          120.7092         0.414358   
     75. A(C  11,C  10,H  29)          120.2432         0.357163   
     76. A(C   9,C  10,H  29)          119.2317         0.354805   
     77. A(C   9,C  10,C  11)          120.5186         0.436668   
     78. A(C  12,C  11,H  30)          120.0080         0.356574   
     79. A(C  10,C  11,H  30)          119.8431         0.357173   
     80. A(C  10,C  11,C  12)          120.1487         0.438968   
     81. A(C  13,C  12,H  31)          120.1343         0.356642   
     82. A(C  11,C  12,H  31)          120.1159         0.356670   
     83. A(C  11,C  12,C  13)          119.7497         0.438149   
     84. A(C  12,C  13,H  32)          120.0153         0.356589   
     85. A(C  14,C  13,H  32)          119.7237         0.357276   
     86. A(C  12,C  13,C  14)          120.2610         0.439009   
     87. A(C   9,C  14,H  33)          119.6376         0.354748   
     88. A(C   9,C  14,C  13)          120.4021         0.436574   
     89. A(C  13,C  14,H  33)          119.9575         0.357297   
     90. A(C  16,C  15,H  34)          122.4714         0.333603   
     91. A(C   8,C  15,H  34)          126.9861         0.367024   
     92. A(C   8,C  15,C  16)          110.4421         0.417464   
     93. A(C  17,C  16,H  35)          108.8422         0.327223   
     94. A(C  15,C  16,H  35)          110.7499         0.329385   
     95. A(C   0,C  16,H  35)          110.4436         0.329448   
     96. A(C  15,C  16,C  17)          112.2742         0.375380   
     97. A(C   0,C  16,C  17)          112.5173         0.375455   
     98. A(C   0,C  16,C  15)          101.9013         0.378055   
     99. A(C  16,C  17,C  18)          121.3116         0.403214   
    100. A(C  18,C  17,C  22)          119.1289         0.436082   
    101. A(C  16,C  17,C  22)          119.5595         0.402490   
    102. A(C  17,C  18,H  36)          119.8940         0.355928   
    103. A(C  17,C  18,C  19)          120.4172         0.437563   
    104. A(C  19,C  18,H  36)          119.6888         0.356450   
    105. A(C  18,C  19,C  20)          120.1645         0.438670   
    106. A(C  20,C  19,H  37)          120.1021         0.356963   
    107. A(C  18,C  19,H  37)          119.7335         0.356637   
    108. A(C  19,C  20,C  21)          119.6981         0.438505   
    109. A(C  21,C  20,H  38)          120.1547         0.356585   
    110. A(C  19,C  20,H  38)          120.1472         0.357038   
    111. A(C  22,C  21,H  39)          119.8207         0.357242   
    112. A(C  20,C  21,H  39)          120.0303         0.356530   
    113. A(C  20,C  21,C  22)          120.1489         0.438844   
    114. A(C  21,C  22,H  40)          120.2886         0.357212   
    115. A(C  17,C  22,H  40)          119.2689         0.355489   
    116. A(C  17,C  22,C  21)          120.4424         0.437521   
    117. D(C   2,C   1,C   0,H  23)      0.8417         0.038773   
    118. D(C   8,C   1,C   0,H  23)    178.7573         0.038773   
    119. D(C   8,C   1,C   0,C  16)     -0.0493         0.038773   
    120. D(C   2,C   1,C   0,C  16)   -177.9649         0.038773   
    121. D(C   3,C   2,C   1,C   8)    -42.8392         0.015727   
    122. D(C   7,C   2,C   1,C   0)    -44.4315         0.015727   
    123. D(C   7,C   2,C   1,C   8)    137.9775         0.015727   
    124. D(C   3,C   2,C   1,C   0)    134.7518         0.015727   
    125. D(H  24,C   3,C   2,C   7)    178.8506         0.026327   
    126. D(C   4,C   3,C   2,C   1)   -179.6669         0.026327   
    127. D(H  24,C   3,C   2,C   1)     -0.3430         0.026327   
    128. D(C   4,C   3,C   2,C   7)     -0.4733         0.026327   
    129. D(C   5,C   4,C   3,H  24)   -179.3875         0.028793   
    130. D(C   5,C   4,C   3,C   2)     -0.0663         0.028793   
    131. D(H  25,C   4,C   3,C   2)    179.9721         0.028793   
    132. D(H  25,C   4,C   3,H  24)      0.6509         0.028793   
    133. D(H  26,C   5,C   4,H  25)      0.3314         0.028078   
    134. D(H  26,C   5,C   4,C   3)   -179.6300         0.028078   
    135. D(C   6,C   5,C   4,H  25)   -179.5864         0.028078   
    136. D(C   6,C   5,C   4,C   3)      0.4522         0.028078   
    137. D(H  27,C   6,C   5,H  26)     -0.0511         0.028117   
    138. D(H  27,C   6,C   5,C   4)    179.8667         0.028117   
    139. D(C   7,C   6,C   5,C   4)     -0.2913         0.028117   
    140. D(C   7,C   6,C   5,H  26)    179.7908         0.028117   
    141. D(C   2,C   7,C   6,H  27)    179.5863         0.028731   
    142. D(C   2,C   7,C   6,C   5)     -0.2559         0.028731   
    143. D(H  28,C   7,C   2,C   3)    179.7389         0.026419   
    144. D(H  28,C   7,C   2,C   1)     -1.0625         0.026419   
    145. D(H  28,C   7,C   6,C   5)   -179.3511         0.028731   
    146. D(C   6,C   7,C   2,C   3)      0.6345         0.026419   
    147. D(C   6,C   7,C   2,C   1)    179.8331         0.026419   
    148. D(H  28,C   7,C   6,H  27)      0.4911         0.028731   
    149. D(C  15,C   8,C   1,C   2)    177.4669         0.014755   
    150. D(C  15,C   8,C   1,C   0)     -0.4894         0.014755   
    151. D(C   9,C   8,C   1,C   2)     -4.5918         0.014755   
    152. D(C   9,C   8,C   1,C   0)    177.4519         0.014755   
    153. D(C  14,C   9,C   8,C  15)    134.9143         0.015724   
    154. D(C  10,C   9,C   8,C  15)    -44.1605         0.015724   
    155. D(C  10,C   9,C   8,C   1)    138.2691         0.015724   
    156. D(C  14,C   9,C   8,C   1)    -42.6561         0.015724   
    157. D(H  29,C  10,C   9,C  14)    179.7739         0.026435   
    158. D(C  11,C  10,C   9,C  14)      0.7002         0.026435   
    159. D(H  29,C  10,C   9,C   8)     -1.1349         0.026435   
    160. D(C  11,C  10,C   9,C   8)    179.7914         0.026435   
    161. D(H  30,C  11,C  10,H  29)      0.5146         0.028725   
    162. D(H  30,C  11,C  10,C   9)    179.5789         0.028725   
    163. D(C  12,C  11,C  10,H  29)   -179.3356         0.028725   
    164. D(C  12,C  11,C  10,C   9)     -0.2713         0.028725   
    165. D(H  31,C  12,C  11,H  30)     -0.0605         0.028125   
    166. D(H  31,C  12,C  11,C  10)    179.7895         0.028125   
    167. D(C  13,C  12,C  11,H  30)    179.8233         0.028125   
    168. D(C  13,C  12,C  11,C  10)     -0.3268         0.028125   
    169. D(H  32,C  13,C  12,H  31)      0.3130         0.028097   
    170. D(C  14,C  13,C  12,H  31)   -179.6296         0.028097   
    171. D(C  14,C  13,C  12,C  11)      0.4867         0.028097   
    172. D(H  32,C  13,C  12,C  11)   -179.5708         0.028097   
    173. D(C   9,C  14,C  13,H  32)   -179.9921         0.028785   
    174. D(C   9,C  14,C  13,C  12)     -0.0494         0.028785   
    175. D(H  33,C  14,C   9,C  10)    178.8537         0.026314   
    176. D(H  33,C  14,C   9,C   8)     -0.2343         0.026314   
    177. D(C  13,C  14,C   9,C  10)     -0.5398         0.026314   
    178. D(H  33,C  14,C  13,C  12)   -179.4409         0.028785   
    179. D(C  13,C  14,C   9,C   8)   -179.6278         0.026314   
    180. D(H  33,C  14,C  13,H  32)      0.6164         0.028785   
    181. D(H  34,C  15,C   8,C   9)     -0.6730         0.038703   
    182. D(H  34,C  15,C   8,C   1)    177.2224         0.038703   
    183. D(C  16,C  15,C   8,C   9)   -177.0731         0.038703   
    184. D(C  16,C  15,C   8,C   1)      0.8224         0.038703   
    185. D(H  35,C  16,C  15,H  34)     65.1080         0.012984   
    186. D(C  17,C  16,C  15,H  34)    -56.7892         0.012984   
    187. D(C  17,C  16,C  15,C   8)    119.8026         0.012984   
    188. D(C   0,C  16,C  15,H  34)   -177.4038         0.012984   
    189. D(C   0,C  16,C  15,C   8)     -0.8120         0.012984   
    190. D(H  35,C  16,C   0,H  23)    -60.6622         0.013013   
    191. D(H  35,C  16,C   0,C   1)    118.2079         0.013013   
    192. D(C  17,C  16,C   0,H  23)     61.1846         0.013013   
    193. D(C  17,C  16,C   0,C   1)   -119.9453         0.013013   
    194. D(H  35,C  16,C  15,C   8)   -118.3002         0.012984   
    195. D(C  15,C  16,C   0,H  23)   -178.3706         0.013013   
    196. D(C  15,C  16,C   0,C   1)      0.4995         0.013013   
    197. D(C  22,C  17,C  16,H  35)    178.9931         0.012022   
    198. D(C  22,C  17,C  16,C  15)    -58.0292         0.012022   
    199. D(C  22,C  17,C  16,C   0)     56.2420         0.012022   
    200. D(C  18,C  17,C  16,H  35)     -0.9938         0.012022   
    201. D(C  18,C  17,C  16,C  15)    121.9840         0.012022   
    202. D(C  18,C  17,C  16,C   0)   -123.7448         0.012022   
    203. D(H  36,C  18,C  17,C  22)    179.9898         0.027635   
    204. D(H  36,C  18,C  17,C  16)     -0.0232         0.027635   
    205. D(C  19,C  18,C  17,C  22)     -0.0004         0.027635   
    206. D(C  19,C  18,C  17,C  16)    179.9865         0.027635   
    207. D(H  37,C  19,C  18,H  36)     -0.0244         0.028147   
    208. D(H  37,C  19,C  18,C  17)    179.9659         0.028147   
    209. D(C  20,C  19,C  18,H  36)    179.9699         0.028147   
    210. D(C  20,C  19,C  18,C  17)     -0.0398         0.028147   
    211. D(H  38,C  20,C  19,H  37)      0.0122         0.028472   
    212. D(H  38,C  20,C  19,C  18)   -179.9820         0.028472   
    213. D(C  21,C  20,C  19,H  37)   -179.9624         0.028472   
    214. D(C  21,C  20,C  19,C  18)      0.0433         0.028472   
    215. D(H  39,C  21,C  20,H  38)      0.0059         0.028022   
    216. D(H  39,C  21,C  20,C  19)    179.9806         0.028022   
    217. D(C  22,C  21,C  20,H  38)   -179.9814         0.028022   
    218. D(C  22,C  21,C  20,C  19)     -0.0067         0.028022   
    219. D(H  40,C  22,C  21,H  39)     -0.1125         0.028733   
    220. D(H  40,C  22,C  21,C  20)    179.8749         0.028733   
    221. D(C  17,C  22,C  21,H  39)    179.9790         0.028733   
    222. D(C  17,C  22,C  21,C  20)     -0.0337         0.028733   
    223. D(H  40,C  22,C  17,C  18)   -179.8724         0.027041   
    224. D(H  40,C  22,C  17,C  16)      0.1404         0.027041   
    225. D(C  21,C  22,C  17,C  18)      0.0371         0.027041   
    226. D(C  21,C  22,C  17,C  16)   -179.9501         0.027041   
    -----------------------------------------------------------------

Number of atoms                         .... 41
Number of degrees of freedom            .... 226

         *************************************************************
         *                GEOMETRY OPTIMIZATION CYCLE   1            *
         *************************************************************
---------------------------------
CARTESIAN COORDINATES (ANGSTROEM)
---------------------------------
  C      1.068300    0.952100   -1.167800
  C     -0.166500    0.647200   -0.731900
  C     -1.276400    1.579300   -0.544700
  C     -2.557100    1.264200   -0.994300
  C     -3.598500    2.155500   -0.818500
  C     -3.378800    3.371100   -0.191800
  C     -2.107500    3.696300    0.251200
  C     -1.062700    2.808800    0.074200
  C     -0.242100   -0.805000   -0.515800
  C     -1.409700   -1.510800    0.008000
  C     -1.806100   -2.725200   -0.547200
  C     -2.907400   -3.397500   -0.051400
  C     -3.625100   -2.869900    1.009100
  C     -3.231200   -1.669000    1.575800
  C     -2.132600   -0.992400    1.080600
  C      0.945500   -1.348500   -0.836000
  C      1.907400   -0.285000   -1.271900
  C      3.133600   -0.227500   -0.393200
  C      4.406400   -0.390900   -0.920100
  C      5.518600   -0.334400   -0.096900
  C      5.368300   -0.113200    1.260400
  C      4.099800    0.050700    1.792800
  C      2.989500   -0.006400    0.971500
  H      1.438300    1.925100   -1.434600
  H     -2.731000    0.321600   -1.492400
  H     -4.587200    1.900600   -1.171600
  H     -4.195600    4.063600   -0.050200
  H     -1.931000    4.644400    0.738700
  H     -0.072100    3.056200    0.428500
  H     -1.251400   -3.130100   -1.381500
  H     -3.209300   -4.335500   -0.494800
  H     -4.487600   -3.394000    1.393900
  H     -3.783800   -1.257000    2.407700
  H     -1.824300   -0.060700    1.532100
  H      1.228200   -2.381700   -0.749100
  H      2.222300   -0.447700   -2.308600
  H      4.532800   -0.563700   -1.979900
  H      6.504700   -0.463700   -0.518900
  H      6.235900   -0.068900    1.902100
  H      3.976200    0.223400    2.852000
  H      1.999100    0.119100    1.384600

----------------------------
CARTESIAN COORDINATES (A.U.)
----------------------------
  NO LB      ZA    FRAG     MASS         X           Y           Z
   0 C     6.0000    0    12.011    2.018794    1.799208   -2.206822
   1 C     6.0000    0    12.011   -0.314639    1.223031   -1.383091
   2 C     6.0000    0    12.011   -2.412046    2.984444   -1.029334
   3 C     6.0000    0    12.011   -4.832219    2.388992   -1.878955
   4 C     6.0000    0    12.011   -6.800179    4.073305   -1.546741
   5 C     6.0000    0    12.011   -6.385007    6.370456   -0.362449
   6 C     6.0000    0    12.011   -3.982598    6.984995    0.474699
   7 C     6.0000    0    12.011   -2.008212    5.307863    0.140218
   8 C     6.0000    0    12.011   -0.457503   -1.521230   -0.974721
   9 C     6.0000    0    12.011   -2.663947   -2.854998    0.015118
  10 C     6.0000    0    12.011   -3.413034   -5.149882   -1.034058
  11 C     6.0000    0    12.011   -5.494190   -6.420345   -0.097132
  12 C     6.0000    0    12.011   -6.850446   -5.423325    1.906923
  13 C     6.0000    0    12.011   -6.106083   -3.153953    2.977830
  14 C     6.0000    0    12.011   -4.030030   -1.875364    2.042038
  15 C     6.0000    0    12.011    1.786736   -2.548296   -1.579811
  16 C     6.0000    0    12.011    3.604464   -0.538572   -2.403543
  17 C     6.0000    0    12.011    5.921646   -0.429913   -0.743040
  18 C     6.0000    0    12.011    8.326889   -0.738694   -1.738737
  19 C     6.0000    0    12.011   10.428643   -0.631924   -0.183114
  20 C     6.0000    0    12.011   10.144617   -0.213917    2.381811
  21 C     6.0000    0    12.011    7.747499    0.095809    3.387901
  22 C     6.0000    0    12.011    5.649336   -0.012094    1.835869
  23 H     1.0000    0     1.008    2.717993    3.637912   -2.711001
  24 H     1.0000    0     1.008   -5.160842    0.607736   -2.820227
  25 H     1.0000    0     1.008   -8.668552    3.591613   -2.214003
  26 H     1.0000    0     1.008   -7.928535    7.679091   -0.094864
  27 H     1.0000    0     1.008   -3.649061    8.776644    1.395941
  28 H     1.0000    0     1.008   -0.136249    5.775381    0.809748
  29 H     1.0000    0     1.008   -2.364803   -5.915032   -2.610657
  30 H     1.0000    0     1.008   -6.064698   -8.192908   -0.935036
  31 H     1.0000    0     1.008   -8.480335   -6.413730    2.634089
  32 H     1.0000    0     1.008   -7.150346   -2.375386    4.549894
  33 H     1.0000    0     1.008   -3.447427   -0.114706    2.895249
  34 H     1.0000    0     1.008    2.320962   -4.500761   -1.415594
  35 H     1.0000    0     1.008    4.199538   -0.846030   -4.362622
  36 H     1.0000    0     1.008    8.565751   -1.065239   -3.741469
  37 H     1.0000    0     1.008   12.292102   -0.876266   -0.980579
  38 H     1.0000    0     1.008   11.784143   -0.130202    3.594448
  39 H     1.0000    0     1.008    7.513929    0.422165    5.389499
  40 H     1.0000    0     1.008    3.777752    0.225066    2.616515

--------------------------------
INTERNAL COORDINATES (ANGSTROEM)
--------------------------------
 C      0   0   0     0.000000000000     0.00000000     0.00000000
 C      1   0   0     1.344508780187     0.00000000     0.00000000
 C      2   1   0     1.461414472352   126.46915730     0.00000000
 C      3   2   1     1.393420489300   120.82860041   134.75184168
 C      4   3   2     1.381967904837   120.37869998   180.33309858
 C      5   4   3     1.385173036122   120.26683491   359.93369022
 C      6   5   4     1.384993765329   119.75950474     0.45216883
 C      7   6   5     1.382241762500   120.13937490   359.70865369
 C      2   1   3     1.470135847464   108.59591131   177.91560908
 C      9   2   1     1.461441014889   124.80775554   177.45194719
 C     10   9   2     1.392891725871   120.36898214   138.26911776
 C     11  10   9     1.382268649720   120.51861777   179.79142009
 C     12  11  10     1.384960396546   120.14870739   359.72872446
 C     13  12  11     1.385087329377   119.74967176   359.67323998
 C     14  13  12     1.382003096957   120.26095085     0.48670879
 C      9   2   1     1.344735680348   108.59168835   359.51063612
 C      1   2   3     1.498446538920   110.46211868   182.03507313
 C     17   1   2     1.509631206620   112.51726386   240.05470873
 C     18  17   1     1.387206909585   121.31162568   236.25517955
 C     19  18  17     1.384860761954   120.41716560   179.98650869
 C     20  19  18     1.383395395395   120.16446375   359.96019781
 C     21  20  19     1.385426006685   119.69809512     0.04329902
 C     22  21  20     1.382230150879   120.14894453     0.00000000
 H      1   2   3     1.074621440322   127.01572352     0.84170435
 H      4   3   2     1.080203490089   119.60886477   359.65703302
 H      5   4   3     1.080361657039   119.72795109   179.97212670
 H      6   5   4     1.080170842969   120.13190041   180.36997581
 H      7   6   5     1.080602660556   120.01569851   179.86670703
 H      8   7   6     1.080751409900   120.25588853   180.64890322
 H     11  10   9     1.080598255597   119.23165408   358.86510402
 H     12  11  10     1.080551326870   119.84314418   179.57892797
 H     13  12  11     1.080119484131   120.11594731   179.78950113
 H     14  13  12     1.080355668287   120.01529511   180.42924198
 H     15  14  13     1.080262019142   119.95751389   180.55906084
 H     16   9   2     1.074696766535   126.98612362   177.22241225
 H     17   1   2     1.095618633467   110.44355084   118.20787978
 H     19  18  17     1.081208971476   119.89400550   359.97675331
 H     20  19  18     1.080368316825   119.73347994   179.96591213
 H     21  20  19     1.080032934683   120.14720767   180.01797434
 H     22  21  20     1.080280931055   120.03030993   179.98061675
 H     23  22  21     1.080413818868   120.28863803   179.87490776

---------------------------
INTERNAL COORDINATES (A.U.)
---------------------------
 C      0   0   0     0.000000000000     0.00000000     0.00000000
 C      1   0   0     2.540753379206     0.00000000     0.00000000
 C      2   1   0     2.761673120894   126.46915730     0.00000000
 C      3   2   1     2.633183114171   120.82860041   134.75184168
 C      4   3   2     2.611540866011   120.37869998   180.33309858
 C      5   4   3     2.617597686363   120.26683491   359.93369022
 C      6   5   4     2.617258913660   119.75950474     0.45216883
 C      7   6   5     2.612058381994   120.13937490   359.70865369
 C      2   1   3     2.778154131368   108.59591131   177.91560908
 C      9   2   1     2.761723279020   124.80775554   177.45194719
 C     10   9   2     2.632183896101   120.36898214   138.26911776
 C     11  10   9     2.612109191477   120.51861777   179.79142009
 C     12  11  10     2.617195855798   120.14870739   359.72872446
 C     13  12  11     2.617435724086   119.74967176   359.67323998
 C     14  13  12     2.611607369481   120.26095085     0.48670879
 C      9   2   1     2.541182158369   108.59168835   359.51063612
 C      1   2   3     2.831653584880   110.46211868   182.03507313
 C     17   1   2     2.852789543732   112.51726386   240.05470873
 C     18  17   1     2.621441150199   121.31162568   236.25517955
 C     19  18  17     2.617007573707   120.41716560   179.98650869
 C     20  19  18     2.614238432224   120.16446375   359.96019781
 C     21  20  19     2.618075731447   119.69809512     0.04329902
 C     22  21  20     2.612036439211   120.14894453     0.00000000
 H      1   2   3     2.030740219849   127.01572352     0.84170435
 H      4   3   2     2.041288765174   119.60886477   359.65703302
 H      5   4   3     2.041587657393   119.72795109   179.97212670
 H      6   5   4     2.041227071058   120.13190041   180.36997581
 H      7   6   5     2.042043088037   120.01569851   179.86670703
 H      8   7   6     2.042324183560   120.25588853   180.64890322
 H     11  10   9     2.042034763872   119.23165408   358.86510402
 H     12  11  10     2.041946081429   119.84314418   179.57892797
 H     13  12  11     2.041130016920   120.11594731   179.78950113
 H     14  13  12     2.041576340292   120.01529511   180.42924198
 H     15  14  13     2.041399369055   119.95751389   180.55906084
 H     16   9   2     2.030882565761   126.98612362   177.22241225
 H     17   1   2     2.070419164474   110.44355084   118.20787978
 H     19  18  17     2.043188849628   119.89400550   359.97675331
 H     20  19  18     2.041600242565   119.73347994   179.96591213
 H     21  20  19     2.040966462166   120.14720767   180.01797434
 H     22  21  20     2.041435107390   120.03030993   179.98061675
 H     23  22  21     2.041686228964   120.28863803   179.87490776

---------------------
BASIS SET INFORMATION
---------------------
There are 2 groups of distinct atoms

 Group   1 Type C   : 19s6p3d2f contracted to 5s4p3d2f pattern {88111/3111/111/11}
 Group   2 Type H   : 5s2p1d contracted to 3s2p1d pattern {311/11/1}

Atom   0C    basis set group =>   1
Atom   1C    basis set group =>   1
Atom   2C    basis set group =>   1
Atom   3C    basis set group =>   1
Atom   4C    basis set group =>   1
Atom   5C    basis set group =>   1
Atom   6C    basis set group =>   1
Atom   7C    basis set group =>   1
Atom   8C    basis set group =>   1
Atom   9C    basis set group =>   1
Atom  10C    basis set group =>   1
Atom  11C    basis set group =>   1
Atom  12C    basis set group =>   1
Atom  13C    basis set group =>   1
Atom  14C    basis set group =>   1
Atom  15C    basis set group =>   1
Atom  16C    basis set group =>   1
Atom  17C    basis set group =>   1
Atom  18C    basis set group =>   1
Atom  19C    basis set group =>   1
Atom  20C    basis set group =>   1
Atom  21C    basis set group =>   1
Atom  22C    basis set group =>   1
Atom  23H    basis set group =>   2
Atom  24H    basis set group =>   2
Atom  25H    basis set group =>   2
Atom  26H    basis set group =>   2
Atom  27H    basis set group =>   2
Atom  28H    basis set group =>   2
Atom  29H    basis set group =>   2
Atom  30H    basis set group =>   2
Atom  31H    basis set group =>   2
Atom  32H    basis set group =>   2
Atom  33H    basis set group =>   2
Atom  34H    basis set group =>   2
Atom  35H    basis set group =>   2
Atom  36H    basis set group =>   2
Atom  37H    basis set group =>   2
Atom  38H    basis set group =>   2
Atom  39H    basis set group =>   2
Atom  40H    basis set group =>   2
---------------------------------
AUXILIARY/J BASIS SET INFORMATION
---------------------------------
There are 2 groups of distinct atoms

 Group   1 Type C   : 10s7p5d2f1g contracted to 10s7p5d2f1g pattern {1111111111/1111111/11111/11/1}
 Group   2 Type H   : 4s3p2d1f contracted to 4s3p2d1f pattern {1111/111/11/1}

Atom   0C    basis set group =>   1
Atom   1C    basis set group =>   1
Atom   2C    basis set group =>   1
Atom   3C    basis set group =>   1
Atom   4C    basis set group =>   1
Atom   5C    basis set group =>   1
Atom   6C    basis set group =>   1
Atom   7C    basis set group =>   1
Atom   8C    basis set group =>   1
Atom   9C    basis set group =>   1
Atom  10C    basis set group =>   1
Atom  11C    basis set group =>   1
Atom  12C    basis set group =>   1
Atom  13C    basis set group =>   1
Atom  14C    basis set group =>   1
Atom  15C    basis set group =>   1
Atom  16C    basis set group =>   1
Atom  17C    basis set group =>   1
Atom  18C    basis set group =>   1
Atom  19C    basis set group =>   1
Atom  20C    basis set group =>   1
Atom  21C    basis set group =>   1
Atom  22C    basis set group =>   1
Atom  23H    basis set group =>   2
Atom  24H    basis set group =>   2
Atom  25H    basis set group =>   2
Atom  26H    basis set group =>   2
Atom  27H    basis set group =>   2
Atom  28H    basis set group =>   2
Atom  29H    basis set group =>   2
Atom  30H    basis set group =>   2
Atom  31H    basis set group =>   2
Atom  32H    basis set group =>   2
Atom  33H    basis set group =>   2
Atom  34H    basis set group =>   2
Atom  35H    basis set group =>   2
Atom  36H    basis set group =>   2
Atom  37H    basis set group =>   2
Atom  38H    basis set group =>   2
Atom  39H    basis set group =>   2
Atom  40H    basis set group =>   2
---------------------------------
AUXILIARY/C BASIS SET INFORMATION
---------------------------------
There are 2 groups of distinct atoms

 Group   1 Type C   : 9s7p6d4f2g contracted to 9s7p6d4f2g pattern {111111111/1111111/111111/1111/11}
 Group   2 Type H   : 4s3p2d1f contracted to 4s3p2d1f pattern {1111/111/11/1}

Atom   0C    basis set group =>   1
Atom   1C    basis set group =>   1
Atom   2C    basis set group =>   1
Atom   3C    basis set group =>   1
Atom   4C    basis set group =>   1
Atom   5C    basis set group =>   1
Atom   6C    basis set group =>   1
Atom   7C    basis set group =>   1
Atom   8C    basis set group =>   1
Atom   9C    basis set group =>   1
Atom  10C    basis set group =>   1
Atom  11C    basis set group =>   1
Atom  12C    basis set group =>   1
Atom  13C    basis set group =>   1
Atom  14C    basis set group =>   1
Atom  15C    basis set group =>   1
Atom  16C    basis set group =>   1
Atom  17C    basis set group =>   1
Atom  18C    basis set group =>   1
Atom  19C    basis set group =>   1
Atom  20C    basis set group =>   1
Atom  21C    basis set group =>   1
Atom  22C    basis set group =>   1
Atom  23H    basis set group =>   2
Atom  24H    basis set group =>   2
Atom  25H    basis set group =>   2
Atom  26H    basis set group =>   2
Atom  27H    basis set group =>   2
Atom  28H    basis set group =>   2
Atom  29H    basis set group =>   2
Atom  30H    basis set group =>   2
Atom  31H    basis set group =>   2
Atom  32H    basis set group =>   2
Atom  33H    basis set group =>   2
Atom  34H    basis set group =>   2
Atom  35H    basis set group =>   2
Atom  36H    basis set group =>   2
Atom  37H    basis set group =>   2
Atom  38H    basis set group =>   2
Atom  39H    basis set group =>   2
Atom  40H    basis set group =>   2


           ************************************************************
           *        Program running with 4 parallel MPI-processes     *
           *              working on a common directory               *
           ************************************************************
------------------------------------------------------------------------------
                           ORCA GTO INTEGRAL CALCULATION
                           -- RI-GTO INTEGRALS CHOSEN --
------------------------------------------------------------------------------
------------------------------------------------------------------------------
                   ___                                                        
                  /   \      - P O W E R E D   B Y -                         
                 /     \                                                     
                 |  |  |   _    _      __       _____    __    __             
                 |  |  |  | |  | |    /  \     |  _  \  |  |  /  |          
                  \  \/   | |  | |   /    \    | | | |  |  | /  /          
                 / \  \   | |__| |  /  /\  \   | |_| |  |  |/  /          
                |  |  |   |  __  | /  /__\  \  |    /   |      \           
                |  |  |   | |  | | |   __   |  |    \   |  |\   \          
                \     /   | |  | | |  |  |  |  | |\  \  |  | \   \       
                 \___/    |_|  |_| |__|  |__|  |_| \__\ |__|  \__/        
                                                                              
                      - O R C A' S   B I G   F R I E N D -                    
                                      &                                       
                       - I N T E G R A L  F E E D E R -                       
                                                                              
 v1 FN, 2020, v2 2021                                                         
------------------------------------------------------------------------------


Reading SHARK input file optpbed3-b2plyp-test-406.SHARKINP.tmp ... ok
----------------------
SHARK INTEGRAL PACKAGE
----------------------

Number of atoms                             ...     41
Number of basis functions                   ...   1448
Number of shells                            ...    568
Maximum angular momentum                    ...      3
Integral batch strategy                     ... SHARK/LIBINT Hybrid
RI-J (if used) integral strategy            ... SPLIT-RIJ (Revised 2003 algorithm where possible)
Printlevel                                  ...      1
Contraction scheme used                     ... PARTIAL GENERAL contraction
Coulomb Range Separation                    ... NOT USED
Exchange Range Separation                   ... NOT USED
Finite Nucleus Model                        ... NOT USED
Auxiliary Coulomb fitting basis             ... AVAILABLE
   # of basis functions in Aux-J            ...   2357
   # of shells in Aux-J                     ...    755
   Maximum angular momentum in Aux-J        ...      4
Auxiliary J/K fitting basis                 ... NOT available
Auxiliary Correlation fitting basis         ... AVAILABLE
   # of basis functions in Aux-C            ...   2978
   # of shells in Aux-C                     ...    824
   Maximum angular momentum in Aux-C        ...      4
Auxiliary 'external' fitting basis          ... NOT available
Integral threshold                          ...     2.500000e-11
Primitive cut-off                           ...     2.500000e-12
Primitive pair pre-selection threshold      ...     2.500000e-12

Calculating pre-screening integrals         ... done (  0.4 sec) Dimension = 568
Calculating pre-screening integrals (ORCA)  ... done (  0.8 sec) Dimension = 430
Organizing shell pair data                  ... done (  1.9 sec)
Shell pair information
Total number of shell pairs                 ...    161596
Shell pairs after pre-screening             ...    103951
Total number of primitive shell pairs       ...    211698
Primitive shell pairs kept                  ...    122099
          la=0 lb=0:  23702 shell pairs
          la=1 lb=0:  26577 shell pairs
          la=1 lb=1:   6584 shell pairs
          la=2 lb=0:  17493 shell pairs
          la=2 lb=1:   8723 shell pairs
          la=2 lb=2:   2958 shell pairs
          la=3 lb=0:   9253 shell pairs
          la=3 lb=1:   4656 shell pairs
          la=3 lb=2:   3129 shell pairs
          la=3 lb=3:    876 shell pairs

Calculating one electron integrals          ... done (  0.4 sec)
Calculating RI/J V-Matrix + Cholesky decomp.... done (  0.4 sec)
Calculating RI/C V-Matrix + Cholesky decomp.... done (  0.7 sec)
Calculating Nuclear repulsion               ... done (  0.0 sec) ENN=   1700.867465432964 Eh

SHARK setup successfully completed in   6.4 seconds

Maximum memory used throughout the entire GTOINT-calculation: 161.3 MB


           ************************************************************
           *        Program running with 4 parallel MPI-processes     *
           *              working on a common directory               *
           ************************************************************
-------------------------------------------------------------------------------
                                 ORCA SCF
-------------------------------------------------------------------------------

------------
SCF SETTINGS
------------
Hamiltonian:
 Density Functional     Method          .... DFT(GTOs)
 Exchange Functional    Exchange        .... PBE
   PBE kappa parameter   XKappa         ....  0.804000
   PBE mue parameter    XMuePBE         ....  0.219520
 Correlation Functional Correlation     .... PBE
   PBE beta parameter  CBetaPBE         ....  0.066725
 LDA part of GGA corr.  LDAOpt          .... PW91-LDA
 Gradients option       PostSCFGGA      .... off
 Hybrid DFT is turned on
   Fraction HF Exchange ScalHFX         ....  0.250000
   Scaling of DF-GGA-X  ScalDFX         ....  0.750000
   Scaling of DF-GGA-C  ScalDFC         ....  1.000000
   Scaling of DF-LDA-C  ScalLDAC        ....  1.000000
   Perturbative correction              ....  0.000000
   Density functional embedding theory  .... OFF
   NL short-range parameter             ....  6.900000
 RI-approximation to the Coulomb term is turned on
   Number of AuxJ basis functions       .... 2357
   RIJ-COSX (HFX calculated with COS-X)).... on


General Settings:
 Integral files         IntName         .... optpbed3-b2plyp-test-406
 Hartree-Fock type      HFTyp           .... RHF
 Total Charge           Charge          ....    0
 Multiplicity           Mult            ....    1
 Number of Electrons    NEL             ....  156
 Basis Dimension        Dim             .... 1310
 Nuclear Repulsion      ENuc            ....   1700.8674654330 Eh

Convergence Acceleration:
 DIIS                   CNVDIIS         .... on
   Start iteration      DIISMaxIt       ....    12
   Startup error        DIISStart       ....  0.200000
   # of expansion vecs  DIISMaxEq       ....     5
   Bias factor          DIISBfac        ....   1.050
   Max. coefficient     DIISMaxC        ....  10.000
 Trust-Rad. Augm. Hess. CNVTRAH         .... auto
   Auto Start mean grad. ratio tolernc. ....  1.125000
   Auto Start start iteration           ....    20
   Auto Start num. interpolation iter.  ....    10
   Max. Number of Micro iterations      ....    16
   Max. Number of Macro iterations      .... Maxiter - #DIIS iter
   Number of Davidson start vectors     ....     2
   Converg. threshold I  (grad. norm)   ....   1.000e-05
   Converg. threshold II (energy diff.) ....   1.000e-08
   Grad. Scal. Fac. for Micro threshold ....   0.100
   Minimum threshold for Micro iter.    ....   0.010
   NR start threshold (gradient norm)   ....   0.001
   Initial trust radius                 ....   0.400
   Minimum AH scaling param. (alpha)    ....   1.000
   Maximum AH scaling param. (alpha)    .... 1000.000
   Orbital update algorithm             .... Taylor
   White noise on init. David. guess    .... on
   Maximum white noise                  ....   0.010
   Quad. conv. algorithm                .... NR
 SOSCF                  CNVSOSCF        .... on
   Start iteration      SOSCFMaxIt      ....   150
   Startup grad/error   SOSCFStart      ....  0.003300
 Level Shifting         CNVShift        .... on
   Level shift para.    LevelShift      ....    0.2500
   Turn off err/grad.   ShiftErr        ....    0.0010
 Zerner damping         CNVZerner       .... off
 Static damping         CNVDamp         .... on
   Fraction old density DampFac         ....    0.7000
   Max. Damping (<1)    DampMax         ....    0.9800
   Min. Damping (>=0)   DampMin         ....    0.0000
   Turn off err/grad.   DampErr         ....    0.1000
 Fernandez-Rico         CNVRico         .... off

SCF Procedure:
 Maximum # iterations   MaxIter         ....   125
 SCF integral mode      SCFMode         .... Direct
   Integral package                     .... SHARK and LIBINT hybrid scheme
 Reset frequency        DirectResetFreq ....    20
 Integral Threshold     Thresh          ....  2.500e-11 Eh
 Primitive CutOff       TCut            ....  2.500e-12 Eh

Convergence Tolerance:
 Convergence Check Mode ConvCheckMode   .... Total+1el-Energy
 Convergence forced     ConvForced      .... 0
 Energy Change          TolE            ....  1.000e-08 Eh
 1-El. energy change                    ....  1.000e-05 Eh
 Orbital Gradient       TolG            ....  1.000e-05
 Orbital Rotation angle TolX            ....  1.000e-05
 DIIS Error             TolErr          ....  5.000e-07


Diagonalization of the overlap matrix:
Smallest eigenvalue                        ... 5.069e-07
Time for diagonalization                   ...    0.430 sec
Threshold for overlap eigenvalues          ... 1.000e-08
Number of eigenvalues below threshold      ... 0
Time for construction of square roots      ...    0.300 sec
Total time needed                          ...    0.741 sec

Time for model grid setup =    1.016 sec

------------------------------
INITIAL GUESS: MODEL POTENTIAL
------------------------------
Loading Hartree-Fock densities                     ... done
Calculating cut-offs                               ... done
Initializing the effective Hamiltonian             ... done
Setting up the integral package (SHARK)            ... done
Starting the Coulomb interaction                   ... done (   4.6 sec)
Reading the grid                                   ... done
Mapping shells                                     ... done
Starting the XC term evaluation                    ... done (   3.3 sec)
  promolecular density results
     # of electrons  =    155.983518308
     EX              =   -123.029858435
     EC              =     -5.205320669
     EX+EC           =   -128.235179104
Transforming the Hamiltonian                       ... done (   0.2 sec)
Diagonalizing the Hamiltonian                      ... done (   0.4 sec)
Back transforming the eigenvectors                 ... done (   0.1 sec)
Now organizing SCF variables                       ... done
                      ------------------
                      INITIAL GUESS DONE (   9.7 sec)
                      ------------------
-------------------
DFT GRID GENERATION
-------------------

General Integration Accuracy     IntAcc      ... 4.388
Radial Grid Type                 RadialGrid  ... OptM3 with GC (2021)
Angular Grid (max. ang.)         AngularGrid ... 4 (Lebedev-302)
Angular grid pruning method      GridPruning ... 4 (adaptive)
Weight generation scheme         WeightScheme... Becke
Basis function cutoff            BFCut       ... 1.0000e-11
Integration weight cutoff        WCut        ... 1.0000e-14
Angular grids for H and He will be reduced by one unit
Partially contracted basis set               ... off
Rotationally invariant grid construction     ... off

Total number of grid points                  ...   199480
Total number of batches                      ...     3139
Average number of points per batch           ...       63
Average number of grid points per atom       ...     4865
Time for grid setup =    3.333 sec

--------------------
COSX GRID GENERATION
--------------------

GRIDX 1
-------
General Integration Accuracy     IntAcc      ... 3.816
Radial Grid Type                 RadialGrid  ... OptM3 with GC (2021)
Angular Grid (max. ang.)         AngularGrid ... 1 (Lebedev-50)
Angular grid pruning method      GridPruning ... 4 (adaptive)
Weight generation scheme         WeightScheme... Becke
Basis function cutoff            BFCut       ... 1.0000e-11
Integration weight cutoff        WCut        ... 1.0000e-14
Angular grids for H and He will be reduced by one unit
Partially contracted basis set               ... on
Rotationally invariant grid construction     ... off

Total number of grid points                  ...    25357
Total number of batches                      ...      418
Average number of points per batch           ...       60
Average number of grid points per atom       ...      618
UseSFitting                                  ... on

GRIDX 2
-------
General Integration Accuracy     IntAcc      ... 4.020
Radial Grid Type                 RadialGrid  ... OptM3 with GC (2021)
Angular Grid (max. ang.)         AngularGrid ... 2 (Lebedev-110)
Angular grid pruning method      GridPruning ... 4 (adaptive)
Weight generation scheme         WeightScheme... Becke
Basis function cutoff            BFCut       ... 1.0000e-11
Integration weight cutoff        WCut        ... 1.0000e-14
Angular grids for H and He will be reduced by one unit
Partially contracted basis set               ... on
Rotationally invariant grid construction     ... off

Total number of grid points                  ...    58960
Total number of batches                      ...      944
Average number of points per batch           ...       62
Average number of grid points per atom       ...     1438
UseSFitting                                  ... on

GRIDX 3
-------
General Integration Accuracy     IntAcc      ... 4.338
Radial Grid Type                 RadialGrid  ... OptM3 with GC (2021)
Angular Grid (max. ang.)         AngularGrid ... 3 (Lebedev-194)
Angular grid pruning method      GridPruning ... 4 (adaptive)
Weight generation scheme         WeightScheme... Becke
Basis function cutoff            BFCut       ... 1.0000e-11
Integration weight cutoff        WCut        ... 1.0000e-14
Angular grids for H and He will be reduced by one unit
Partially contracted basis set               ... on
Rotationally invariant grid construction     ... off

Total number of grid points                  ...   127144
Total number of batches                      ...     2006
Average number of points per batch           ...       63
Average number of grid points per atom       ...     3101
UseSFitting                                  ... on

Time for X-Grid setup             =    9.226 sec


--------------------
CPCM SOLVATION MODEL
--------------------
CPCM parameters:
  Epsilon                                         ...       7.4257
  Refrac                                          ...       1.4050
  Rsolv                                           ...       1.3000
  Surface type                                    ... GAUSSIAN VDW
  Epsilon function type                           ...         CPCM
Solvent:                                     ... TETRAHYDROFURAN
SMD-CDS solvent descriptors:
  Soln                                       ...    1.4050
  Soln25                                     ...    1.4044
  Sola                                       ...    0.0000
  Solb                                       ...    0.4800
  Solg                                       ...   39.4400
  Solc                                       ...    0.0000
  Solh                                       ...    0.0000
Radii:
 Radius for C  used is    3.4960 Bohr (=   1.8500 Ang.)
 Radius for H  used is    2.2677 Bohr (=   1.2000 Ang.)
Calculating surface                               ...        done! (  0.0s)
GEPOL surface points                              ...         2383
GEPOL Volume                                      ...    2121.6094
GEPOL Surface-area                                ...    1183.6755
Calculating surface distance matrix               ...        done! (  0.1s)
Performing Cholesky decomposition & store         ...        done! (  0.3s)
Overall time for CPCM initialization              ...                 0.4s
 re-compute Schwartz prescreening matrix in partically contracted basis (1) ...done (   0.291 sec)
--------------
SCF ITERATIONS
--------------
ITER       Energy         Delta-E        Max-DP      RMS-DP      [F,P]     Damp
               ***  Starting incremental Fock matrix formation  ***
  0   -886.0408250425   0.000000000000 0.32740210  0.00132923  0.1361123 0.7000
  1   -886.2384689723  -0.197643929732 0.23869494  0.00103857  0.0756841 0.7000
                               ***Turning on DIIS***
  2   -886.3345558768  -0.096086904539 0.54964049  0.00234861  0.0383001 0.0000
  3   -886.4748906060  -0.140334729187 0.05127910  0.00041734  0.0375210 0.0000
  4   -886.5058927834  -0.031002177430 0.02585512  0.00018960  0.0062049 0.0000
                      *** Initiating the SOSCF procedure ***
                           *** Shutting down DIIS ***
                      *** Re-Reading the Fockian *** 
                      *** Removing any level shift *** 
ITER      Energy       Delta-E        Grad      Rot      Max-DP    RMS-DP
  5   -886.50694428  -0.0010514916  0.000498  0.000498  0.019529  0.000074
               *** Restarting incremental Fock matrix formation ***
  6   -886.50702304  -0.0000787665  0.000327  0.001222  0.047760  0.000434
  7   -886.50701852   0.0000045174  0.000707  0.000988  0.013404  0.000077
  8   -886.50703595  -0.0000174262  0.000063  0.000173  0.013381  0.000091
  9   -886.50703595   0.0000000021  0.000063  0.000117  0.004834  0.000020
 10   -886.50703639  -0.0000004383  0.000015  0.000045  0.006215  0.000037
 11   -886.50703639  -0.0000000015  0.000018  0.000026  0.015523  0.000039
                  ***Gradient check signals convergence***
              ***Rediagonalizing the Fockian in SOSCF/NRSCF***

               *****************************************************
               *                     SUCCESS                       *
               *           SCF CONVERGED AFTER  12 CYCLES          *
               *****************************************************

Old exchange energy                            =    -31.457983909 Eh
New exchange energy                            =    -31.457926056 Eh
Exchange energy change after final integration =      0.000057853 Eh
Total energy after final integration           =   -886.506978594 Eh
Final COS-X integration done in                =   236.818 sec

SMD CDS free energy correction energy :                -6.45778     Kcal/mol
Total Energy after SMD CDS correction =              -886.517269721 Eh

----------------
TOTAL SCF ENERGY
----------------

Total Energy       :         -886.51726972 Eh          -24123.36132 eV

Components:
Nuclear Repulsion  :         1700.86746543 Eh           46282.95671 eV
Electronic Energy  :        -2587.38473515 Eh          -70406.31803 eV
One Electron Energy:        -4577.33331891 Eh         -124555.57189 eV
Two Electron Energy:         1989.94858376 Eh           54149.25386 eV
Max COSX asymmetry :            0.00010832 Eh               0.00295 eV
CPCM Dielectric    :           -0.01609326 Eh              -0.43792 eV
SMD CDS (Gcds)     :           -0.01029113 Eh              -0.28004 eV

Virial components:
Potential Energy   :        -1768.18526480 Eh          -48114.76716 eV
Kinetic Energy     :          881.66799508 Eh           23991.40585 eV
Virial Ratio       :            2.00550011


DFT components:
N(Alpha)           :       78.000055353099 electrons
N(Beta)            :       78.000055353099 electrons
N(Total)           :      156.000110706197 electrons
E(X)               :      -94.044622565587 Eh       
E(C)               :       -5.209282395462 Eh       
E(XC)              :      -99.253904961049 Eh       
DFET-embed. en.    :        0.000000000000 Eh       
CPCM Solvation Model Properties:
Surface-charge          :           -0.07147094
Charge-correction       :            0.00017762 Eh               0.00483 eV
Free-energy (cav+disp)  :           -0.01029113 Eh              -0.28004 eV

---------------
SCF CONVERGENCE
---------------

  Last Energy change         ...   -5.8762e-08  Tolerance :   1.0000e-08
  Last MAX-Density change    ...    2.4425e-15  Tolerance :   1.0000e-07
  Last RMS-Density change    ...    1.3721e-17  Tolerance :   5.0000e-09
  Last Orbital Gradient      ...    1.4998e-06  Tolerance :   1.0000e-05
  Last Orbital Rotation      ...    3.0313e-06  Tolerance :   1.0000e-05

             **** THE GBW FILE WAS UPDATED (optpbed3-b2plyp-test-406.gbw) ****
[...]
   Time for Sigma-Completion:     0.588
   Time for building 20 sigma-vectors
   Data Preparation Phase         ...     0.02 sec
   Transformed RI Coulomb         ...     2.09 sec
   Transformed RI-exchange        ...  1843.43 sec
   (ab|v) reading and digestion   ...  1774.63 sec
   Final sigma-completion         ...     0.02 sec
   Done building sigma-vectors             Size of expansion space: 20
   Lowest Energy          :     0.169748373186
   Maximum Energy change  :     0.000008698275 (vector 8)
   Maximum residual norm  :     0.000001323422

                       ****Iteration   12****
              <<< Entering MO-section for Build Sigma(Double) >>>
   Forming the XC and CPCM contribution:
   Time for densities:            0.357
   Time for XC-Integration:      29.254
   Time for LR-CPCM terms:       20.120
   Time for Sigma-Completion:     0.285
   Time for building 10 sigma-vectors
   Data Preparation Phase         ...     0.01 sec
   Transformed RI Coulomb         ...     1.16 sec
   Transformed RI-exchange        ...   926.13 sec
   (ab|v) reading and digestion   ...   855.68 sec
   Final sigma-completion         ...     0.01 sec
   Done building sigma-vectors             Size of expansion space: 30
   Lowest Energy          :     0.169748373185
   Maximum Energy change  :     0.000004626525 (vector 8)
   Maximum residual norm  :     0.000000877357

      *** CONVERGENCE OF RESIDUAL NORM REACHED ***

Storing the converged CI vectors               ... optpbed3-b2plyp-test-406_job2.cis1

                 *** DAVIDSON DONE ***

Total time for solving the CIS problem: 13802.825sec

------------------
DOUBLES CORRECTION (Double precision version)
------------------

The (D) correction will be scaled by  0.2700
Doing v(i,a)*T(i,a) terms (RI)                    ... ok
Doing u(i,j,a,b) terms for state   0              ... ok
Doing u(i,j,a,b) terms for state   1              ... ok
Doing u(i,j,a,b) terms for state   2              ... ok
Doing u(i,j,a,b) terms for state   3              ... ok
Doing u(i,j,a,b) terms for state   4              ... ok
Doing u(i,j,a,b) terms for state   5              ... ok
Doing u(i,j,a,b) terms for state   6              ... ok
Doing u(i,j,a,b) terms for state   7              ... ok
Doing u(i,j,a,b) terms for state   8              ... ok
Doing u(i,j,a,b) terms for state   9              ... ok

Contributions to the (D) correction(s) (in eV)

STATE  Final   Init.   Total   v(ext)   v(int)  v(3)    u
       omega   omega     (D)                             
-----------------------------------------------------------------------------
   0   4.416   4.619  -0.203   0.490   0.952  -0.067  -1.578
   1   4.826   5.223  -0.397   0.402   0.947  -0.025  -1.722
   2   4.860   5.268  -0.409   0.462   0.950  -0.034  -1.787
   3   4.977   5.381  -0.403   0.476   0.926  -0.030  -1.775
   4   5.121   5.484  -0.362   0.320   0.945  -0.019  -1.608
   5   5.219   5.540  -0.321   0.331   0.934  -0.025  -1.561
   6   5.106   5.609  -0.503   0.456   0.937  -0.022  -1.874
   7   5.278   5.697  -0.419   0.435   0.943  -0.027  -1.771
   8   5.558   5.788  -0.230   0.422   0.934  -0.041  -1.546
   9   5.643   5.878  -0.235   0.078   0.955  -0.004  -1.263

(D)-timings
 V(i,a)*T(i,a) terms           ...  1044.095 sec
 U(i,j,a,b) 3-internal         ...    24.244 sec
 U(i,j,a,b) 3-external         ...   568.826 sec
 U(i,j,a,b) pair terms         ...   589.446 sec
 Total measured time           ...  5168.010 sec

 Time for (ab|v) I/O           ...   118.877 sec


------------------------------------
TD-DFT/TDA EXCITED STATES (SINGLETS)
------------------------------------

the weight of the individual excitations are printed if larger than 1.0e-02

STATE  1:  E=   0.162281 au      4.416 eV    35616.5 cm**-1 <S**2> =   0.000000
    77a ->  78a  :     0.902250 (c= -0.94986861)
    77a ->  79a  :     0.010457 (c= -0.10226182)

STATE  2:  E=   0.177341 au      4.826 eV    38921.8 cm**-1 <S**2> =   0.000000
    72a ->  80a  :     0.018443 (c= -0.13580375)
    72a ->  81a  :     0.016322 (c= -0.12775822)
    74a ->  78a  :     0.029333 (c=  0.17126971)
    74a ->  91a  :     0.011607 (c=  0.10773646)
    75a ->  78a  :     0.016992 (c=  0.13035396)
    75a ->  83a  :     0.011510 (c= -0.10728259)
    76a ->  78a  :     0.071991 (c=  0.26831092)
    76a ->  91a  :     0.053296 (c= -0.23085913)
    77a ->  79a  :     0.229781 (c=  0.47935452)
    77a ->  80a  :     0.098717 (c= -0.31419277)
    77a ->  81a  :     0.040406 (c= -0.20101146)
    77a ->  83a  :     0.279762 (c=  0.52892537)

STATE  3:  E=   0.178599 au      4.860 eV    39197.9 cm**-1 <S**2> =   0.000000
    73a ->  85a  :     0.011090 (c= -0.10530708)
    74a ->  78a  :     0.026910 (c= -0.16404215)
    76a ->  78a  :     0.015205 (c=  0.12330806)
    76a ->  91a  :     0.019492 (c=  0.13961453)
    77a ->  79a  :     0.024647 (c= -0.15699315)
    77a ->  80a  :     0.356116 (c= -0.59675483)
    77a ->  81a  :     0.288690 (c= -0.53729904)
    77a ->  82a  :     0.019222 (c= -0.13864223)
    77a ->  83a  :     0.103669 (c= -0.32197607)

STATE  4:  E=   0.182906 au      4.977 eV    40143.2 cm**-1 <S**2> =   0.000000
    71a ->  91a  :     0.026717 (c=  0.16345250)
    72a ->  78a  :     0.126293 (c=  0.35537680)
    74a ->  80a  :     0.045099 (c= -0.21236617)
    74a ->  81a  :     0.038895 (c= -0.19721907)
    74a ->  83a  :     0.015127 (c= -0.12299044)
    75a ->  80a  :     0.022775 (c= -0.15091289)
    75a ->  81a  :     0.020292 (c= -0.14245120)
    75a ->  91a  :     0.012329 (c=  0.11103772)
    76a ->  79a  :     0.055306 (c=  0.23517265)
    76a ->  80a  :     0.033351 (c= -0.18262351)
    76a ->  83a  :     0.231652 (c=  0.48130242)
    77a ->  85a  :     0.024861 (c= -0.15767355)
    77a ->  91a  :     0.171386 (c= -0.41398813)

STATE  5:  E=   0.188203 au      5.121 eV    41305.8 cm**-1 <S**2> =   0.000000
    73a ->  85a  :     0.012719 (c= -0.11277754)
    75a ->  85a  :     0.017306 (c=  0.13155163)
    76a ->  78a  :     0.422874 (c= -0.65028777)
    77a ->  79a  :     0.267554 (c=  0.51725657)
    77a ->  81a  :     0.020936 (c= -0.14469241)
    77a ->  84a  :     0.016816 (c=  0.12967513)
    77a ->  85a  :     0.021010 (c=  0.14494819)
    77a ->  86a  :     0.018079 (c=  0.13445850)
    77a ->  89a  :     0.023495 (c=  0.15328023)

STATE  6:  E=   0.191800 au      5.219 eV    42095.3 cm**-1 <S**2> =   0.000000
    72a ->  80a  :     0.010428 (c= -0.10211889)
    73a ->  80a  :     0.012329 (c= -0.11103422)
    73a ->  85a  :     0.035445 (c= -0.18826800)
    73a ->  90a  :     0.011616 (c=  0.10777576)
    74a ->  78a  :     0.030352 (c=  0.17421843)
    74a ->  85a  :     0.013890 (c= -0.11785697)
    75a ->  78a  :     0.055458 (c=  0.23549617)
    75a ->  80a  :     0.010365 (c= -0.10180876)
    75a ->  85a  :     0.042082 (c=  0.20513828)
    76a ->  78a  :     0.115600 (c= -0.34000069)
    76a ->  91a  :     0.022329 (c= -0.14942846)
    77a ->  79a  :     0.196752 (c= -0.44356745)
    77a ->  80a  :     0.028767 (c= -0.16960731)
    77a ->  83a  :     0.029166 (c=  0.17077935)
    77a ->  84a  :     0.024667 (c= -0.15705873)
    77a ->  85a  :     0.033364 (c=  0.18265679)
    77a ->  86a  :     0.040829 (c= -0.20206067)
    77a ->  87a  :     0.026746 (c= -0.16354114)
    77a ->  88a  :     0.014986 (c= -0.12241826)
    77a ->  90a  :     0.033859 (c=  0.18400693)

STATE  7:  E=   0.187636 au      5.106 eV    41181.3 cm**-1 <S**2> =   0.000000
    73a ->  85a  :     0.033304 (c= -0.18249504)
    73a ->  90a  :     0.029804 (c=  0.17263715)
    74a ->  85a  :     0.017076 (c= -0.13067561)
    75a ->  78a  :     0.011607 (c= -0.10773391)
    75a ->  85a  :     0.059310 (c=  0.24353717)
    76a ->  78a  :     0.209844 (c=  0.45808787)
    77a ->  80a  :     0.088199 (c=  0.29698259)
    77a ->  83a  :     0.011792 (c= -0.10858919)
    77a ->  85a  :     0.227159 (c=  0.47661189)
    77a ->  87a  :     0.030991 (c= -0.17604204)
    77a ->  89a  :     0.013137 (c=  0.11461662)
    77a ->  90a  :     0.019013 (c=  0.13788880)

STATE  8:  E=   0.193976 au      5.278 eV    42572.8 cm**-1 <S**2> =   0.000000
    73a ->  85a  :     0.089573 (c= -0.29928790)
    75a ->  87a  :     0.013298 (c= -0.11531522)
    75a ->  90a  :     0.019412 (c=  0.13932815)
    76a ->  78a  :     0.014985 (c=  0.12241176)
    76a ->  80a  :     0.025838 (c=  0.16074284)
    76a ->  81a  :     0.016303 (c=  0.12768440)
    77a ->  81a  :     0.017217 (c=  0.13121374)
    77a ->  82a  :     0.073234 (c=  0.27061782)
    77a ->  85a  :     0.304940 (c= -0.55221370)
    77a ->  86a  :     0.064189 (c=  0.25335472)
    77a ->  87a  :     0.052786 (c= -0.22975136)
    77a ->  88a  :     0.047608 (c= -0.21819320)
    77a ->  90a  :     0.052212 (c=  0.22849859)
    77a ->  92a  :     0.016443 (c=  0.12823114)

STATE  9:  E=   0.204256 au      5.558 eV    44829.0 cm**-1 <S**2> =   0.000000
    71a ->  78a  :     0.040763 (c=  0.20189757)
    72a ->  91a  :     0.020329 (c= -0.14258094)
    74a ->  78a  :     0.079936 (c= -0.28272951)
    74a ->  80a  :     0.020086 (c= -0.14172522)
    74a ->  83a  :     0.023489 (c=  0.15325968)
    75a ->  78a  :     0.033066 (c=  0.18183948)
    75a ->  83a  :     0.024801 (c=  0.15748260)
    76a ->  80a  :     0.118964 (c=  0.34491194)
    76a ->  81a  :     0.090926 (c=  0.30153929)
    76a ->  82a  :     0.018478 (c=  0.13593486)
    76a ->  83a  :     0.025891 (c=  0.16090672)
    76a ->  87a  :     0.011081 (c= -0.10526711)
    76a ->  88a  :     0.010296 (c= -0.10146734)
    77a ->  79a  :     0.020147 (c=  0.14194023)
    77a ->  81a  :     0.029649 (c=  0.17218827)
    77a ->  82a  :     0.024441 (c= -0.15633686)
    77a ->  84a  :     0.015213 (c= -0.12334190)
    77a ->  85a  :     0.067969 (c=  0.26070809)
    77a ->  92a  :     0.017436 (c=  0.13204416)
    77a ->  95a  :     0.079531 (c=  0.28201259)
    77a ->  97a  :     0.045059 (c= -0.21226996)

STATE 10:  E=   0.207377 au      5.643 eV    45514.0 cm**-1 <S**2> =   0.000000
    76a ->  79a  :     0.108373 (c=  0.32920103)
    77a ->  80a  :     0.051579 (c= -0.22710957)
    77a ->  82a  :     0.526373 (c=  0.72551589)
    77a ->  85a  :     0.054029 (c=  0.23244190)
    77a ->  87a  :     0.029808 (c= -0.17265040)
    77a ->  89a  :     0.011350 (c= -0.10653417)
    77a ->  90a  :     0.060017 (c= -0.24498350)
    77a ->  98a  :     0.016315 (c= -0.12773160)


-----------------------------
TD-DFT/TDA-EXCITATION SPECTRA
-----------------------------

Center of mass = ( -0.0102, -0.0071, -0.0666)
Calculating the Dipole integrals                  ... done
Transforming integrals                            ... done
Calculating the Linear Momentum integrals         ... done
Transforming integrals                            ... done
Calculating angular momentum integrals            ... done
Transforming integrals                            ... done

-----------------------------------------------------------------------------
         ABSORPTION SPECTRUM VIA TRANSITION ELECTRIC DIPOLE MOMENTS
-----------------------------------------------------------------------------
State   Energy    Wavelength  fosc         T2        TX        TY        TZ  
        (cm-1)      (nm)                 (au**2)    (au)      (au)      (au) 
-----------------------------------------------------------------------------
   1   35616.5    280.8   0.000964304   0.00891   0.06354  -0.05480   0.04327
   2   38921.8    256.9   0.153458049   1.29799   1.12051  -0.13907  -0.15200
   3   39197.9    255.1   0.615048983   5.16562   2.24551  -0.17959  -0.30174
   4   40143.2    249.1   0.004205669   0.03449   0.01159   0.17988   0.04470
   5   41305.8    242.1   0.150991097   1.20342  -1.08669   0.01081   0.14969
   6   42095.3    237.6   0.106946043   0.83639  -0.91026   0.00282   0.08837
   7   41181.3    242.8   0.029567492   0.23637   0.36503   0.15952  -0.27871
   8   42572.8    234.9   0.045517700   0.35198   0.12948  -0.42895   0.38887
   9   44829.0    223.1   0.117163079   0.86041   0.11112  -0.91296   0.12074
  10   45514.0    219.7   0.020627835   0.14921  -0.24247   0.00211  -0.30068

-----------------------------------------------------------------------------
         ABSORPTION SPECTRUM VIA TRANSITION VELOCITY DIPOLE MOMENTS
-----------------------------------------------------------------------------
State   Energy    Wavelength   fosc        P2         PX        PY        PZ  
        (cm-1)      (nm)                 (au**2)     (au)      (au)      (au) 
-----------------------------------------------------------------------------
   1   35616.5    280.8   0.062515124   0.01522  -0.00302   0.12139  -0.02175
   2   38921.8    256.9   0.093837985   0.02496  -0.15699   0.01704   0.00499
   3   39197.9    255.1   0.321521768   0.08614  -0.29273   0.01666   0.01302
   4   40143.2    249.1   0.001501192   0.00041   0.00228  -0.01481   0.01369
   5   41305.8    242.1   0.082185150   0.02320   0.15205   0.00417  -0.00807
   6   42095.3    237.6   0.066845639   0.01923   0.13821   0.00098  -0.01139
   7   41181.3    242.8   0.006987689   0.00197  -0.03468  -0.02687   0.00647
   8   42572.8    234.9   0.020878249   0.00607  -0.04159   0.05464  -0.03687
   9   44829.0    223.1   0.052807002   0.01618  -0.01098   0.12368  -0.02761
  10   45514.0    219.7   0.016656827   0.00518   0.05156   0.00292   0.05014

-------------------------------------------------------------------
                             CD SPECTRUM
-------------------------------------------------------------------
State  Energy     Wavelength     R         MX        MY        MZ   
       (cm-1)       (nm)     (1e40*cgs)   (au)      (au)      (au)  
-------------------------------------------------------------------
   1   35616.5    280.8     -7.21318  -0.11476  -0.13854  -0.36055
   2   38921.8    256.9     22.90350   0.02414  -0.15185  -0.00270
   3   39197.9    255.1     19.80903   0.00205  -0.25506   0.02780
   4   40143.2    249.1     -2.29968  -0.02944   0.00908  -0.13802
   5   41305.8    242.1    -41.40790   0.07479   0.22745  -0.06023
   6   42095.3    237.6     41.23211  -0.09632   0.23836  -0.01011
   7   41181.3    242.8     25.89981   0.07110   0.16650  -0.00869
   8   42572.8    234.9     54.77950  -0.04478  -0.30490  -0.02262
   9   44829.0    223.1    -30.81592  -0.08994   0.04731  -0.10087
  10   45514.0    219.7     37.39176  -0.04308   0.01941  -0.22890

-------------------------------------------------------------------
         CD SPECTRUM VIA TRANSITION VELOCITY DIPOLE MOMENTS        
-------------------------------------------------------------------
State  Energy     Wavelength     R         MX        MY        MZ   
       (cm-1)       (nm)     (1e40*cgs)   (au)      (au)      (au)  
-------------------------------------------------------------------
   1   35616.5    280.8    -25.06919  -0.11476  -0.13854  -0.36055
   2   38921.8    256.9    -16.99241   0.02414  -0.15185  -0.00270
   3   39197.9    255.1    -11.84231   0.00205  -0.25506   0.02780
   4   40143.2    249.1     -5.38929  -0.02944   0.00908  -0.13802
   5   41305.8    242.1     32.08232   0.07479   0.22745  -0.06023
   6   42095.3    237.6    -31.86763  -0.09632   0.23836  -0.01011
   7   41181.3    242.8    -17.57711   0.07110   0.16650  -0.00869
   8   42572.8    234.9    -33.94040  -0.04478  -0.30490  -0.02262
   9   44829.0    223.1     22.21379  -0.08994   0.04731  -0.10087
  10   45514.0    219.7    -31.01290  -0.04308   0.01941  -0.22890

Total run time:    18982.222 sec

           *** ORCA-CIS/TD-DFT FINISHED WITHOUT ERROR ***

Maximum memory used throughout the entire CIS-calculation: 2076.5 MB

-----------------------
CIS/TD-DFT TOTAL ENERGY
-----------------------

    E(SCF)  =   -885.612753743 Eh
    DE(CIS) =      0.162280798 Eh (Root  1)
    ----------------------------- ---------
    E(tot)  =   -885.450472945 Eh



-------------------------------------------------------------------------------
                          DFT DISPERSION CORRECTION                            
                                                                               
                              DFTD3 V3.1  Rev 1                                
                          USING Becke-Johnson damping                          
-------------------------------------------------------------------------------
The B2PLYP functional is recognized
Active option DFTDOPT                   ...         4   

molecular C6(AA) [au] = 21289.264654 


            DFT-D V3
 parameters
 s6 scaling factor         :     0.6400 
 a1 scaling factor         :     0.3065 
 s8 scaling factor         :     0.9147 
 a2 scaling factor         :     5.0570 
 ad hoc parameters k1-k3   :    16.0000     1.3333    -4.0000 

 Edisp/kcal,au: -28.903417541907  -0.046060522834 
 E6   /kcal   : -16.180449499 
 E8   /kcal   : -12.722968042 
 % E8         :  44.018905460 

-------------------------   ----------------
Dispersion correction           -0.046060523
-------------------------   ----------------


-------------------------   --------------------
FINAL SINGLE POINT ENERGY      -885.496533467877
-------------------------   --------------------


                            ***************************************
                            *     ORCA property calculations      *
                            ***************************************


  WARNING: The energy has been calculated at the MP2 level but the densities
           used in the property calculations are still SCF densities
           MP2 response densities have not been calculated 
           use %mp2 Density relaxed end
           or  %mp2 Density unrelaxed end

                                    ---------------------
                                    Active property flags
                                    ---------------------
   (+) Dipole Moment


------------------------------------------------------------------------------
                       ORCA ELECTRIC PROPERTIES CALCULATION
------------------------------------------------------------------------------

Dipole Moment Calculation                       ... on
Quadrupole Moment Calculation                   ... off
Polarizability Calculation                      ... off
GBWName                                         ... optpbed3-b2plyp-test-406_job2.gbw
Electron density                                ... optpbed3-b2plyp-test-406_job2.scfp
The origin for moment calculation is the CENTER OF MASS  = (-0.010192, -0.007114 -0.066606)

-------------
DIPOLE MOMENT
-------------
                                X             Y             Z
Electronic contribution:     -0.18632      -0.17673      -1.57481
Nuclear contribution   :      0.22637       0.15857       1.48006
                        -----------------------------------------
Total Dipole Moment    :      0.04005      -0.01816      -0.09475
                        -----------------------------------------
Magnitude (a.u.)       :      0.10445
Magnitude (Debye)      :      0.26550



--------------------
Rotational spectrum 
--------------------
 
Rotational constants in cm-1:     0.012254     0.005767     0.004420 
Rotational constants in MHz :   367.375141   172.892364   132.509903 

 Dipole components along the rotational axes: 
x,y,z [a.u.] :     0.038721    -0.004065    -0.096925 
x,y,z [Debye]:     0.098421    -0.010333    -0.246363 

 

Timings for individual modules:

Sum of individual times         ...    22479.147 sec (= 374.652 min)
GTO integral calculation        ...        7.569 sec (=   0.126 min)   0.0 %
SCF iterations                  ...     1459.951 sec (=  24.333 min)   6.5 %
MP2 module                      ...     2025.239 sec (=  33.754 min)   9.0 %
CIS module                      ...    18986.388 sec (= 316.440 min)  84.5 %



                             ****ORCA TERMINATED NORMALLY****
TOTAL RUN TIME: 0 days 10 hours 5 minutes 35 seconds 273 msec
