
                                 *****************
                                 * O   R   C   A *
                                 *****************

                                            #,                                       
                                            ###                                      
                                            ####                                     
                                            #####                                    
                                            ######                                   
                                           ########,                                 
                                     ,,################,,,,,                         
                               ,,#################################,,                 
                          ,,##########################################,,             
                       ,#########################################, ''#####,          
                    ,#############################################,,   '####,        
                  ,##################################################,,,,####,       
                ,###########''''           ''''###############################       
              ,#####''   ,,,,##########,,,,          '''####'''          '####       
            ,##' ,,,,###########################,,,                        '##       
           ' ,,###''''                  '''############,,,                           
         ,,##''                                '''############,,,,        ,,,,,,###''
      ,#''                                            '''#######################'''  
     '                                                          ''''####''''         
             ,#######,   #######,   ,#######,      ##                                
            ,#'     '#,  ##    ##  ,#'     '#,    #''#        ######   ,####,        
            ##       ##  ##   ,#'  ##            #'  '#       #        #'  '#        
            ##       ##  #######   ##           ,######,      #####,   #    #        
            '#,     ,#'  ##    ##  '#,     ,#' ,#      #,         ##   #,  ,#        
             '#######'   ##     ##  '#######'  #'      '#     #####' # '####'        



                  #######################################################
                  #                        -***-                        #
                  #          Department of theory and spectroscopy      #
                  #    Directorship and core code : Frank Neese         #
                  #        Max Planck Institute fuer Kohlenforschung    #
                  #                Kaiser Wilhelm Platz 1               #
                  #                 D-45470 Muelheim/Ruhr               #
                  #                      Germany                        #
                  #                                                     #
                  #                  All rights reserved                #
                  #                        -***-                        #
                  #######################################################


                         Program Version 5.0.2 -  RELEASE  -


 With contributions from (in alphabetic order):
   Daniel Aravena         : Magnetic Suceptibility
   Michael Atanasov       : Ab Initio Ligand Field Theory (pilot matlab implementation)
   Alexander A. Auer      : GIAO ZORA, VPT2 properties, NMR spectrum
   Ute Becker             : Parallelization
   Giovanni Bistoni       : ED, misc. LED, open-shell LED, HFLD
   Martin Brehm           : Molecular dynamics
   Dmytro Bykov           : SCF Hessian
   Vijay G. Chilkuri      : MRCI spin determinant printing, contributions to CSF-ICE
   Dipayan Datta          : RHF DLPNO-CCSD density
   Achintya Kumar Dutta   : EOM-CC, STEOM-CC
   Dmitry Ganyushin       : Spin-Orbit,Spin-Spin,Magnetic field MRCI
   Miquel Garcia          : C-PCM and meta-GGA Hessian, CC/C-PCM, Gaussian charge scheme
   Yang Guo               : DLPNO-NEVPT2, F12-NEVPT2, CIM, IAO-localization
   Andreas Hansen         : Spin unrestricted coupled pair/coupled cluster methods
   Benjamin Helmich-Paris : MC-RPA, TRAH-SCF, COSX integrals
   Lee Huntington         : MR-EOM, pCC
   Robert Izsak           : Overlap fitted RIJCOSX, COSX-SCS-MP3, EOM
   Marcus Kettner         : VPT2
   Christian Kollmar      : KDIIS, OOCD, Brueckner-CCSD(T), CCSD density, CASPT2, CASPT2-K
   Simone Kossmann        : Meta GGA functionals, TD-DFT gradient, OOMP2, MP2 Hessian
   Martin Krupicka        : Initial AUTO-CI
   Lucas Lang             : DCDCAS
   Marvin Lechner         : AUTO-CI (C++ implementation), FIC-MRCC
   Dagmar Lenk            : GEPOL surface, SMD
   Dimitrios Liakos       : Extrapolation schemes; Compound Job, initial MDCI parallelization
   Dimitrios Manganas     : Further ROCIS development; embedding schemes
   Dimitrios Pantazis     : SARC Basis sets
   Anastasios Papadopoulos: AUTO-CI, single reference methods and gradients
   Taras Petrenko         : DFT Hessian,TD-DFT gradient, ASA, ECA, R-Raman, ABS, FL, XAS/XES, NRVS
   Peter Pinski           : DLPNO-MP2, DLPNO-MP2 Gradient
   Christoph Reimann      : Effective Core Potentials
   Marius Retegan         : Local ZFS, SOC
   Christoph Riplinger    : Optimizer, TS searches, QM/MM, DLPNO-CCSD(T), (RO)-DLPNO pert. Triples
   Tobias Risthaus        : Range-separated hybrids, TD-DFT gradient, RPA, STAB
   Michael Roemelt        : Original ROCIS implementation
   Masaaki Saitow         : Open-shell DLPNO-CCSD energy and density
   Barbara Sandhoefer     : DKH picture change effects
   Avijit Sen             : IP-ROCIS
   Kantharuban Sivalingam : CASSCF convergence, NEVPT2, FIC-MRCI
   Bernardo de Souza      : ESD, SOC TD-DFT
   Georgi Stoychev        : AutoAux, RI-MP2 NMR, DLPNO-MP2 response
   Willem Van den Heuvel  : Paramagnetic NMR
   Boris Wezisla          : Elementary symmetry handling
   Frank Wennmohs         : Technical directorship


 We gratefully acknowledge several colleagues who have allowed us to
 interface, adapt or use parts of their codes:
   Stefan Grimme, W. Hujo, H. Kruse, P. Pracht,  : VdW corrections, initial TS optimization,
                  C. Bannwarth, S. Ehlert          DFT functionals, gCP, sTDA/sTD-DF
   Ed Valeev, F. Pavosevic, A. Kumar             : LibInt (2-el integral package), F12 methods
   Garnet Chan, S. Sharma, J. Yang, R. Olivares  : DMRG
   Ulf Ekstrom                                   : XCFun DFT Library
   Mihaly Kallay                                 : mrcc  (arbitrary order and MRCC methods)
   Jiri Pittner, Ondrej Demel                    : Mk-CCSD
   Frank Weinhold                                : gennbo (NPA and NBO analysis)
   Christopher J. Cramer and Donald G. Truhlar   : smd solvation model
   Lars Goerigk                                  : TD-DFT with DH, B97 family of functionals
   V. Asgeirsson, H. Jonsson                     : NEB implementation
   FAccTs GmbH                                   : IRC, NEB, NEB-TS, DLPNO-Multilevel, CI-OPT
                                                   MM, QMMM, 2- and 3-layer-ONIOM, Crystal-QMMM,
                                                   LR-CPCM, SF, NACMEs, symmetry and pop. for TD-DFT,
                                                   nearIR, NL-DFT gradient (VV10), updates on ESD,
                                                   ML-optimized integration grids
   S Lehtola, MJT Oliveira, MAL Marques          : LibXC Library
   Liviu Ungur et al                             : ANISO software


 Your calculation uses the libint2 library for the computation of 2-el integrals
 For citations please refer to: http://libint.valeyev.net

 Your ORCA version has been built with support for libXC version: 5.1.0
 For citations please refer to: https://tddft.org/programs/libxc/

 This ORCA versions uses:
   CBLAS   interface :  Fast vector & matrix operations
   LAPACKE interface :  Fast linear algebra routines
   SCALAPACK package :  Parallel linear algebra routines
   Shared memory     :  Shared parallel matrices
   BLAS/LAPACK       :  OpenBLAS 0.3.15  USE64BITINT DYNAMIC_ARCH NO_AFFINITY Haswell SINGLE_THREADED
        Core in use  :  Haswell
   Copyright (c) 2011-2014, The OpenBLAS Project


Your calculation utilizes the atom-pairwise dispersion correction
with the Becke-Johnson damping scheme (D3BJ)
Cite in your paper:
S.Grimme, S.Ehrlich, L.Goerigk, J Comput Chem, (2011), 32, 1456–1465 
S.Grimme, J.Antony, S.Ehrlich and H.Krieg, J.Chem.Phys., 132, (2010), 154104 
   

Your calculation utilizes the SMD solvation module
Please cite in your paper:
A.V. Marenich, C.J. Cramer, D.G. Truhlar J. Phys. Chem. B, 113, (2009), 6378 

================================================================================

----- Orbital basis set information -----
Your calculation utilizes the basis: aug-cc-pVTZ 
    H, B-Ne : Obtained from the ccRepo (grant-hill.group.shef.ac.uk/ccrepo) Feb. 2017
              R. A. Kendall, T. H. Dunning, Jr., R. J. Harrison, J. Chem. Phys. 96, 6796 (1992)
         He : Obtained from the ccRepo (grant-hill.group.shef.ac.uk/ccrepo) Feb. 2017
              D. E. Woon, T. H. Dunning, Jr., J. Chem. Phys. 100, 2975 (1994)
  Li-Be, Na : Obtained from the ccRepo (grant-hill.group.shef.ac.uk/ccrepo) Feb. 2017
              B. P. Prascher, D. E. Woon, K. A. Peterson, T. H. Dunning, Jr., A. K. Wilson, Theor. Chem. Acc. 128, 69 (2011)
         Mg : Obtained from the Peterson Research Group Website (tyr0.chem.wsu.edu/~kipeters) Feb. 2017
              B. P. Prascher, D. E. Woon, K. A. Peterson, T. H. Dunning, Jr., A. K. Wilson, Theor. Chem. Acc. 128, 69 (2011)
      Al-Ar : Obtained from the ccRepo (grant-hill.group.shef.ac.uk/ccrepo) Feb. 2017
              D. E. Woon, T. H. Dunning, Jr., J. Chem. Phys. 98, 1358 (1993)
      Sc-Zn : Obtained from the ccRepo (grant-hill.group.shef.ac.uk/ccrepo) Feb. 2017
              N. B. Balabanov, K. A. Peterson, J. Chem. Phys. 123, 064107 (2005)
              N. B. Balabanov, K. A. Peterson, J. Chem. Phys. 125, 074110 (2006)
      Ga-Kr : Obtained from the ccRepo (grant-hill.group.shef.ac.uk/ccrepo) Feb. 2017
              A. K. Wilson, D. E. Woon, K. A. Peterson, T. H. Dunning, Jr., J. Chem. Phys. 110, 7667 (1999)
     Ag, Au : Obtained from the Peterson Research Group Website (tyr0.chem.wsu.edu/~kipeters) Feb. 2017
              K. A. Peterson, C. Puzzarini, Theor. Chem. Acc. 114, 283 (2005)

The basis set includes element-specific modifications.

Your calculation utilizes the basis: cc-pVTZ 
       H, B-Ne : Obtained from the ccRepo (grant-hill.group.shef.ac.uk/ccrepo) Feb. 2017
                 T. H. Dunning, Jr., J. Chem. Phys. 90, 1007 (1989)
            He : Obtained from the ccRepo (grant-hill.group.shef.ac.uk/ccrepo) Feb. 2017
                 D. E. Woon, T. H. Dunning, Jr., J. Chem. Phys. 100, 2975 (1994)
  Li-Be, Na-Mg : Obtained from the ccRepo (grant-hill.group.shef.ac.uk/ccrepo) Feb. 2017
                 B. P. Prascher, D. E. Woon, K. A. Peterson, T. H. Dunning, Jr., A. K. Wilson, Theor. Chem. Acc. 128, 69 (2011)
         Al-Ar : Obtained from the ccRepo (grant-hill.group.shef.ac.uk/ccrepo) Feb. 2017
                 D. E. Woon, T. H. Dunning, Jr., J. Chem. Phys. 98, 1358 (1993)
            Ca : Obtained from the Peterson Research Group Website (tyr0.chem.wsu.edu/~kipeters) Feb. 2017
                 J. Koput, K. A. Peterson, J. Phys. Chem. 106, 9595 (2002)
         Sc-Zn : Obtained from the ccRepo (grant-hill.group.shef.ac.uk/ccrepo) Feb. 2017
                 N. B. Balabanov, K. A. Peterson, J. Chem. Phys. 123, 064107 (2005)
                 N. B. Balabanov, K. A. Peterson, J. Chem. Phys. 125, 074110 (2006)
         Ga-Kr : Obtained from the ccRepo (grant-hill.group.shef.ac.uk/ccrepo) Feb. 2017
                 A. K. Wilson, D. E. Woon, K. A. Peterson, T. H. Dunning, Jr., J. Chem. Phys. 110, 7667 (1999)
             Y : Obtained from the ccRepo (grant-hill.group.shef.ac.uk/ccrepo) Feb. 2017
                 K. A. Peterson, D. Figgen, M. Dolg, H. Stoll, J. Chem. Phys. 126, 124101 (2007)
        Ag, Au : Obtained from the Peterson Research Group Website (tyr0.chem.wsu.edu/~kipeters) Feb. 2017
                 K. A. Peterson, C. Puzzarini, Theor. Chem. Acc. 114, 283 (2005)

----- AuxJ basis set information -----
Your calculation utilizes the auxiliary basis: aug-cc-pVTZ/JK 
  H, B-F, Al-Cl, Ga-Br : Obtained from the TURBOMOLE 7.0 basis set library

The basis set includes element-specific modifications.

Your calculation utilizes the auxiliary basis: cc-pVTZ/JK 
  H, B-F, Al-Cl, Ga-Br : Obtained from the TURBOMOLE 7.0 basis set library

----- AuxC basis set information -----
Your calculation utilizes the auxiliary basis: aug-cc-pVTZ/C 
  H-He, B-F, Al-Ar, Ga-Kr : Obtained from the EMSL Basis Set Exchange (bse.pnl.gov) Feb. 2017
                            F. Weigend, A. Kohn, C. Hattig, J. Chem. Phys. 116, 3175 (2002)
                   Be, Mg : Obtained from the TURBOMOLE 7.0 basis set library
                            C. Haettig, Phys. Chem. Chem. Phys. 7, 59 (2005)
                       Ne : Obtained from the EMSL Basis Set Exchange (bse.pnl.gov) Feb. 2017
                            C. Haettig, Phys. Chem. Chem. Phys. 7, 59 (2005)
                            F. Weigend, A. Kohn, C. Hattig, J. Chem. Phys. 116, 3175 (2002)
                    Sc-Zn : Obtained from the EMSL Basis Set Exchange (bse.pnl.gov) Feb. 2017
                            J. G. Hill, J. A. Platts, J. Chem. Phys. 128, 044104 (2008)

The basis set includes element-specific modifications.

Your calculation utilizes the auxiliary basis: cc-pVTZ/C 
  Obtained from the EMSL Basis Set Exchange (bse.pnl.gov) Feb. 2017
  H-He, B-F, Al-Ar, Ga-Kr : F. Weigend, A. Kohn, C. Hattig, J. Chem. Phys. 116, 3175 (2002)
             Li-Be, Na-Mg : C. Haettig, Phys. Chem. Chem. Phys. 7, 59 (2005)
                       Ne : C. Haettig, Phys. Chem. Chem. Phys. 7, 59 (2005)
                            F. Weigend, A. Kohn, C. Hattig, J. Chem. Phys. 116, 3175 (2002)
                    Sc-Zn : J. G. Hill, J. A. Platts, J. Chem. Phys. 128, 044104 (2008)

================================================================================
                                        WARNINGS
                       Please study these warnings very carefully!
================================================================================


WARNING: Geometry Optimization
  ===> : Switching off AutoStart
         For restart on a previous wavefunction, please use MOREAD

INFO   : the flag for use of the SHARK integral package has been found!



***************************************
The coordinates will be read from file: 
***************************************


Your calculation utilizes the atom-pairwise dispersion correction
with the Becke-Johnson damping scheme (D3BJ)
Cite in your paper:
S.Grimme, S.Ehrlich, L.Goerigk, J Comput Chem, (2011), 32, 1456–1465 
S.Grimme, J.Antony, S.Ehrlich and H.Krieg, J.Chem.Phys., 132, (2010), 154104 
   

Your calculation utilizes the SMD solvation module
Please cite in your paper:
A.V. Marenich, C.J. Cramer, D.G. Truhlar J. Phys. Chem. B, 113, (2009), 6378 

================================================================================

----- Orbital basis set information -----
Your calculation utilizes the basis: aug-cc-pVTZ 
    H, B-Ne : Obtained from the ccRepo (grant-hill.group.shef.ac.uk/ccrepo) Feb. 2017
              R. A. Kendall, T. H. Dunning, Jr., R. J. Harrison, J. Chem. Phys. 96, 6796 (1992)
         He : Obtained from the ccRepo (grant-hill.group.shef.ac.uk/ccrepo) Feb. 2017
              D. E. Woon, T. H. Dunning, Jr., J. Chem. Phys. 100, 2975 (1994)
  Li-Be, Na : Obtained from the ccRepo (grant-hill.group.shef.ac.uk/ccrepo) Feb. 2017
              B. P. Prascher, D. E. Woon, K. A. Peterson, T. H. Dunning, Jr., A. K. Wilson, Theor. Chem. Acc. 128, 69 (2011)
         Mg : Obtained from the Peterson Research Group Website (tyr0.chem.wsu.edu/~kipeters) Feb. 2017
              B. P. Prascher, D. E. Woon, K. A. Peterson, T. H. Dunning, Jr., A. K. Wilson, Theor. Chem. Acc. 128, 69 (2011)
      Al-Ar : Obtained from the ccRepo (grant-hill.group.shef.ac.uk/ccrepo) Feb. 2017
              D. E. Woon, T. H. Dunning, Jr., J. Chem. Phys. 98, 1358 (1993)
      Sc-Zn : Obtained from the ccRepo (grant-hill.group.shef.ac.uk/ccrepo) Feb. 2017
              N. B. Balabanov, K. A. Peterson, J. Chem. Phys. 123, 064107 (2005)
              N. B. Balabanov, K. A. Peterson, J. Chem. Phys. 125, 074110 (2006)
      Ga-Kr : Obtained from the ccRepo (grant-hill.group.shef.ac.uk/ccrepo) Feb. 2017
              A. K. Wilson, D. E. Woon, K. A. Peterson, T. H. Dunning, Jr., J. Chem. Phys. 110, 7667 (1999)
     Ag, Au : Obtained from the Peterson Research Group Website (tyr0.chem.wsu.edu/~kipeters) Feb. 2017
              K. A. Peterson, C. Puzzarini, Theor. Chem. Acc. 114, 283 (2005)

The basis set includes element-specific modifications.

Your calculation utilizes the basis: cc-pVTZ 
       H, B-Ne : Obtained from the ccRepo (grant-hill.group.shef.ac.uk/ccrepo) Feb. 2017
                 T. H. Dunning, Jr., J. Chem. Phys. 90, 1007 (1989)
            He : Obtained from the ccRepo (grant-hill.group.shef.ac.uk/ccrepo) Feb. 2017
                 D. E. Woon, T. H. Dunning, Jr., J. Chem. Phys. 100, 2975 (1994)
  Li-Be, Na-Mg : Obtained from the ccRepo (grant-hill.group.shef.ac.uk/ccrepo) Feb. 2017
                 B. P. Prascher, D. E. Woon, K. A. Peterson, T. H. Dunning, Jr., A. K. Wilson, Theor. Chem. Acc. 128, 69 (2011)
         Al-Ar : Obtained from the ccRepo (grant-hill.group.shef.ac.uk/ccrepo) Feb. 2017
                 D. E. Woon, T. H. Dunning, Jr., J. Chem. Phys. 98, 1358 (1993)
            Ca : Obtained from the Peterson Research Group Website (tyr0.chem.wsu.edu/~kipeters) Feb. 2017
                 J. Koput, K. A. Peterson, J. Phys. Chem. 106, 9595 (2002)
         Sc-Zn : Obtained from the ccRepo (grant-hill.group.shef.ac.uk/ccrepo) Feb. 2017
                 N. B. Balabanov, K. A. Peterson, J. Chem. Phys. 123, 064107 (2005)
                 N. B. Balabanov, K. A. Peterson, J. Chem. Phys. 125, 074110 (2006)
         Ga-Kr : Obtained from the ccRepo (grant-hill.group.shef.ac.uk/ccrepo) Feb. 2017
                 A. K. Wilson, D. E. Woon, K. A. Peterson, T. H. Dunning, Jr., J. Chem. Phys. 110, 7667 (1999)
             Y : Obtained from the ccRepo (grant-hill.group.shef.ac.uk/ccrepo) Feb. 2017
                 K. A. Peterson, D. Figgen, M. Dolg, H. Stoll, J. Chem. Phys. 126, 124101 (2007)
        Ag, Au : Obtained from the Peterson Research Group Website (tyr0.chem.wsu.edu/~kipeters) Feb. 2017
                 K. A. Peterson, C. Puzzarini, Theor. Chem. Acc. 114, 283 (2005)

----- AuxJ basis set information -----
Your calculation utilizes the auxiliary basis: aug-cc-pVTZ/JK 
  H, B-F, Al-Cl, Ga-Br : Obtained from the TURBOMOLE 7.0 basis set library

The basis set includes element-specific modifications.

Your calculation utilizes the auxiliary basis: cc-pVTZ/JK 
  H, B-F, Al-Cl, Ga-Br : Obtained from the TURBOMOLE 7.0 basis set library

----- AuxC basis set information -----
Your calculation utilizes the auxiliary basis: aug-cc-pVTZ/C 
  H-He, B-F, Al-Ar, Ga-Kr : Obtained from the EMSL Basis Set Exchange (bse.pnl.gov) Feb. 2017
                            F. Weigend, A. Kohn, C. Hattig, J. Chem. Phys. 116, 3175 (2002)
                   Be, Mg : Obtained from the TURBOMOLE 7.0 basis set library
                            C. Haettig, Phys. Chem. Chem. Phys. 7, 59 (2005)
                       Ne : Obtained from the EMSL Basis Set Exchange (bse.pnl.gov) Feb. 2017
                            C. Haettig, Phys. Chem. Chem. Phys. 7, 59 (2005)
                            F. Weigend, A. Kohn, C. Hattig, J. Chem. Phys. 116, 3175 (2002)
                    Sc-Zn : Obtained from the EMSL Basis Set Exchange (bse.pnl.gov) Feb. 2017
                            J. G. Hill, J. A. Platts, J. Chem. Phys. 128, 044104 (2008)

The basis set includes element-specific modifications.

Your calculation utilizes the auxiliary basis: cc-pVTZ/C 
  Obtained from the EMSL Basis Set Exchange (bse.pnl.gov) Feb. 2017
  H-He, B-F, Al-Ar, Ga-Kr : F. Weigend, A. Kohn, C. Hattig, J. Chem. Phys. 116, 3175 (2002)
             Li-Be, Na-Mg : C. Haettig, Phys. Chem. Chem. Phys. 7, 59 (2005)
                       Ne : C. Haettig, Phys. Chem. Chem. Phys. 7, 59 (2005)
                            F. Weigend, A. Kohn, C. Hattig, J. Chem. Phys. 116, 3175 (2002)
                    Sc-Zn : J. G. Hill, J. A. Platts, J. Chem. Phys. 128, 044104 (2008)

================================================================================
                                        WARNINGS
                       Please study these warnings very carefully!
================================================================================

INFO   : Checking CIS options ...
  ===> : (D) CORRECTION FOUND - SETTING MODE=3
  ===> : JK MODE FOUND - ACTIVATING RI-MP2 CODE
  ===> : MP2 AND CIS FOUND - CHECKING
WARNING: CIS(D) and MP2 runs must have the same orbital window
  ===> : adjusting orbital windows

WARNING: No MP2 level density has been requested!
         To caclulate MP2 level properties use
         %mp2 Density relaxed end
         or
         %mp2 Density unrelaxed end
         Otherwise for double-hybrid DFT only the energy is correct!

WARNING: The frozen-core approximation is turned on by default for 
         the MP2 part of double-hybrid DFT.

INFO   : the flag for use of the SHARK integral package has been found!

================================================================================
                                       INPUT FILE
================================================================================
NAME = optpbed3-b2plyp-test-540.inp
|  1> ! pbe0 d3bj aug-cc-PVTZ RIJCOSX Opt
|  2> %maxcore 4000
|  3> %basis
|  4>  AuxJ "aug-cc-PVTZ/JK"
|  5>  AuxC "aug-cc-PVTZ/C"
|  6>  newGTO H "cc-PVTZ" end
|  7>  newAuxJGTO H "cc-PVTZ/JK" end
|  8>  newAuxCGTO H "cc-PVTZ/C" end
|  9> end
| 10> %cpcm
| 11>  SMD true
| 12>  SMDsolvent "cyclohexane"
| 13> end
| 14> %pal nprocs 4 end
| 15> * xyz 0 1
| 16> C          2.02580        5.19820        2.38380
| 17> N          2.41090        4.44770        1.21390
| 18> C          3.48260        4.95140        0.38990
| 19> C          1.77840        3.28540        0.89520
| 20> C          2.20520        2.48850       -0.18470
| 21> C          1.56950        1.31710       -0.50750
| 22> C          0.46220        0.85630        0.22280
| 23> C         -0.24870       -0.34900       -0.05130
| 24> C         -0.05010       -1.28600       -1.02610
| 25> C          0.95450       -1.24130       -2.01260
| 26> N          1.74870       -1.26550       -2.84290
| 27> C         -0.91740       -2.43660       -1.09200
| 28> N         -1.89330       -2.66420       -0.28500
| 29> C         -2.54470       -3.82000       -0.57300
| 30> C         -3.63920       -4.33550        0.11850
| 31> C         -4.19020       -5.52670       -0.30030
| 32> C         -3.67180       -6.21560       -1.39580
| 33> C         -2.58790       -5.72530       -2.09740
| 34> C         -2.02810       -4.52910       -1.68360
| 35> S         -0.67620       -3.66820       -2.35270
| 36> C          0.03810        1.65360        1.30060
| 37> C          0.66840        2.82550        1.63000
| 38> H          2.03930        4.56480        3.27450
| 39> H          1.02390        5.62580        2.27310
| 40> H          2.72820        6.01290        2.54060
| 41> H          3.16770        5.02750       -0.65380
| 42> H          4.36530        4.30600        0.44300
| 43> H          3.76560        5.94480        0.72900
| 44> H          3.05490        2.78600       -0.77620
| 45> H          1.93630        0.74030       -1.34030
| 46> H         -1.07820       -0.56570        0.61120
| 47> H         -4.03180       -3.79420        0.96450
| 48> H         -5.03850       -5.93660        0.22740
| 49> H         -4.12400       -7.14710       -1.70140
| 50> H         -2.18350       -6.25500       -2.94580
| 51> H         -0.81300        1.33250        1.88430
| 52> H          0.29140        3.39750        2.46170
| 53> *
| 54> 
| 55> 
| 56> $new_job
| 57> ! b2plyp aug-cc-PVTZ RIJCOSX SP
| 58> %maxcore 4000
| 59> %basis
| 60>  AuxJ "aug-cc-PVTZ/JK"
| 61>  AuxC "aug-cc-PVTZ/C"
| 62>  newGTO H "cc-PVTZ" end
| 63>  newAuxJGTO H "cc-PVTZ/JK" end
| 64>  newAuxCGTO H "cc-PVTZ/C" end
| 65> end
| 66> %cpcm
| 67>  SMD true
| 68>  SMDsolvent "cyclohexane"
| 69> end
| 70> %pal nprocs 4 end
| 71> %tddft
| 72>  nroots 10
| 73>  maxdim 7
| 74> end
| 75> * xyzfile 0 1
| 76> 
| 77>                          ****END OF INPUT****
================================================================================


                 $$$$$$$$$$$$$$$$$$$$$$$$$$$$$$$$$$$$$$$$$$$$$$ 
                 $ THERE ARE  2 JOBS TO BE PROCESSED THIS RUN $
                 $$$$$$$$$$$$$$$$$$$$$$$$$$$$$$$$$$$$$$$$$$$$$$ 




                 $$$$$$$$$$$$$$$$  JOB NUMBER  1 $$$$$$$$$$$$$$


                       *****************************
                       * Geometry Optimization Run *
                       *****************************

Geometry optimization settings:
Update method            Update   .... BFGS
Choice of coordinates    CoordSys .... Z-matrix Internals
Initial Hessian          InHess   .... Almoef's Model

Convergence Tolerances:
Energy Change            TolE     ....  5.0000e-06 Eh
Max. Gradient            TolMAXG  ....  3.0000e-04 Eh/bohr
RMS Gradient             TolRMSG  ....  1.0000e-04 Eh/bohr
Max. Displacement        TolMAXD  ....  4.0000e-03 bohr
RMS Displacement         TolRMSD  ....  2.0000e-03 bohr
Strict Convergence                ....  False
------------------------------------------------------------------------------
                        ORCA OPTIMIZATION COORDINATE SETUP
------------------------------------------------------------------------------

The optimization will be done in new redundant internal coordinates
Making redundant internal coordinates   ...  (new redundants) done
Evaluating the initial hessian          ...  (Almloef) done
Evaluating the coordinates              ...  done
Calculating the B-matrix                .... done
Calculating the G-matrix                .... done
Diagonalizing the G-matrix              .... done
Small eigenvalue found = 1.640e-03
Small eigenvalue found = 7.665e-03
Small eigenvalue found = 1.107e-02
Small eigenvalue found = 1.896e-02
Small eigenvalue found = 2.006e-02
The first mode is                       ....   82
The number of degrees of freedom        ....  105

    -----------------------------------------------------------------
                    Redundant Internal Coordinates


    -----------------------------------------------------------------
         Definition                    Initial Value    Approx d2E/dq
    -----------------------------------------------------------------
      1. B(N   1,C   0)                  1.4423         0.461785   
      2. B(C   2,N   1)                  1.4426         0.461191   
      3. B(C   3,N   1)                  1.3611         0.622299   
      4. B(C   4,C   3)                  1.4083         0.584111   
      5. B(C   5,C   4)                  1.3713         0.669201   
      6. B(C   6,C   5)                  1.4042         0.593031   
      7. B(C   7,C   6)                  1.4259         0.547551   
      8. B(C   8,C   7)                  1.3666         0.680836   
      9. B(C   9,C   8)                  1.4087         0.583342   
     10. B(N  10,C   9)                  1.1492         1.355200   
     11. B(C  11,C   8)                  1.4424         0.515448   
     12. B(N  12,C  11)                  1.2866         0.818063   
     13. B(C  13,N  12)                  1.3576         0.630277   
     14. B(C  14,C  13)                  1.3935         0.616814   
     15. B(C  15,C  14)                  1.3777         0.653768   
     16. B(C  16,C  15)                  1.3941         0.615515   
     17. B(C  17,C  16)                  1.3811         0.645529   
     18. B(C  18,C  17)                  1.3840         0.638683   
     19. B(C  18,C  13)                  1.4153         0.569301   
     20. B(S  19,C  18)                  1.7368         0.471203   
     21. B(S  19,C  11)                  1.7789         0.403727   
     22. B(C  20,C   6)                  1.4061         0.588850   
     23. B(C  21,C  20)                  1.3708         0.670422   
     24. B(C  21,C   3)                  1.4084         0.583998   
     25. B(H  22,C   0)                  1.0930         0.356108   
     26. B(H  23,C   0)                  1.0949         0.353620   
     27. B(H  24,C   0)                  1.0871         0.364017   
     28. B(H  25,C   2)                  1.0928         0.356384   
     29. B(H  26,C   2)                  1.0948         0.353846   
     30. B(H  27,C   2)                  1.0872         0.363874   
     31. B(H  28,C   4)                  1.0772         0.377432   
     32. B(H  29,C   5)                  1.0774         0.377156   
     33. B(H  30,C   7)                  1.0835         0.368825   
     34. B(H  31,C  14)                  1.0784         0.375835   
     35. B(H  32,C  15)                  1.0799         0.373767   
     36. B(H  33,C  16)                  1.0796         0.374104   
     37. B(H  34,C  17)                  1.0788         0.375165   
     38. B(H  35,C  20)                  1.0808         0.372445   
     39. B(H  36,C  21)                  1.0775         0.377001   
     40. A(H  23,C   0,H  24)          108.2490         0.290504   
     41. A(N   1,C   0,H  23)          111.4395         0.332849   
     42. A(N   1,C   0,H  24)          109.5395         0.334453   
     43. A(H  22,C   0,H  24)          107.9856         0.290824   
     44. A(N   1,C   0,H  22)          110.8640         0.333236   
     45. A(H  22,C   0,H  23)          108.6624         0.289505   
     46. A(C   2,N   1,C   3)          120.6391         0.406689   
     47. A(C   0,N   1,C   3)          120.6774         0.406782   
     48. A(C   0,N   1,C   2)          118.6834         0.385947   
     49. A(N   1,C   2,H  27)          109.5275         0.334360   
     50. A(H  25,C   2,H  27)          108.0153         0.290842   
     51. A(N   1,C   2,H  25)          110.8395         0.333208   
     52. A(H  25,C   2,H  26)          108.6454         0.289569   
     53. A(N   1,C   2,H  26)          111.4340         0.332813   
     54. A(H  26,C   2,H  27)          108.2807         0.290516   
     55. A(N   1,C   3,C   4)          121.4611         0.426922   
     56. A(C   4,C   3,C  21)          117.0094         0.424862   
     57. A(N   1,C   3,C  21)          121.5295         0.426907   
     58. A(C   3,C   4,H  28)          120.2535         0.352156   
     59. A(C   3,C   4,C   5)          121.5586         0.435376   
     60. A(C   5,C   4,H  28)          118.1853         0.360382   
     61. A(C   6,C   5,H  29)          119.6558         0.353017   
     62. A(C   4,C   5,C   6)          121.5638         0.436566   
     63. A(C   4,C   5,H  29)          118.7800         0.360337   
     64. A(C   5,C   6,C   7)          124.7886         0.421136   
     65. A(C   5,C   6,C  20)          116.7699         0.426648   
     66. A(C   7,C   6,C  20)          118.4414         0.420605   
     67. A(C   6,C   7,H  30)          115.6712         0.346984   
     68. A(C   6,C   7,C   8)          130.1067         0.431680   
     69. A(C   8,C   7,H  30)          114.2220         0.360024   
     70. A(C   9,C   8,C  11)          114.9693         0.415406   
     71. A(C   7,C   8,C  11)          119.4818         0.427025   
     72. A(C   7,C   8,C   9)          125.5489         0.436626   
     73. L(C   8,C   9,N  10,C  11, 2) 179.9348         0.491893   
     74. L(C   8,C   9,N  10,C  11, 1) 176.4834         0.491893   
     75. A(C   8,C  11,N  12)          124.6482         0.438470   
     76. A(N  12,C  11,S  19)          115.1434         0.442885   
     77. A(C   8,C  11,S  19)          120.2083         0.410401   
     78. A(C  11,N  12,C  13)          112.4250         0.451736   
     79. A(C  14,C  13,C  18)          119.3891         0.427073   
     80. A(N  12,C  13,C  18)          114.6999         0.425933   
     81. A(N  12,C  13,C  14)          125.9110         0.432102   
     82. A(C  15,C  14,H  31)          121.7967         0.358694   
     83. A(C  13,C  14,H  31)          119.3122         0.355165   
     84. A(C  13,C  14,C  15)          118.8912         0.437826   
     85. A(C  16,C  15,H  32)          119.2457         0.354706   
     86. A(C  14,C  15,H  32)          119.5937         0.358357   
     87. A(C  14,C  15,C  16)          121.1607         0.437660   
     88. A(C  17,C  16,H  33)          119.4208         0.357640   
     89. A(C  15,C  16,H  33)          119.5414         0.354761   
     90. A(C  15,C  16,C  17)          121.0378         0.436660   
     91. A(C  18,C  17,H  34)          120.5217         0.357164   
     92. A(C  16,C  17,H  34)          121.2896         0.357812   
     93. A(C  16,C  17,C  18)          118.1887         0.439580   
     94. A(C  17,C  18,S  19)          128.9078         0.438390   
     95. A(C  13,C  18,S  19)          109.7596         0.429414   
     96. A(C  13,C  18,C  17)          121.3326         0.429749   
     97. A(C  11,S  19,C  18)           87.9721         0.426048   
     98. A(C  21,C  20,H  35)          119.0962         0.359678   
     99. A(C   6,C  20,H  35)          118.8814         0.351845   
    100. A(C   6,C  20,C  21)          122.0221         0.436153   
    101. A(C   3,C  21,H  36)          120.3391         0.352077   
    102. A(C   3,C  21,C  20)          121.0762         0.435503   
    103. A(C  20,C  21,H  36)          118.5825         0.360424   
    104. D(C   2,N   1,C   0,H  22)   -126.5035         0.018206   
    105. D(C   3,N   1,C   0,H  22)     53.3241         0.018206   
    106. D(C   3,N   1,C   0,H  24)    172.3958         0.018206   
    107. D(C   2,N   1,C   0,H  23)    112.3269         0.018206   
    108. D(C   3,N   1,C   0,H  23)    -67.8455         0.018206   
    109. D(C   2,N   1,C   0,H  24)     -7.4318         0.018206   
    110. D(H  25,C   2,N   1,C   0)   -126.7666         0.018158   
    111. D(H  27,C   2,N   1,C   3)    172.4914         0.018158   
    112. D(H  26,C   2,N   1,C   0)    112.1060         0.018158   
    113. D(H  27,C   2,N   1,C   0)     -7.6809         0.018158   
    114. D(H  26,C   2,N   1,C   3)    -67.7217         0.018158   
    115. D(H  25,C   2,N   1,C   3)     53.4057         0.018158   
    116. D(C  21,C   3,N   1,C   0)      4.7944         0.031376   
    117. D(C   4,C   3,N   1,C   0)   -175.1987         0.031376   
    118. D(C   4,C   3,N   1,C   2)      4.6255         0.031376   
    119. D(C  21,C   3,N   1,C   2)   -175.3814         0.031376   
    120. D(H  28,C   4,C   3,C  21)   -179.4103         0.023456   
    121. D(H  28,C   4,C   3,N   1)      0.5830         0.023456   
    122. D(C   5,C   4,C   3,C  21)      0.0022         0.023456   
    123. D(C   5,C   4,C   3,N   1)    179.9955         0.023456   
    124. D(H  29,C   5,C   4,H  28)     -0.3239         0.031314   
    125. D(H  29,C   5,C   4,C   3)   -179.7481         0.031314   
    126. D(C   6,C   5,C   4,H  28)    179.4530         0.031314   
    127. D(C   6,C   5,C   4,C   3)      0.0288         0.031314   
    128. D(C  20,C   6,C   5,H  29)    179.7399         0.024215   
    129. D(C  20,C   6,C   5,C   4)     -0.0351         0.024215   
    130. D(C   7,C   6,C   5,H  29)     -0.1880         0.024215   
    131. D(C   7,C   6,C   5,C   4)   -179.9630         0.024215   
    132. D(H  30,C   7,C   6,C   5)    179.6246         0.020504   
    133. D(C   8,C   7,C   6,C  20)    179.7093         0.020504   
    134. D(C   8,C   7,C   6,C   5)     -0.3640         0.020504   
    135. D(H  30,C   7,C   6,C  20)     -0.3022         0.020504   
    136. D(C  11,C   8,C   7,H  30)     -0.1126         0.032499   
    137. D(C  11,C   8,C   7,C   6)    179.8761         0.032499   
    138. D(C   9,C   8,C   7,H  30)    179.8653         0.032499   
    139. D(C   9,C   8,C   7,C   6)     -0.1460         0.032499   
    140. D(S  19,C  11,C   8,C   9)      0.0286         0.018113   
    141. D(S  19,C  11,C   8,C   7)   -179.9912         0.018113   
    142. D(N  12,C  11,C   8,C   9)    179.9784         0.018113   
    143. D(N  12,C  11,C   8,C   7)     -0.0414         0.018113   
    144. D(C  13,N  12,C  11,S  19)      0.0160         0.051858   
    145. D(C  13,N  12,C  11,C   8)   -179.9361         0.051858   
    146. D(C  18,C  13,N  12,C  11)     -0.0075         0.029216   
    147. D(C  14,C  13,N  12,C  11)    179.9777         0.029216   
    148. D(H  31,C  14,C  13,C  18)   -179.9999         0.026310   
    149. D(H  31,C  14,C  13,N  12)      0.0156         0.026310   
    150. D(C  15,C  14,C  13,C  18)      0.0065         0.026310   
    151. D(C  15,C  14,C  13,N  12)   -179.9780         0.026310   
    152. D(H  32,C  15,C  14,H  31)     -0.0036         0.029784   
    153. D(H  32,C  15,C  14,C  13)    179.9898         0.029784   
    154. D(C  16,C  15,C  14,H  31)   -179.9912         0.029784   
    155. D(C  16,C  15,C  14,C  13)      0.0022         0.029784   
    156. D(H  33,C  16,C  15,H  32)      0.0066         0.026193   
    157. D(H  33,C  16,C  15,C  14)    179.9943         0.026193   
    158. D(C  17,C  16,C  15,H  32)   -179.9948         0.026193   
    159. D(C  17,C  16,C  15,C  14)     -0.0071         0.026193   
    160. D(H  34,C  17,C  16,H  33)      0.0043         0.028986   
    161. D(H  34,C  17,C  16,C  15)   -179.9943         0.028986   
    162. D(C  18,C  17,C  16,H  33)   -179.9986         0.028986   
    163. D(C  18,C  17,C  16,C  15)      0.0028         0.028986   
    164. D(S  19,C  18,C  13,N  12)     -0.0044         0.022230   
    165. D(C  17,C  18,C  13,C  14)     -0.0109         0.022230   
    166. D(C  17,C  18,C  13,N  12)    179.9753         0.022230   
    167. D(S  19,C  18,C  17,H  34)     -0.0214         0.028334   
    168. D(S  19,C  18,C  17,C  16)    179.9815         0.028334   
    169. D(C  13,C  18,C  17,H  34)   -179.9967         0.028334   
    170. D(C  13,C  18,C  17,C  16)      0.0061         0.028334   
    171. D(S  19,C  18,C  13,C  14)   -179.9905         0.022230   
    172. D(C  11,S  19,C  18,C  17)   -179.9673         0.004772   
    173. D(C  11,S  19,C  18,C  13)      0.0103         0.004772   
    174. D(C  18,S  19,C  11,N  12)     -0.0156         0.003871   
    175. D(C  18,S  19,C  11,C   8)    179.9388         0.003871   
    176. D(H  35,C  20,C   6,C   7)     -0.2430         0.023857   
    177. D(H  35,C  20,C   6,C   5)    179.8244         0.023857   
    178. D(C  21,C  20,C   6,C   7)    179.9442         0.023857   
    179. D(C  21,C  20,C   6,C   5)      0.0116         0.023857   
    180. D(H  36,C  21,C  20,H  35)     -0.3437         0.031437   
    181. D(H  36,C  21,C  20,C   6)    179.4688         0.031437   
    182. D(C   3,C  21,C  20,H  35)   -179.7937         0.031437   
    183. D(C   3,C  21,C  20,C   6)      0.0188         0.031437   
    184. D(H  36,C  21,C   3,C   4)   -179.4659         0.023447   
    185. D(H  36,C  21,C   3,N   1)      0.5407         0.023447   
    186. D(C  20,C  21,C   3,C   4)     -0.0255         0.023447   
    187. D(C  20,C  21,C   3,N   1)    179.9811         0.023447   
    -----------------------------------------------------------------

Number of atoms                         .... 37
Number of degrees of freedom            .... 187

         *************************************************************
         *                GEOMETRY OPTIMIZATION CYCLE   1            *
         *************************************************************
---------------------------------
CARTESIAN COORDINATES (ANGSTROEM)
---------------------------------
  C      2.025800    5.198200    2.383800
  N      2.410900    4.447700    1.213900
  C      3.482600    4.951400    0.389900
  C      1.778400    3.285400    0.895200
  C      2.205200    2.488500   -0.184700
  C      1.569500    1.317100   -0.507500
  C      0.462200    0.856300    0.222800
  C     -0.248700   -0.349000   -0.051300
  C     -0.050100   -1.286000   -1.026100
  C      0.954500   -1.241300   -2.012600
  N      1.748700   -1.265500   -2.842900
  C     -0.917400   -2.436600   -1.092000
  N     -1.893300   -2.664200   -0.285000
  C     -2.544700   -3.820000   -0.573000
  C     -3.639200   -4.335500    0.118500
  C     -4.190200   -5.526700   -0.300300
  C     -3.671800   -6.215600   -1.395800
  C     -2.587900   -5.725300   -2.097400
  C     -2.028100   -4.529100   -1.683600
  S     -0.676200   -3.668200   -2.352700
  C      0.038100    1.653600    1.300600
  C      0.668400    2.825500    1.630000
  H      2.039300    4.564800    3.274500
  H      1.023900    5.625800    2.273100
  H      2.728200    6.012900    2.540600
  H      3.167700    5.027500   -0.653800
  H      4.365300    4.306000    0.443000
  H      3.765600    5.944800    0.729000
  H      3.054900    2.786000   -0.776200
  H      1.936300    0.740300   -1.340300
  H     -1.078200   -0.565700    0.611200
  H     -4.031800   -3.794200    0.964500
  H     -5.038500   -5.936600    0.227400
  H     -4.124000   -7.147100   -1.701400
  H     -2.183500   -6.255000   -2.945800
  H     -0.813000    1.332500    1.884300
  H      0.291400    3.397500    2.461700

----------------------------
CARTESIAN COORDINATES (A.U.)
----------------------------
  NO LB      ZA    FRAG     MASS         X           Y           Z
   0 C     6.0000    0    12.011    3.828207    9.823174    4.504729
   1 N     7.0000    0    14.007    4.555941    8.404935    2.293939
   2 C     6.0000    0    12.011    6.581160    9.356790    0.736804
   3 C     6.0000    0    12.011    3.360689    6.208506    1.691683
   4 C     6.0000    0    12.011    4.167224    4.702583   -0.349032
   5 C     6.0000    0    12.011    2.965925    2.488958   -0.959036
   6 C     6.0000    0    12.011    0.873431    1.618172    0.421031
   7 C     6.0000    0    12.011   -0.469975   -0.659514   -0.096943
   8 C     6.0000    0    12.011   -0.094675   -2.430188   -1.939048
   9 C     6.0000    0    12.011    1.803744   -2.345717   -3.803263
  10 N     7.0000    0    14.007    3.304564   -2.391448   -5.372302
  11 C     6.0000    0    12.011   -1.733635   -4.604507   -2.063581
  12 N     7.0000    0    14.007   -3.577818   -5.034608   -0.538572
  13 C     6.0000    0    12.011   -4.808786   -7.218754   -1.082813
  14 C     6.0000    0    12.011   -6.877091   -8.192908    0.223933
  15 C     6.0000    0    12.011   -7.918330  -10.443949   -0.567485
  16 C     6.0000    0    12.011   -6.938696  -11.745782   -2.637680
  17 C     6.0000    0    12.011   -4.890422  -10.819249   -3.963512
  18 C     6.0000    0    12.011   -3.832554   -8.558759   -3.181543
  19 S    16.0000    0    32.060   -1.277833   -6.931893   -4.445959
  20 C     6.0000    0    12.011    0.071999    3.124851    2.457778
  21 C     6.0000    0    12.011    1.263093    5.339421    3.080254
  22 H     1.0000    0     1.008    3.853719    8.626222    6.187908
  23 H     1.0000    0     1.008    1.934891   10.631221    4.295536
  24 H     1.0000    0     1.008    5.155551   11.362734    4.801038
  25 H     1.0000    0     1.008    5.986085    9.500598   -1.235503
  26 H     1.0000    0     1.008    8.249221    8.137161    0.837149
  27 H     1.0000    0     1.008    7.115953   11.234044    1.377610
  28 H     1.0000    0     1.008    5.772924    5.264777   -1.466805
  29 H     1.0000    0     1.008    3.659077    1.398964   -2.532800
  30 H     1.0000    0     1.008   -2.037503   -1.069018    1.155001
  31 H     1.0000    0     1.008   -7.618998   -7.169999    1.822641
  32 H     1.0000    0     1.008   -9.521385  -11.218548    0.429724
  33 H     1.0000    0     1.008   -7.793231  -13.506062   -3.215180
  34 H     1.0000    0     1.008   -4.126217  -11.820237   -5.566755
  35 H     1.0000    0     1.008   -1.536347    2.518060    3.560811
  36 H     1.0000    0     1.008    0.550666    6.420345    4.651939

--------------------------------
INTERNAL COORDINATES (ANGSTROEM)
--------------------------------
 C      0   0   0     0.000000000000     0.00000000     0.00000000
 N      1   0   0     1.442296179708     0.00000000     0.00000000
 C      2   1   0     1.442647073958   118.68335314     0.00000000
 C      2   1   3     1.361090456215   120.67736203   179.82762041
 C      4   2   1     1.408329457194   121.46114556   184.80130165
 C      5   4   2     1.371310428021   121.55863673   179.99552707
 C      6   5   4     1.404203696050   121.56381695     0.02877563
 C      7   6   5     1.425923458675   124.78864837   180.03699290
 C      8   7   6     1.366618454434   130.10671277   359.63604866
 C      9   8   7     1.408687864646   125.54885729   359.85397853
 N     10   9   8     1.149233383608   176.48323058   180.65281665
 C      9   8   7     1.442370430923   119.48180608   179.87605928
 N     12   9   8     1.286635756537   124.64824338   359.95863047
 C     13  12   9     1.357622775295   112.42499866   180.06385209
 C     14  13  12     1.393500179404   125.91095818   179.97766432
 C     15  14  13     1.377661743680   118.89116979   180.02202812
 C     16  15  14     1.394073893307   121.16065089     0.00000000
 C     17  16  15     1.381113992399   121.03776137     0.00000000
 C     18  17  16     1.384016228229   118.18873221     0.00000000
 S     19  18  17     1.736800860778   128.90783437   179.98149151
 C      7   6   5     1.406129773527   116.76986888   359.96487266
 C     21   7   6     1.370814378390   122.02211407     0.00000000
 H      1   2   3     1.093034445935   110.86398991   233.49648595
 H      1   2   3     1.094942856956   111.43945989   112.32685026
 H      1   2   3     1.087054777829   109.53945842   352.56822037
 H      3   2   1     1.092823366331   110.83947072   233.23340756
 H      3   2   1     1.094769409511   111.43402989   112.10596823
 H      3   2   1     1.087162071634   109.52746163   352.31908085
 H      5   4   2     1.077204061448   120.25352448     0.58304637
 H      6   5   4     1.077402580283   118.77999907   180.25185974
 H      8   7   6     1.083482990176   115.67124376   179.62459073
 H     15  14  13     1.078358219703   119.31216740     0.00000000
 H     16  15  14     1.079860264108   119.59366216   179.98984603
 H     17  16  15     1.079614954509   119.54139357   179.99426975
 H     18  17  16     1.078843830218   121.28955693   180.00566797
 H     21   7   6     1.080824736023   118.88137766   179.82440526
 H     22  21   7     1.077514682035   118.58246357   179.46875230

---------------------------
INTERNAL COORDINATES (A.U.)
---------------------------
 C      0   0   0     0.000000000000     0.00000000     0.00000000
 N      1   0   0     2.725544783649     0.00000000     0.00000000
 C      2   1   0     2.726207877684   118.68335314     0.00000000
 C      2   1   3     2.572088205741   120.67736203   179.82762041
 C      4   2   1     2.661356980430   121.46114556   184.80130165
 C      5   4   2     2.591401153551   121.55863673   179.99552707
 C      6   5   4     2.653560421774   121.56381695     0.02877563
 C      7   6   5     2.694604824830   124.78864837   180.03699290
 C      8   7   6     2.582534608443   130.10671277   359.63604866
 C      9   8   7     2.662034272359   125.54885729   359.85397853
 N     10   9   8     2.171736358980   176.48323058   180.65281665
 C      9   8   7     2.725685098110   119.48180608   179.87605928
 N     12   9   8     2.431389213966   124.64824338   359.95863047
 C     13  12   9     2.565535238482   112.42499866   180.06385209
 C     14  13  12     2.633333706644   125.91095818   179.97766432
 C     15  14  13     2.603403400736   118.89116979   180.02202812
 C     16  15  14     2.634417868799   121.16065089     0.00000000
 C     17  16  15     2.609927205360   121.03776137     0.00000000
 C     18  17  16     2.615411636255   118.18873221     0.00000000
 S     19  18  17     3.282077976030   128.90783437   179.98149151
 C      7   6   5     2.657200180719   116.76986888   359.96487266
 C     21   7   6     2.590463755598   122.02211407     0.00000000
 H      1   2   3     2.065535757759   110.86398991   233.49648595
 H      1   2   3     2.069142131941   111.43945989   112.32685026
 H      1   2   3     2.054235822667   109.53945842   352.56822037
 H      3   2   1     2.065136875116   110.83947072   233.23340756
 H      3   2   1     2.068814363770   111.43402989   112.10596823
 H      3   2   1     2.054438578575   109.52746163   352.31908085
 H      5   4   2     2.035620666484   120.25352448     0.58304637
 H      6   5   4     2.035995812715   118.77999907   180.25185974
 H      8   7   6     2.047486122194   115.67124376   179.62459073
 H     15  14  13     2.037801709501   119.31216740     0.00000000
 H     16  15  14     2.040640162069   119.59366216   179.98984603
 H     17  16  15     2.040176594108   119.54139357   179.99426975
 H     18  17  16     2.038719380383   121.28955693   180.00566797
 H     21   7   6     2.042462749852   118.88137766   179.82440526
 H     22  21   7     2.036207654325   118.58246357   179.46875230

---------------------
BASIS SET INFORMATION
---------------------
There are 4 groups of distinct atoms

 Group   1 Type C   : 19s6p3d2f contracted to 5s4p3d2f pattern {88111/3111/111/11}
 Group   2 Type N   : 19s6p3d2f contracted to 5s4p3d2f pattern {88111/3111/111/11}
 Group   3 Type S   : 42s17p3d2f contracted to 6s5p3d2f pattern {131313111/77111/111/11}
 Group   4 Type H   : 5s2p1d contracted to 3s2p1d pattern {311/11/1}

Atom   0C    basis set group =>   1
Atom   1N    basis set group =>   2
Atom   2C    basis set group =>   1
Atom   3C    basis set group =>   1
Atom   4C    basis set group =>   1
Atom   5C    basis set group =>   1
Atom   6C    basis set group =>   1
Atom   7C    basis set group =>   1
Atom   8C    basis set group =>   1
Atom   9C    basis set group =>   1
Atom  10N    basis set group =>   2
Atom  11C    basis set group =>   1
Atom  12N    basis set group =>   2
Atom  13C    basis set group =>   1
Atom  14C    basis set group =>   1
Atom  15C    basis set group =>   1
Atom  16C    basis set group =>   1
Atom  17C    basis set group =>   1
Atom  18C    basis set group =>   1
Atom  19S    basis set group =>   3
Atom  20C    basis set group =>   1
Atom  21C    basis set group =>   1
Atom  22H    basis set group =>   4
Atom  23H    basis set group =>   4
Atom  24H    basis set group =>   4
Atom  25H    basis set group =>   4
Atom  26H    basis set group =>   4
Atom  27H    basis set group =>   4
Atom  28H    basis set group =>   4
Atom  29H    basis set group =>   4
Atom  30H    basis set group =>   4
Atom  31H    basis set group =>   4
Atom  32H    basis set group =>   4
Atom  33H    basis set group =>   4
Atom  34H    basis set group =>   4
Atom  35H    basis set group =>   4
Atom  36H    basis set group =>   4
---------------------------------
AUXILIARY/J BASIS SET INFORMATION
---------------------------------
There are 4 groups of distinct atoms

 Group   1 Type C   : 10s7p5d2f1g contracted to 10s7p5d2f1g pattern {1111111111/1111111/11111/11/1}
 Group   2 Type N   : 10s7p5d2f1g contracted to 10s7p5d2f1g pattern {1111111111/1111111/11111/11/1}
 Group   3 Type S   : 13s11p9d3f1g contracted to 13s11p9d3f1g pattern {1111111111111/11111111111/111111111/111/1}
 Group   4 Type H   : 4s3p2d1f contracted to 4s3p2d1f pattern {1111/111/11/1}

Atom   0C    basis set group =>   1
Atom   1N    basis set group =>   2
Atom   2C    basis set group =>   1
Atom   3C    basis set group =>   1
Atom   4C    basis set group =>   1
Atom   5C    basis set group =>   1
Atom   6C    basis set group =>   1
Atom   7C    basis set group =>   1
Atom   8C    basis set group =>   1
Atom   9C    basis set group =>   1
Atom  10N    basis set group =>   2
Atom  11C    basis set group =>   1
Atom  12N    basis set group =>   2
Atom  13C    basis set group =>   1
Atom  14C    basis set group =>   1
Atom  15C    basis set group =>   1
Atom  16C    basis set group =>   1
Atom  17C    basis set group =>   1
Atom  18C    basis set group =>   1
Atom  19S    basis set group =>   3
Atom  20C    basis set group =>   1
Atom  21C    basis set group =>   1
Atom  22H    basis set group =>   4
Atom  23H    basis set group =>   4
Atom  24H    basis set group =>   4
Atom  25H    basis set group =>   4
Atom  26H    basis set group =>   4
Atom  27H    basis set group =>   4
Atom  28H    basis set group =>   4
Atom  29H    basis set group =>   4
Atom  30H    basis set group =>   4
Atom  31H    basis set group =>   4
Atom  32H    basis set group =>   4
Atom  33H    basis set group =>   4
Atom  34H    basis set group =>   4
Atom  35H    basis set group =>   4
Atom  36H    basis set group =>   4
---------------------------------
AUXILIARY/C BASIS SET INFORMATION
---------------------------------
There are 4 groups of distinct atoms

 Group   1 Type C   : 9s7p6d4f2g contracted to 9s7p6d4f2g pattern {111111111/1111111/111111/1111/11}
 Group   2 Type N   : 9s7p6d4f2g contracted to 9s7p6d4f2g pattern {111111111/1111111/111111/1111/11}
 Group   3 Type S   : 11s9p8d6f3g contracted to 11s9p8d6f3g pattern {11111111111/111111111/11111111/111111/111}
 Group   4 Type H   : 4s3p2d1f contracted to 4s3p2d1f pattern {1111/111/11/1}

Atom   0C    basis set group =>   1
Atom   1N    basis set group =>   2
Atom   2C    basis set group =>   1
Atom   3C    basis set group =>   1
Atom   4C    basis set group =>   1
Atom   5C    basis set group =>   1
Atom   6C    basis set group =>   1
Atom   7C    basis set group =>   1
Atom   8C    basis set group =>   1
Atom   9C    basis set group =>   1
Atom  10N    basis set group =>   2
Atom  11C    basis set group =>   1
Atom  12N    basis set group =>   2
Atom  13C    basis set group =>   1
Atom  14C    basis set group =>   1
Atom  15C    basis set group =>   1
Atom  16C    basis set group =>   1
Atom  17C    basis set group =>   1
Atom  18C    basis set group =>   1
Atom  19S    basis set group =>   3
Atom  20C    basis set group =>   1
Atom  21C    basis set group =>   1
Atom  22H    basis set group =>   4
Atom  23H    basis set group =>   4
Atom  24H    basis set group =>   4
Atom  25H    basis set group =>   4
Atom  26H    basis set group =>   4
Atom  27H    basis set group =>   4
Atom  28H    basis set group =>   4
Atom  29H    basis set group =>   4
Atom  30H    basis set group =>   4
Atom  31H    basis set group =>   4
Atom  32H    basis set group =>   4
Atom  33H    basis set group =>   4
Atom  34H    basis set group =>   4
Atom  35H    basis set group =>   4
Atom  36H    basis set group =>   4


           ************************************************************
           *        Program running with 4 parallel MPI-processes     *
           *              working on a common directory               *
           ************************************************************
------------------------------------------------------------------------------
                           ORCA GTO INTEGRAL CALCULATION
                           -- RI-GTO INTEGRALS CHOSEN --
------------------------------------------------------------------------------
------------------------------------------------------------------------------
                   ___                                                        
                  /   \      - P O W E R E D   B Y -                         
                 /     \                                                     
                 |  |  |   _    _      __       _____    __    __             
                 |  |  |  | |  | |    /  \     |  _  \  |  |  /  |          
                  \  \/   | |  | |   /    \    | | | |  |  | /  /          
                 / \  \   | |__| |  /  /\  \   | |_| |  |  |/  /          
                |  |  |   |  __  | /  /__\  \  |    /   |      \           
                |  |  |   | |  | | |   __   |  |    \   |  |\   \          
                \     /   | |  | | |  |  |  |  | |\  \  |  | \   \       
                 \___/    |_|  |_| |__|  |__|  |_| \__\ |__|  \__/        
                                                                              
                      - O R C A' S   B I G   F R I E N D -                    
                                      &                                       
                       - I N T E G R A L  F E E D E R -                       
                                                                              
 v1 FN, 2020, v2 2021                                                         
------------------------------------------------------------------------------


Reading SHARK input file optpbed3-b2plyp-test-540.SHARKINP.tmp ... ok
----------------------
SHARK INTEGRAL PACKAGE
----------------------

Number of atoms                             ...     37
Number of basis functions                   ...   1377
Number of shells                            ...    541
Maximum angular momentum                    ...      3
Integral batch strategy                     ... SHARK/LIBINT Hybrid
RI-J (if used) integral strategy            ... SPLIT-RIJ (Revised 2003 algorithm where possible)
Printlevel                                  ...      1
Contraction scheme used                     ... PARTIAL GENERAL contraction
Coulomb Range Separation                    ... NOT USED
Exchange Range Separation                   ... NOT USED
Finite Nucleus Model                        ... NOT USED
Auxiliary Coulomb fitting basis             ... AVAILABLE
   # of basis functions in Aux-J            ...   2230
   # of shells in Aux-J                     ...    712
   Maximum angular momentum in Aux-J        ...      4
Auxiliary J/K fitting basis                 ... NOT available
Auxiliary Correlation fitting basis         ... AVAILABLE
   # of basis functions in Aux-C            ...   2823
   # of shells in Aux-C                     ...    775
   Maximum angular momentum in Aux-C        ...      4
Auxiliary 'external' fitting basis          ... NOT available
Integral threshold                          ...     2.500000e-11
Primitive cut-off                           ...     2.500000e-12
Primitive pair pre-selection threshold      ...     2.500000e-12

Calculating pre-screening integrals         ... done (  0.3 sec) Dimension = 541
Calculating pre-screening integrals (ORCA)  ... done (  0.7 sec) Dimension = 400
Organizing shell pair data                  ... done (  1.5 sec)
Shell pair information
Total number of shell pairs                 ...    146611
Shell pairs after pre-screening             ...     83666
Total number of primitive shell pairs       ...    188299
Primitive shell pairs kept                  ...     97124
          la=0 lb=0:  18759 shell pairs
          la=1 lb=0:  21883 shell pairs
          la=1 lb=1:   5594 shell pairs
          la=2 lb=0:  13811 shell pairs
          la=2 lb=1:   7027 shell pairs
          la=2 lb=2:   2285 shell pairs
          la=3 lb=0:   7384 shell pairs
          la=3 lb=1:   3785 shell pairs
          la=3 lb=2:   2446 shell pairs
          la=3 lb=3:    692 shell pairs

Calculating one electron integrals          ... done (  0.3 sec)
Calculating RI/J V-Matrix + Cholesky decomp.... done (  0.6 sec)
Calculating RI/C V-Matrix + Cholesky decomp.... done (  0.7 sec)
Calculating Nuclear repulsion               ... done (  0.0 sec) ENN=   1674.674175671276 Eh

SHARK setup successfully completed in   6.0 seconds

Maximum memory used throughout the entire GTOINT-calculation: 137.0 MB


           ************************************************************
           *        Program running with 4 parallel MPI-processes     *
           *              working on a common directory               *
           ************************************************************
-------------------------------------------------------------------------------
                                 ORCA SCF
-------------------------------------------------------------------------------

------------
SCF SETTINGS
------------
Hamiltonian:
 Density Functional     Method          .... DFT(GTOs)
 Exchange Functional    Exchange        .... PBE
   PBE kappa parameter   XKappa         ....  0.804000
   PBE mue parameter    XMuePBE         ....  0.219520
 Correlation Functional Correlation     .... PBE
   PBE beta parameter  CBetaPBE         ....  0.066725
 LDA part of GGA corr.  LDAOpt          .... PW91-LDA
 Gradients option       PostSCFGGA      .... off
 Hybrid DFT is turned on
   Fraction HF Exchange ScalHFX         ....  0.250000
   Scaling of DF-GGA-X  ScalDFX         ....  0.750000
   Scaling of DF-GGA-C  ScalDFC         ....  1.000000
   Scaling of DF-LDA-C  ScalLDAC        ....  1.000000
   Perturbative correction              ....  0.000000
   Density functional embedding theory  .... OFF
   NL short-range parameter             ....  6.900000
 RI-approximation to the Coulomb term is turned on
   Number of AuxJ basis functions       .... 2230
   RIJ-COSX (HFX calculated with COS-X)).... on


General Settings:
 Integral files         IntName         .... optpbed3-b2plyp-test-540
 Hartree-Fock type      HFTyp           .... RHF
 Total Charge           Charge          ....    0
 Multiplicity           Mult            ....    1
 Number of Electrons    NEL             ....  160
 Basis Dimension        Dim             .... 1226
 Nuclear Repulsion      ENuc            ....   1674.6741756713 Eh

Convergence Acceleration:
 DIIS                   CNVDIIS         .... on
   Start iteration      DIISMaxIt       ....    12
   Startup error        DIISStart       ....  0.200000
   # of expansion vecs  DIISMaxEq       ....     5
   Bias factor          DIISBfac        ....   1.050
   Max. coefficient     DIISMaxC        ....  10.000
 Trust-Rad. Augm. Hess. CNVTRAH         .... auto
   Auto Start mean grad. ratio tolernc. ....  1.125000
   Auto Start start iteration           ....    20
   Auto Start num. interpolation iter.  ....    10
   Max. Number of Micro iterations      ....    16
   Max. Number of Macro iterations      .... Maxiter - #DIIS iter
   Number of Davidson start vectors     ....     2
   Converg. threshold I  (grad. norm)   ....   1.000e-05
   Converg. threshold II (energy diff.) ....   1.000e-08
   Grad. Scal. Fac. for Micro threshold ....   0.100
   Minimum threshold for Micro iter.    ....   0.010
   NR start threshold (gradient norm)   ....   0.001
   Initial trust radius                 ....   0.400
   Minimum AH scaling param. (alpha)    ....   1.000
   Maximum AH scaling param. (alpha)    .... 1000.000
   Orbital update algorithm             .... Taylor
   White noise on init. David. guess    .... on
   Maximum white noise                  ....   0.010
   Quad. conv. algorithm                .... NR
 SOSCF                  CNVSOSCF        .... on
   Start iteration      SOSCFMaxIt      ....   150
   Startup grad/error   SOSCFStart      ....  0.003300
 Level Shifting         CNVShift        .... on
   Level shift para.    LevelShift      ....    0.2500
   Turn off err/grad.   ShiftErr        ....    0.0010
 Zerner damping         CNVZerner       .... off
 Static damping         CNVDamp         .... on
   Fraction old density DampFac         ....    0.7000
   Max. Damping (<1)    DampMax         ....    0.9800
   Min. Damping (>=0)   DampMin         ....    0.0000
   Turn off err/grad.   DampErr         ....    0.1000
 Fernandez-Rico         CNVRico         .... off

SCF Procedure:
 Maximum # iterations   MaxIter         ....   125
 SCF integral mode      SCFMode         .... Direct
   Integral package                     .... SHARK and LIBINT hybrid scheme
 Reset frequency        DirectResetFreq ....    20
 Integral Threshold     Thresh          ....  2.500e-11 Eh
 Primitive CutOff       TCut            ....  2.500e-12 Eh

Convergence Tolerance:
 Convergence Check Mode ConvCheckMode   .... Total+1el-Energy
 Convergence forced     ConvForced      .... 0
 Energy Change          TolE            ....  1.000e-08 Eh
 1-El. energy change                    ....  1.000e-05 Eh
 Orbital Gradient       TolG            ....  1.000e-05
 Orbital Rotation angle TolX            ....  1.000e-05
 DIIS Error             TolErr          ....  5.000e-07


Diagonalization of the overlap matrix:
Smallest eigenvalue                        ... 1.745e-07
Time for diagonalization                   ...    0.373 sec
Threshold for overlap eigenvalues          ... 1.000e-08
Number of eigenvalues below threshold      ... 0
Time for construction of square roots      ...    0.265 sec
Total time needed                          ...    0.650 sec

Time for model grid setup =    1.345 sec

------------------------------
INITIAL GUESS: MODEL POTENTIAL
------------------------------
Loading Hartree-Fock densities                     ... done
Calculating cut-offs                               ... done
Initializing the effective Hamiltonian             ... done
Setting up the integral package (SHARK)            ... done
Starting the Coulomb interaction                   ... done (   3.6 sec)
Reading the grid                                   ... done
Mapping shells                                     ... done
Starting the XC term evaluation                    ... done (   2.8 sec)
  promolecular density results
     # of electrons  =    159.981087980
     EX              =   -141.073174185
     EC              =     -5.452585995
     EX+EC           =   -146.525760180
Transforming the Hamiltonian                       ... done (   0.2 sec)
Diagonalizing the Hamiltonian                      ... done (   0.4 sec)
Back transforming the eigenvectors                 ... done (   0.1 sec)
Now organizing SCF variables                       ... done
                      ------------------
                      INITIAL GUESS DONE (   8.6 sec)
                      ------------------
-------------------
DFT GRID GENERATION
-------------------

General Integration Accuracy     IntAcc      ... 4.388
Radial Grid Type                 RadialGrid  ... OptM3 with GC (2021)
Angular Grid (max. ang.)         AngularGrid ... 4 (Lebedev-302)
Angular grid pruning method      GridPruning ... 4 (adaptive)
Weight generation scheme         WeightScheme... Becke
Basis function cutoff            BFCut       ... 1.0000e-11
Integration weight cutoff        WCut        ... 1.0000e-14
Angular grids for H and He will be reduced by one unit
Partially contracted basis set               ... off
Rotationally invariant grid construction     ... off

Total number of grid points                  ...   186704
Total number of batches                      ...     2936
Average number of points per batch           ...       63
Average number of grid points per atom       ...     5046
Time for grid setup =    3.989 sec

--------------------
COSX GRID GENERATION
--------------------

GRIDX 1
-------
General Integration Accuracy     IntAcc      ... 3.816
Radial Grid Type                 RadialGrid  ... OptM3 with GC (2021)
Angular Grid (max. ang.)         AngularGrid ... 1 (Lebedev-50)
Angular grid pruning method      GridPruning ... 4 (adaptive)
Weight generation scheme         WeightScheme... Becke
Basis function cutoff            BFCut       ... 1.0000e-11
Integration weight cutoff        WCut        ... 1.0000e-14
Angular grids for H and He will be reduced by one unit
Partially contracted basis set               ... on
Rotationally invariant grid construction     ... off

Total number of grid points                  ...    23643
Total number of batches                      ...      390
Average number of points per batch           ...       60
Average number of grid points per atom       ...      639
UseSFitting                                  ... on

GRIDX 2
-------
General Integration Accuracy     IntAcc      ... 4.020
Radial Grid Type                 RadialGrid  ... OptM3 with GC (2021)
Angular Grid (max. ang.)         AngularGrid ... 2 (Lebedev-110)
Angular grid pruning method      GridPruning ... 4 (adaptive)
Weight generation scheme         WeightScheme... Becke
Basis function cutoff            BFCut       ... 1.0000e-11
Integration weight cutoff        WCut        ... 1.0000e-14
Angular grids for H and He will be reduced by one unit
Partially contracted basis set               ... on
Rotationally invariant grid construction     ... off

Total number of grid points                  ...    56287
Total number of batches                      ...      900
Average number of points per batch           ...       62
Average number of grid points per atom       ...     1521
UseSFitting                                  ... on

GRIDX 3
-------
General Integration Accuracy     IntAcc      ... 4.338
Radial Grid Type                 RadialGrid  ... OptM3 with GC (2021)
Angular Grid (max. ang.)         AngularGrid ... 3 (Lebedev-194)
Angular grid pruning method      GridPruning ... 4 (adaptive)
Weight generation scheme         WeightScheme... Becke
Basis function cutoff            BFCut       ... 1.0000e-11
Integration weight cutoff        WCut        ... 1.0000e-14
Angular grids for H and He will be reduced by one unit
Partially contracted basis set               ... on
Rotationally invariant grid construction     ... off

Total number of grid points                  ...   122041
Total number of batches                      ...     1929
Average number of points per batch           ...       63
Average number of grid points per atom       ...     3298
UseSFitting                                  ... on

Time for X-Grid setup             =    9.512 sec


--------------------
CPCM SOLVATION MODEL
--------------------
CPCM parameters:
  Epsilon                                         ...       2.0165
  Refrac                                          ...       1.4266
  Rsolv                                           ...       1.3000
  Surface type                                    ... GAUSSIAN VDW
  Epsilon function type                           ...         CPCM
Solvent:                                     ... CYCLOHEXANE
SMD-CDS solvent descriptors:
  Soln                                       ...    1.4266
  Soln25                                     ...    1.4235
  Sola                                       ...    0.0000
  Solb                                       ...    0.0000
  Solg                                       ...   35.4800
  Solc                                       ...    0.0000
  Solh                                       ...    0.0000
Radii:
 Radius for C  used is    3.4960 Bohr (=   1.8500 Ang.)
 Radius for N  used is    3.5716 Bohr (=   1.8900 Ang.)
 Radius for S  used is    4.7054 Bohr (=   2.4900 Ang.)
 Radius for H  used is    2.2677 Bohr (=   1.2000 Ang.)
Calculating surface                               ...        done! (  0.0s)
GEPOL surface points                              ...         2103
GEPOL Volume                                      ...    2223.2915
GEPOL Surface-area                                ...    1202.4675
Calculating surface distance matrix               ...        done! (  0.1s)
Performing Cholesky decomposition & store         ...        done! (  0.3s)
Overall time for CPCM initialization              ...                 0.4s
 re-compute Schwartz prescreening matrix in partically contracted basis (1) ...done (   0.277 sec)
--------------
SCF ITERATIONS
--------------
ITER       Energy         Delta-E        Max-DP      RMS-DP      [F,P]     Damp
               ***  Starting incremental Fock matrix formation  ***
  0  -1256.0337586668   0.000000000000 0.43418963  0.00160432  0.2491088 0.7000
  1  -1256.2680038354  -0.234245168562 0.37922505  0.00124709  0.1018488 0.7000
                               ***Turning on DIIS***
  2  -1256.3632742507  -0.095270415248 0.86914967  0.00273370  0.0387190 0.0000
  3  -1256.5091699954  -0.145895744705 0.09814518  0.00059280  0.0469094 0.0000
  4  -1256.5436369027  -0.034466907307 0.05569356  0.00022357  0.0236977 0.0000
  5  -1256.5460149258  -0.002378023126 0.01270362  0.00009712  0.0094935 0.0000
                      *** Initiating the SOSCF procedure ***
                           *** Shutting down DIIS ***
                      *** Re-Reading the Fockian *** 
                      *** Removing any level shift *** 
ITER      Energy       Delta-E        Grad      Rot      Max-DP    RMS-DP
  6  -1256.54623751  -0.0002225877  0.000594  0.000594  0.009691  0.000068
               *** Restarting incremental Fock matrix formation ***
  7  -1256.54624332  -0.0000058070  0.000399  0.002383  0.049832  0.000773
  8  -1256.54624666  -0.0000033440  0.000282  0.000901  0.017490  0.000307
  9  -1256.54625215  -0.0000054811  0.000104  0.000500  0.029386  0.000334
 10  -1256.54625306  -0.0000009195  0.000095  0.000306  0.011315  0.000092
 11  -1256.54625345  -0.0000003833  0.000056  0.000240  0.017138  0.000149
 12  -1256.54625356  -0.0000001128  0.000025  0.000070  0.016162  0.000078
 13  -1256.54625366  -0.0000000957  0.000017  0.000094  0.012416  0.000089
 14  -1256.54625366  -0.0000000064  0.000005  0.000016  0.024751  0.000126
 15  -1256.54625369  -0.0000000281  0.000004  0.000015  0.017755  0.000127
                  ***Gradient check signals convergence***
              ***Rediagonalizing the Fockian in SOSCF/NRSCF***

               *****************************************************
               *                     SUCCESS                       *
               *           SCF CONVERGED AFTER  16 CYCLES          *
               *****************************************************

Old exchange energy                            =    -35.895242629 Eh
New exchange energy                            =    -35.895220154 Eh
Exchange energy change after final integration =      0.000022475 Eh
Total energy after final integration           =  -1256.546231229 Eh
Final COS-X integration done in                =   173.981 sec

SMD CDS free energy correction energy :                -6.58220     Kcal/mol
Total Energy after SMD CDS correction =             -1256.556720636 Eh

----------------
TOTAL SCF ENERGY
----------------

Total Energy       :        -1256.55672064 Eh          -34192.64669 eV

Components:
Nuclear Repulsion  :         1674.67417567 Eh           45570.20106 eV
Electronic Energy  :        -2931.23089631 Eh          -79762.84775 eV
One Electron Energy:        -5038.75885758 Eh         -137111.59913 eV
Two Electron Energy:         2107.52796127 Eh           57348.75138 eV
Max COSX asymmetry :            0.00003393 Eh               0.00092 eV
CPCM Dielectric    :           -0.01177971 Eh              -0.32054 eV
SMD CDS (Gcds)     :           -0.01048941 Eh              -0.28543 eV

Virial components:
Potential Energy   :        -2507.35833278 Eh          -68228.68891 eV
Kinetic Energy     :         1250.80161215 Eh           34036.04223 eV
Virial Ratio       :            2.00460114


DFT components:
N(Alpha)           :       79.999979257617 electrons
N(Beta)            :       79.999979257617 electrons
N(Total)           :      159.999958515235 electrons
E(X)               :     -107.368237243077 Eh       
E(C)               :       -5.451756518412 Eh       
E(XC)              :     -112.819993761489 Eh       
DFET-embed. en.    :        0.000000000000 Eh       
CPCM Solvation Model Properties:
Surface-charge          :           -0.06082457
Charge-correction       :            0.00006667 Eh               0.00181 eV
Free-energy (cav+disp)  :           -0.01048941 Eh              -0.28543 eV

---------------
SCF CONVERGENCE
---------------

  Last Energy change         ...   -1.2479e-08  Tolerance :   1.0000e-08
  Last MAX-Density change    ...    3.3307e-15  Tolerance :   1.0000e-07
  Last RMS-Density change    ...    1.7573e-17  Tolerance :   5.0000e-09
  Last Orbital Gradient      ...    1.9847e-06  Tolerance :   1.0000e-05
  Last Orbital Rotation      ...    1.3919e-05  Tolerance :   1.0000e-05

             **** THE GBW FILE WAS UPDATED (optpbed3-b2plyp-test-540.gbw) ****
             **** DENSITY optpbed3-b2plyp-test-540.scfp WAS UPDATED ****
             **** ENERGY FILE WAS UPDATED (optpbed3-b2plyp-test-540.en.tmp) ****
             **** THE GBW FILE WAS UPDATED (optpbed3-b2plyp-test-540.gbw) ****
             **** DENSITY optpbed3-b2plyp-test-540.scfp WAS UPDATED ****
----------------
ORBITAL ENERGIES
----------------

  NO   OCC          E(Eh)            E(eV) 
   0   2.0000     -89.083385     -2424.0821 
   1   2.0000     -14.430355      -392.6699 
   2   2.0000     -14.385751      -391.4562 
   3   2.0000     -14.384763      -391.4293 
   4   2.0000     -10.308295      -280.5030 
   5   2.0000     -10.287148      -279.9275 
   6   2.0000     -10.269807      -279.4557 
   7   2.0000     -10.267276      -279.3868 
   8   2.0000     -10.264957      -279.3237 
   9   2.0000     -10.263817      -279.2927 
  10   2.0000     -10.263033      -279.2713 
  11   2.0000     -10.260821      -279.2111 
  12   2.0000     -10.260095      -279.1914 
  13   2.0000     -10.242131      -278.7026 
  14   2.0000     -10.241227      -278.6780 
  15   2.0000     -10.238537      -278.6048 
  16   2.0000     -10.236017      -278.5362 
  17   2.0000     -10.232215      -278.4327 
  18   2.0000     -10.231827      -278.4222 
  19   2.0000     -10.229349      -278.3547 
  20   2.0000     -10.228960      -278.3441 
  21   2.0000     -10.228262      -278.3252 
  22   2.0000      -8.040453      -218.7918 
  23   2.0000      -5.977207      -162.6481 
  24   2.0000      -5.973989      -162.5605 
  25   2.0000      -5.970871      -162.4757 
  26   2.0000      -1.006374       -27.3848 
  27   2.0000      -1.002741       -27.2860 
  28   2.0000      -0.945275       -25.7222 
  29   2.0000      -0.899027       -24.4638 
  30   2.0000      -0.885869       -24.1057 
  31   2.0000      -0.854042       -23.2397 
  32   2.0000      -0.826833       -22.4993 
  33   2.0000      -0.797998       -21.7146 
  34   2.0000      -0.790168       -21.5016 
  35   2.0000      -0.766975       -20.8704 
  36   2.0000      -0.757360       -20.6088 
  37   2.0000      -0.750111       -20.4116 
  38   2.0000      -0.716697       -19.5023 
  39   2.0000      -0.666080       -18.1250 
  40   2.0000      -0.650669       -17.7056 
  41   2.0000      -0.636857       -17.3298 
  42   2.0000      -0.618248       -16.8234 
  43   2.0000      -0.603871       -16.4322 
  44   2.0000      -0.596795       -16.2396 
  45   2.0000      -0.563226       -15.3262 
  46   2.0000      -0.532349       -14.4860 
  47   2.0000      -0.528088       -14.3700 
  48   2.0000      -0.507006       -13.7963 
  49   2.0000      -0.504885       -13.7386 
  50   2.0000      -0.497696       -13.5430 
  51   2.0000      -0.488612       -13.2958 
  52   2.0000      -0.475085       -12.9277 
  53   2.0000      -0.465338       -12.6625 
  54   2.0000      -0.456923       -12.4335 
  55   2.0000      -0.452158       -12.3038 
  56   2.0000      -0.447432       -12.1753 
  57   2.0000      -0.436155       -11.8684 
  58   2.0000      -0.430556       -11.7160 
  59   2.0000      -0.429613       -11.6904 
  60   2.0000      -0.418585       -11.3903 
  61   2.0000      -0.416173       -11.3246 
  62   2.0000      -0.410417       -11.1680 
  63   2.0000      -0.401536       -10.9264 
  64   2.0000      -0.397360       -10.8127 
[...]
   Transformed RI-exchange        ...   659.56 sec
   (ab|v) reading and digestion   ...   603.60 sec
   Final sigma-completion         ...     0.01 sec
   Done building sigma-vectors             Size of expansion space: 70
   Lowest Energy          :     0.121743138689
   Maximum Energy change  :     0.000247015466 (vector 8)
   Maximum residual norm  :     0.000033352966
   Rebuilding the expansion space

                       ****Iteration   11****
              <<< Entering MO-section for Build Sigma(Double) >>>
   Forming the XC and CPCM contribution:
   Time for densities:            0.588
   Time for XC-Integration:      43.670
   Time for LR-CPCM terms:       20.849
   Time for Sigma-Completion:     0.488
   Time for building 20 sigma-vectors
   Data Preparation Phase         ...     0.02 sec
   Transformed RI Coulomb         ...     1.68 sec
   Transformed RI-exchange        ...  1358.07 sec
   (ab|v) reading and digestion   ...  1276.96 sec
   Final sigma-completion         ...     0.02 sec
   Done building sigma-vectors             Size of expansion space: 20
   Lowest Energy          :     0.121743138683
   Maximum Energy change  :     0.000067802477 (vector 8)
   Maximum residual norm  :     0.000012204481

                       ****Iteration   12****
              <<< Entering MO-section for Build Sigma(Double) >>>
   Forming the XC and CPCM contribution:
   Time for densities:            0.300
   Time for XC-Integration:      23.841
   Time for LR-CPCM terms:       13.894
   Time for Sigma-Completion:     0.217
   Time for building 10 sigma-vectors
   Data Preparation Phase         ...     0.01 sec
   Transformed RI Coulomb         ...     0.85 sec
   Transformed RI-exchange        ...   681.75 sec
   (ab|v) reading and digestion   ...   634.34 sec
   Final sigma-completion         ...     0.01 sec
   Done building sigma-vectors             Size of expansion space: 30
   Lowest Energy          :     0.121743138683
   Maximum Energy change  :     0.000037725477 (vector 8)
   Maximum residual norm  :     0.000004347937

                       ****Iteration   13****
              <<< Entering MO-section for Build Sigma(Double) >>>
   Forming the XC and CPCM contribution:
   Time for densities:            0.271
   Time for XC-Integration:      20.974
   Time for LR-CPCM terms:       12.918
   Time for Sigma-Completion:     0.201
   Time for building 9 sigma-vectors
   Data Preparation Phase         ...     0.01 sec
   Transformed RI Coulomb         ...     0.94 sec
   Transformed RI-exchange        ...   609.17 sec
   (ab|v) reading and digestion   ...   562.53 sec
   Final sigma-completion         ...     0.01 sec
   Done building sigma-vectors             Size of expansion space: 39
   Lowest Energy          :     0.121743138683
   Maximum Energy change  :     0.000012872440 (vector 8)
   Maximum residual norm  :     0.000001749659

                       ****Iteration   14****
              <<< Entering MO-section for Build Sigma(Double) >>>
   Forming the XC and CPCM contribution:
   Time for densities:            0.220
   Time for XC-Integration:      19.557
   Time for LR-CPCM terms:       12.959
   Time for Sigma-Completion:     0.202
   Time for building 9 sigma-vectors
   Data Preparation Phase         ...     0.01 sec
   Transformed RI Coulomb         ...     0.96 sec
   Transformed RI-exchange        ...   611.42 sec
   (ab|v) reading and digestion   ...   569.59 sec
   Final sigma-completion         ...     0.01 sec
   Done building sigma-vectors             Size of expansion space: 48
   Lowest Energy          :     0.121743138683
   Maximum Energy change  :     0.000003385713 (vector 8)
   Maximum residual norm  :     0.000000520274

      *** CONVERGENCE OF RESIDUAL NORM REACHED ***

Storing the converged CI vectors               ... optpbed3-b2plyp-test-540_job2.cis1

                 *** DAVIDSON DONE ***

Total time for solving the CIS problem: 11547.655sec

------------------
DOUBLES CORRECTION (Double precision version)
------------------

The (D) correction will be scaled by  0.2700
Doing v(i,a)*T(i,a) terms (RI)                    ... ok
Doing u(i,j,a,b) terms for state   0              ... ok
Doing u(i,j,a,b) terms for state   1              ... ok
Doing u(i,j,a,b) terms for state   2              ... ok
Doing u(i,j,a,b) terms for state   3              ... ok
Doing u(i,j,a,b) terms for state   4              ... ok
Doing u(i,j,a,b) terms for state   5              ... ok
Doing u(i,j,a,b) terms for state   6              ... ok
Doing u(i,j,a,b) terms for state   7              ... ok
Doing u(i,j,a,b) terms for state   8              ... ok
Doing u(i,j,a,b) terms for state   9              ... ok

Contributions to the (D) correction(s) (in eV)

STATE  Final   Init.   Total   v(ext)   v(int)  v(3)    u
       omega   omega     (D)                             
-----------------------------------------------------------------------------
   0   2.904   3.313  -0.409   0.648   1.025  -0.057  -2.025
   1   3.989   4.678  -0.689   0.630   0.906  -0.031  -2.193
   2   4.186   4.718  -0.531   0.529   0.956  -0.036  -1.980
   3   4.145   4.793  -0.648   0.626   0.955  -0.056  -2.174
   4   4.637   4.960  -0.323   0.036   0.987  -0.002  -1.345
   5   4.679   5.269  -0.590   0.569   1.004  -0.032  -2.131
   6   4.948   5.290  -0.342   0.142   1.025  -0.004  -1.506
   7   4.792   5.359  -0.567   0.482   0.988  -0.036  -2.001
   8   4.671   5.450  -0.779   0.656   0.774  -0.023  -2.185
   9   5.153   5.482  -0.330   0.090   1.001  -0.003  -1.418

(D)-timings
 V(i,a)*T(i,a) terms           ...  1079.844 sec
 U(i,j,a,b) 3-internal         ...    19.135 sec
 U(i,j,a,b) 3-external         ...   547.586 sec
 U(i,j,a,b) pair terms         ...   448.758 sec
 Total measured time           ...  4222.137 sec

 Time for (ab|v) I/O           ...   152.328 sec


------------------------------------
TD-DFT/TDA EXCITED STATES (SINGLETS)
------------------------------------

the weight of the individual excitations are printed if larger than 1.0e-02

STATE  1:  E=   0.106715 au      2.904 eV    23421.2 cm**-1 <S**2> =   0.000000
    79a ->  80a  :     0.952586 (c=  0.97600504)

STATE  2:  E=   0.146593 au      3.989 eV    32173.6 cm**-1 <S**2> =   0.000000
    77a ->  80a  :     0.067106 (c=  0.25904785)
    77a ->  84a  :     0.011987 (c= -0.10948491)
    77a ->  86a  :     0.017285 (c=  0.13147396)
    78a ->  80a  :     0.723683 (c=  0.85069572)
    78a ->  84a  :     0.018566 (c= -0.13625568)
    78a ->  86a  :     0.016396 (c= -0.12804749)
    78a ->  88a  :     0.015070 (c= -0.12275981)
    79a ->  84a  :     0.025013 (c= -0.15815591)
    79a ->  86a  :     0.048859 (c= -0.22104110)

STATE  3:  E=   0.153849 au      4.186 eV    33766.0 cm**-1 <S**2> =   0.000000
    76a ->  80a  :     0.218962 (c= -0.46793324)
    77a ->  80a  :     0.131730 (c=  0.36294625)
    77a ->  88a  :     0.030967 (c= -0.17597538)
    78a ->  84a  :     0.010902 (c= -0.10441081)
    79a ->  84a  :     0.304711 (c=  0.55200659)
    79a ->  88a  :     0.221762 (c= -0.47091664)

STATE  4:  E=   0.152342 au      4.145 eV    33435.2 cm**-1 <S**2> =   0.000000
    76a ->  80a  :     0.054550 (c=  0.23355861)
    77a ->  80a  :     0.613142 (c=  0.78303376)
    77a ->  84a  :     0.020276 (c= -0.14239230)
    78a ->  80a  :     0.132370 (c= -0.36382702)
    78a ->  86a  :     0.018829 (c= -0.13721879)
    79a ->  88a  :     0.083718 (c=  0.28933985)

STATE  5:  E=   0.170407 au      4.637 eV    37400.0 cm**-1 <S**2> =   0.000000
    77a ->  81a  :     0.034910 (c=  0.18684115)
    78a ->  81a  :     0.019963 (c= -0.14129069)
    79a ->  81a  :     0.753369 (c=  0.86796811)
    79a ->  82a  :     0.018126 (c= -0.13463320)
    79a ->  85a  :     0.072522 (c=  0.26929836)
    79a ->  89a  :     0.015616 (c=  0.12496233)
    79a ->  92a  :     0.042005 (c=  0.20495016)

STATE  6:  E=   0.171957 au      4.679 eV    37740.2 cm**-1 <S**2> =   0.000000
    76a ->  80a  :     0.117381 (c=  0.34260939)
    77a ->  80a  :     0.041885 (c= -0.20465842)
    77a ->  84a  :     0.036368 (c= -0.19070518)
    77a ->  88a  :     0.014351 (c= -0.11979433)
    78a ->  80a  :     0.019890 (c=  0.14103075)
    78a ->  84a  :     0.015630 (c=  0.12501912)
    78a ->  86a  :     0.032095 (c= -0.17915067)
    79a ->  84a  :     0.479089 (c=  0.69216277)
    79a ->  86a  :     0.010276 (c=  0.10136833)
    79a ->  88a  :     0.150075 (c=  0.38739510)

STATE  7:  E=   0.181838 au      4.948 eV    39908.8 cm**-1 <S**2> =   0.000000
    77a ->  82a  :     0.027325 (c=  0.16530337)
    77a ->  83a  :     0.011144 (c=  0.10556620)
    79a ->  81a  :     0.026362 (c= -0.16236479)
    79a ->  82a  :     0.599892 (c= -0.77452704)
    79a ->  83a  :     0.033560 (c=  0.18319286)
    79a ->  85a  :     0.043717 (c=  0.20908637)
    79a ->  87a  :     0.015586 (c=  0.12484318)
    79a ->  89a  :     0.076756 (c= -0.27704812)
    79a ->  99a  :     0.046810 (c= -0.21635547)

STATE  8:  E=   0.176088 au      4.792 eV    38646.7 cm**-1 <S**2> =   0.000000
    77a ->  80a  :     0.076591 (c= -0.27675141)
    77a ->  84a  :     0.041469 (c= -0.20363950)
    77a ->  86a  :     0.056254 (c=  0.23718004)
    77a ->  88a  :     0.015336 (c= -0.12383853)
    78a ->  80a  :     0.062757 (c= -0.25051258)
    78a ->  84a  :     0.016883 (c= -0.12993333)
    78a ->  86a  :     0.114930 (c= -0.33901318)
    78a ->  93a  :     0.013780 (c= -0.11738880)
    79a ->  86a  :     0.499410 (c= -0.70668982)

STATE  9:  E=   0.171644 au      4.671 eV    37671.5 cm**-1 <S**2> =   0.000000
    74a ->  80a  :     0.800381 (c= -0.89463992)
    74a ->  84a  :     0.048739 (c=  0.22077006)
    74a ->  86a  :     0.010673 (c=  0.10331124)
    74a ->  88a  :     0.016832 (c=  0.12973953)
    74a -> 102a  :     0.043636 (c=  0.20889287)
    79a ->  85a  :     0.013300 (c=  0.11532432)

STATE 10:  E=   0.189352 au      5.153 eV    41557.9 cm**-1 <S**2> =   0.000000
    74a ->  80a  :     0.019373 (c=  0.13918581)
    79a ->  81a  :     0.051921 (c= -0.22786251)
    79a ->  83a  :     0.089382 (c= -0.29896769)
    79a ->  85a  :     0.539333 (c=  0.73439263)
    79a ->  87a  :     0.011836 (c=  0.10879383)
    79a ->  89a  :     0.028776 (c=  0.16963356)
    79a ->  91a  :     0.089133 (c= -0.29855154)
    79a ->  94a  :     0.034661 (c=  0.18617559)
    79a -> 100a  :     0.016348 (c= -0.12785989)


-----------------------------
TD-DFT/TDA-EXCITATION SPECTRA
-----------------------------

Center of mass = ( -0.4019, -1.5458, -0.8952)
Calculating the Dipole integrals                  ... done
Transforming integrals                            ... done
Calculating the Linear Momentum integrals         ... done
Transforming integrals                            ... done
Calculating angular momentum integrals            ... done
Transforming integrals                            ... done

-----------------------------------------------------------------------------
         ABSORPTION SPECTRUM VIA TRANSITION ELECTRIC DIPOLE MOMENTS
-----------------------------------------------------------------------------
State   Energy    Wavelength  fosc         T2        TX        TY        TZ  
        (cm-1)      (nm)                 (au**2)    (au)      (au)      (au) 
-----------------------------------------------------------------------------
   1   23421.2    427.0   1.535854923  21.58818   1.89323   4.00907   1.38968
   2   32173.6    310.8   0.030296024   0.31000   0.29460  -0.17541  -0.43868
   3   33766.0    296.2   0.029691266   0.28948   0.01829  -0.40087  -0.35840
   4   33435.2    299.1   0.017795609   0.17522  -0.23656   0.06706   0.33877
   5   37400.0    267.4   0.022389719   0.19708  -0.27889   0.23860  -0.24975
   6   37740.2    265.0   0.063944932   0.55780  -0.54045  -0.50563   0.10028
   7   39908.8    250.6   0.003638191   0.03001   0.07281  -0.12579   0.09428
   8   38646.7    258.8   0.059264831   0.50485  -0.15112   0.45521   0.52421
   9   37671.5    265.5   0.001018214   0.00890   0.02591  -0.03831   0.08221
  10   41557.9    240.6   0.002937572   0.02327   0.02937  -0.01720   0.14870

-----------------------------------------------------------------------------
         ABSORPTION SPECTRUM VIA TRANSITION VELOCITY DIPOLE MOMENTS
-----------------------------------------------------------------------------
State   Energy    Wavelength   fosc        P2         PX        PY        PZ  
        (cm-1)      (nm)                 (au**2)     (au)      (au)      (au) 
-----------------------------------------------------------------------------
   1   23421.2    427.0   1.237604798   0.19811  -0.19631  -0.38147  -0.11851
   2   32173.6    310.8   0.000141957   0.00003   0.00293  -0.00341  -0.00331
   3   33766.0    296.2   0.014287826   0.00330   0.03894   0.04177  -0.00602
   4   33435.2    299.1   0.017217635   0.00393   0.02681  -0.02152  -0.05246
   5   37400.0    267.4   0.019584679   0.00501   0.04413  -0.03806   0.04012
   6   37740.2    265.0   0.047721920   0.01231   0.08169   0.07214  -0.02076
   7   39908.8    250.6   0.002244831   0.00061  -0.00859   0.01702  -0.01578
   8   38646.7    258.8   0.005836244   0.00154  -0.02235  -0.03207  -0.00365
   9   37671.5    265.5   0.000906579   0.00023   0.01050  -0.00773   0.00797
  10   41557.9    240.6   0.004794849   0.00136  -0.02277   0.01245  -0.02623

-------------------------------------------------------------------
                             CD SPECTRUM
-------------------------------------------------------------------
State  Energy     Wavelength     R         MX        MY        MZ   
       (cm-1)       (nm)     (1e40*cgs)   (au)      (au)      (au)  
-------------------------------------------------------------------
   1   23421.2    427.0     -5.49660   0.01915  -0.00817  -0.01091
   2   32173.6    310.8     -1.43610  -0.10815   0.08320  -0.09895
   3   33766.0    296.2      0.42923   0.11087  -0.08404   0.09712
   4   33435.2    299.1     -7.10487  -0.11797   0.10681  -0.14801
   5   37400.0    267.4      2.68223  -0.31160   0.01936   0.34368
   6   37740.2    265.0      6.02077  -0.10552   0.07441  -0.06613
   7   39908.8    250.6     -1.24450   0.08866  -0.01897  -0.12179
   8   38646.7    258.8     -1.65707  -0.17054   0.13638  -0.17430
   9   37671.5    265.5     -4.40722   0.28225   0.18305  -0.11736
  10   41557.9    240.6      1.47169  -0.02795  -0.06174   0.01937

-------------------------------------------------------------------
         CD SPECTRUM VIA TRANSITION VELOCITY DIPOLE MOMENTS        
-------------------------------------------------------------------
State  Energy     Wavelength     R         MX        MY        MZ   
       (cm-1)       (nm)     (1e40*cgs)   (au)      (au)      (au)  
-------------------------------------------------------------------
   1   23421.2    427.0      2.87200   0.01915  -0.00817  -0.01091
   2   32173.6    310.8     -0.87740  -0.10815   0.08320  -0.09895
   3   33766.0    296.2      0.67809   0.11087  -0.08404   0.09712
   4   33435.2    299.1      7.12783  -0.11797   0.10681  -0.14801
   5   37400.0    267.4     -1.93724  -0.31160   0.01936   0.34368
   6   37740.2    265.0     -5.15219  -0.10552   0.07441  -0.06613
   7   39908.8    250.6      2.17139   0.08866  -0.01897  -0.12179
   8   38646.7    258.8      0.19429  -0.17054   0.13638  -0.17430
   9   37671.5    265.5      1.68734   0.28225   0.18305  -0.11736
  10   41557.9    240.6     -1.59511  -0.02795  -0.06174   0.01937

Total run time:    15780.557 sec

           *** ORCA-CIS/TD-DFT FINISHED WITHOUT ERROR ***

Maximum memory used throughout the entire CIS-calculation: 1795.4 MB

-----------------------
CIS/TD-DFT TOTAL ENERGY
-----------------------

    E(SCF)  =  -1255.668515055 Eh
    DE(CIS) =      0.106714983 Eh (Root  1)
    ----------------------------- ---------
    E(tot)  =  -1255.561800072 Eh



-------------------------------------------------------------------------------
                          DFT DISPERSION CORRECTION                            
                                                                               
                              DFTD3 V3.1  Rev 1                                
                          USING Becke-Johnson damping                          
-------------------------------------------------------------------------------
The B2PLYP functional is recognized
Active option DFTDOPT                   ...         4   

molecular C6(AA) [au] = 19309.106451 


            DFT-D V3
 parameters
 s6 scaling factor         :     0.6400 
 a1 scaling factor         :     0.3065 
 s8 scaling factor         :     0.9147 
 a2 scaling factor         :     5.0570 
 ad hoc parameters k1-k3   :    16.0000     1.3333    -4.0000 

 Edisp/kcal,au: -25.503893178422  -0.040643036499 
 E6   /kcal   : -14.011666043 
 E8   /kcal   : -11.492227136 
 % E8         :  45.060677815 

-------------------------   ----------------
Dispersion correction           -0.040643036
-------------------------   ----------------


-------------------------   --------------------
FINAL SINGLE POINT ENERGY     -1255.602443108220
-------------------------   --------------------


                            ***************************************
                            *     ORCA property calculations      *
                            ***************************************


  WARNING: The energy has been calculated at the MP2 level but the densities
           used in the property calculations are still SCF densities
           MP2 response densities have not been calculated 
           use %mp2 Density relaxed end
           or  %mp2 Density unrelaxed end

                                    ---------------------
                                    Active property flags
                                    ---------------------
   (+) Dipole Moment


------------------------------------------------------------------------------
                       ORCA ELECTRIC PROPERTIES CALCULATION
------------------------------------------------------------------------------

Dipole Moment Calculation                       ... on
Quadrupole Moment Calculation                   ... off
Polarizability Calculation                      ... off
GBWName                                         ... optpbed3-b2plyp-test-540_job2.gbw
Electron density                                ... optpbed3-b2plyp-test-540_job2.scfp
The origin for moment calculation is the CENTER OF MASS  = (-0.401897, -1.545809 -0.895236)

-------------
DIPOLE MOMENT
-------------
                                X             Y             Z
Electronic contribution:     -7.57713     -24.21076     -12.53536
Nuclear contribution   :      7.75399      26.67323      14.45747
                        -----------------------------------------
Total Dipole Moment    :      0.17686       2.46247       1.92212
                        -----------------------------------------
Magnitude (a.u.)       :      3.12883
Magnitude (Debye)      :      7.95285



--------------------
Rotational spectrum 
--------------------
 
Rotational constants in cm-1:     0.028439     0.003128     0.002821 
Rotational constants in MHz :   852.585382    93.762220    84.565733 

 Dipole components along the rotational axes: 
x,y,z [a.u.] :     2.621160     1.708214     0.033029 
x,y,z [Debye]:     6.662460     4.341936     0.083954 

 

Timings for individual modules:

Sum of individual times         ...    18636.458 sec (= 310.608 min)
GTO integral calculation        ...        5.663 sec (=   0.094 min)   0.0 %
SCF iterations                  ...     1484.385 sec (=  24.740 min)   8.0 %
MP2 module                      ...     1352.655 sec (=  22.544 min)   7.3 %
CIS module                      ...    15793.754 sec (= 263.229 min)  84.7 %



                             ****ORCA TERMINATED NORMALLY****
TOTAL RUN TIME: 0 days 11 hours 31 minutes 18 seconds 253 msec
