
                                 *****************
                                 * O   R   C   A *
                                 *****************

                                            #,                                       
                                            ###                                      
                                            ####                                     
                                            #####                                    
                                            ######                                   
                                           ########,                                 
                                     ,,################,,,,,                         
                               ,,#################################,,                 
                          ,,##########################################,,             
                       ,#########################################, ''#####,          
                    ,#############################################,,   '####,        
                  ,##################################################,,,,####,       
                ,###########''''           ''''###############################       
              ,#####''   ,,,,##########,,,,          '''####'''          '####       
            ,##' ,,,,###########################,,,                        '##       
           ' ,,###''''                  '''############,,,                           
         ,,##''                                '''############,,,,        ,,,,,,###''
      ,#''                                            '''#######################'''  
     '                                                          ''''####''''         
             ,#######,   #######,   ,#######,      ##                                
            ,#'     '#,  ##    ##  ,#'     '#,    #''#        ######   ,####,        
            ##       ##  ##   ,#'  ##            #'  '#       #        #'  '#        
            ##       ##  #######   ##           ,######,      #####,   #    #        
            '#,     ,#'  ##    ##  '#,     ,#' ,#      #,         ##   #,  ,#        
             '#######'   ##     ##  '#######'  #'      '#     #####' # '####'        



                  #######################################################
                  #                        -***-                        #
                  #          Department of theory and spectroscopy      #
                  #    Directorship and core code : Frank Neese         #
                  #        Max Planck Institute fuer Kohlenforschung    #
                  #                Kaiser Wilhelm Platz 1               #
                  #                 D-45470 Muelheim/Ruhr               #
                  #                      Germany                        #
                  #                                                     #
                  #                  All rights reserved                #
                  #                        -***-                        #
                  #######################################################


                         Program Version 5.0.2 -  RELEASE  -


 With contributions from (in alphabetic order):
   Daniel Aravena         : Magnetic Suceptibility
   Michael Atanasov       : Ab Initio Ligand Field Theory (pilot matlab implementation)
   Alexander A. Auer      : GIAO ZORA, VPT2 properties, NMR spectrum
   Ute Becker             : Parallelization
   Giovanni Bistoni       : ED, misc. LED, open-shell LED, HFLD
   Martin Brehm           : Molecular dynamics
   Dmytro Bykov           : SCF Hessian
   Vijay G. Chilkuri      : MRCI spin determinant printing, contributions to CSF-ICE
   Dipayan Datta          : RHF DLPNO-CCSD density
   Achintya Kumar Dutta   : EOM-CC, STEOM-CC
   Dmitry Ganyushin       : Spin-Orbit,Spin-Spin,Magnetic field MRCI
   Miquel Garcia          : C-PCM and meta-GGA Hessian, CC/C-PCM, Gaussian charge scheme
   Yang Guo               : DLPNO-NEVPT2, F12-NEVPT2, CIM, IAO-localization
   Andreas Hansen         : Spin unrestricted coupled pair/coupled cluster methods
   Benjamin Helmich-Paris : MC-RPA, TRAH-SCF, COSX integrals
   Lee Huntington         : MR-EOM, pCC
   Robert Izsak           : Overlap fitted RIJCOSX, COSX-SCS-MP3, EOM
   Marcus Kettner         : VPT2
   Christian Kollmar      : KDIIS, OOCD, Brueckner-CCSD(T), CCSD density, CASPT2, CASPT2-K
   Simone Kossmann        : Meta GGA functionals, TD-DFT gradient, OOMP2, MP2 Hessian
   Martin Krupicka        : Initial AUTO-CI
   Lucas Lang             : DCDCAS
   Marvin Lechner         : AUTO-CI (C++ implementation), FIC-MRCC
   Dagmar Lenk            : GEPOL surface, SMD
   Dimitrios Liakos       : Extrapolation schemes; Compound Job, initial MDCI parallelization
   Dimitrios Manganas     : Further ROCIS development; embedding schemes
   Dimitrios Pantazis     : SARC Basis sets
   Anastasios Papadopoulos: AUTO-CI, single reference methods and gradients
   Taras Petrenko         : DFT Hessian,TD-DFT gradient, ASA, ECA, R-Raman, ABS, FL, XAS/XES, NRVS
   Peter Pinski           : DLPNO-MP2, DLPNO-MP2 Gradient
   Christoph Reimann      : Effective Core Potentials
   Marius Retegan         : Local ZFS, SOC
   Christoph Riplinger    : Optimizer, TS searches, QM/MM, DLPNO-CCSD(T), (RO)-DLPNO pert. Triples
   Tobias Risthaus        : Range-separated hybrids, TD-DFT gradient, RPA, STAB
   Michael Roemelt        : Original ROCIS implementation
   Masaaki Saitow         : Open-shell DLPNO-CCSD energy and density
   Barbara Sandhoefer     : DKH picture change effects
   Avijit Sen             : IP-ROCIS
   Kantharuban Sivalingam : CASSCF convergence, NEVPT2, FIC-MRCI
   Bernardo de Souza      : ESD, SOC TD-DFT
   Georgi Stoychev        : AutoAux, RI-MP2 NMR, DLPNO-MP2 response
   Willem Van den Heuvel  : Paramagnetic NMR
   Boris Wezisla          : Elementary symmetry handling
   Frank Wennmohs         : Technical directorship


 We gratefully acknowledge several colleagues who have allowed us to
 interface, adapt or use parts of their codes:
   Stefan Grimme, W. Hujo, H. Kruse, P. Pracht,  : VdW corrections, initial TS optimization,
                  C. Bannwarth, S. Ehlert          DFT functionals, gCP, sTDA/sTD-DF
   Ed Valeev, F. Pavosevic, A. Kumar             : LibInt (2-el integral package), F12 methods
   Garnet Chan, S. Sharma, J. Yang, R. Olivares  : DMRG
   Ulf Ekstrom                                   : XCFun DFT Library
   Mihaly Kallay                                 : mrcc  (arbitrary order and MRCC methods)
   Jiri Pittner, Ondrej Demel                    : Mk-CCSD
   Frank Weinhold                                : gennbo (NPA and NBO analysis)
   Christopher J. Cramer and Donald G. Truhlar   : smd solvation model
   Lars Goerigk                                  : TD-DFT with DH, B97 family of functionals
   V. Asgeirsson, H. Jonsson                     : NEB implementation
   FAccTs GmbH                                   : IRC, NEB, NEB-TS, DLPNO-Multilevel, CI-OPT
                                                   MM, QMMM, 2- and 3-layer-ONIOM, Crystal-QMMM,
                                                   LR-CPCM, SF, NACMEs, symmetry and pop. for TD-DFT,
                                                   nearIR, NL-DFT gradient (VV10), updates on ESD,
                                                   ML-optimized integration grids
   S Lehtola, MJT Oliveira, MAL Marques          : LibXC Library
   Liviu Ungur et al                             : ANISO software


 Your calculation uses the libint2 library for the computation of 2-el integrals
 For citations please refer to: http://libint.valeyev.net

 Your ORCA version has been built with support for libXC version: 5.1.0
 For citations please refer to: https://tddft.org/programs/libxc/

 This ORCA versions uses:
   CBLAS   interface :  Fast vector & matrix operations
   LAPACKE interface :  Fast linear algebra routines
   SCALAPACK package :  Parallel linear algebra routines
   Shared memory     :  Shared parallel matrices
   BLAS/LAPACK       :  OpenBLAS 0.3.15  USE64BITINT DYNAMIC_ARCH NO_AFFINITY Sandybridge SINGLE_THREADED
        Core in use  :  Sandybridge
   Copyright (c) 2011-2014, The OpenBLAS Project


Your calculation utilizes the atom-pairwise dispersion correction
with the Becke-Johnson damping scheme (D3BJ)
Cite in your paper:
S.Grimme, S.Ehrlich, L.Goerigk, J Comput Chem, (2011), 32, 1456–1465 
S.Grimme, J.Antony, S.Ehrlich and H.Krieg, J.Chem.Phys., 132, (2010), 154104 
   

Your calculation utilizes the SMD solvation module
Please cite in your paper:
A.V. Marenich, C.J. Cramer, D.G. Truhlar J. Phys. Chem. B, 113, (2009), 6378 

================================================================================

----- Orbital basis set information -----
Your calculation utilizes the basis: aug-cc-pVTZ 
    H, B-Ne : Obtained from the ccRepo (grant-hill.group.shef.ac.uk/ccrepo) Feb. 2017
              R. A. Kendall, T. H. Dunning, Jr., R. J. Harrison, J. Chem. Phys. 96, 6796 (1992)
         He : Obtained from the ccRepo (grant-hill.group.shef.ac.uk/ccrepo) Feb. 2017
              D. E. Woon, T. H. Dunning, Jr., J. Chem. Phys. 100, 2975 (1994)
  Li-Be, Na : Obtained from the ccRepo (grant-hill.group.shef.ac.uk/ccrepo) Feb. 2017
              B. P. Prascher, D. E. Woon, K. A. Peterson, T. H. Dunning, Jr., A. K. Wilson, Theor. Chem. Acc. 128, 69 (2011)
         Mg : Obtained from the Peterson Research Group Website (tyr0.chem.wsu.edu/~kipeters) Feb. 2017
              B. P. Prascher, D. E. Woon, K. A. Peterson, T. H. Dunning, Jr., A. K. Wilson, Theor. Chem. Acc. 128, 69 (2011)
      Al-Ar : Obtained from the ccRepo (grant-hill.group.shef.ac.uk/ccrepo) Feb. 2017
              D. E. Woon, T. H. Dunning, Jr., J. Chem. Phys. 98, 1358 (1993)
      Sc-Zn : Obtained from the ccRepo (grant-hill.group.shef.ac.uk/ccrepo) Feb. 2017
              N. B. Balabanov, K. A. Peterson, J. Chem. Phys. 123, 064107 (2005)
              N. B. Balabanov, K. A. Peterson, J. Chem. Phys. 125, 074110 (2006)
      Ga-Kr : Obtained from the ccRepo (grant-hill.group.shef.ac.uk/ccrepo) Feb. 2017
              A. K. Wilson, D. E. Woon, K. A. Peterson, T. H. Dunning, Jr., J. Chem. Phys. 110, 7667 (1999)
     Ag, Au : Obtained from the Peterson Research Group Website (tyr0.chem.wsu.edu/~kipeters) Feb. 2017
              K. A. Peterson, C. Puzzarini, Theor. Chem. Acc. 114, 283 (2005)

The basis set includes element-specific modifications.

Your calculation utilizes the basis: cc-pVTZ 
       H, B-Ne : Obtained from the ccRepo (grant-hill.group.shef.ac.uk/ccrepo) Feb. 2017
                 T. H. Dunning, Jr., J. Chem. Phys. 90, 1007 (1989)
            He : Obtained from the ccRepo (grant-hill.group.shef.ac.uk/ccrepo) Feb. 2017
                 D. E. Woon, T. H. Dunning, Jr., J. Chem. Phys. 100, 2975 (1994)
  Li-Be, Na-Mg : Obtained from the ccRepo (grant-hill.group.shef.ac.uk/ccrepo) Feb. 2017
                 B. P. Prascher, D. E. Woon, K. A. Peterson, T. H. Dunning, Jr., A. K. Wilson, Theor. Chem. Acc. 128, 69 (2011)
         Al-Ar : Obtained from the ccRepo (grant-hill.group.shef.ac.uk/ccrepo) Feb. 2017
                 D. E. Woon, T. H. Dunning, Jr., J. Chem. Phys. 98, 1358 (1993)
            Ca : Obtained from the Peterson Research Group Website (tyr0.chem.wsu.edu/~kipeters) Feb. 2017
                 J. Koput, K. A. Peterson, J. Phys. Chem. 106, 9595 (2002)
         Sc-Zn : Obtained from the ccRepo (grant-hill.group.shef.ac.uk/ccrepo) Feb. 2017
                 N. B. Balabanov, K. A. Peterson, J. Chem. Phys. 123, 064107 (2005)
                 N. B. Balabanov, K. A. Peterson, J. Chem. Phys. 125, 074110 (2006)
         Ga-Kr : Obtained from the ccRepo (grant-hill.group.shef.ac.uk/ccrepo) Feb. 2017
                 A. K. Wilson, D. E. Woon, K. A. Peterson, T. H. Dunning, Jr., J. Chem. Phys. 110, 7667 (1999)
             Y : Obtained from the ccRepo (grant-hill.group.shef.ac.uk/ccrepo) Feb. 2017
                 K. A. Peterson, D. Figgen, M. Dolg, H. Stoll, J. Chem. Phys. 126, 124101 (2007)
        Ag, Au : Obtained from the Peterson Research Group Website (tyr0.chem.wsu.edu/~kipeters) Feb. 2017
                 K. A. Peterson, C. Puzzarini, Theor. Chem. Acc. 114, 283 (2005)

----- AuxJ basis set information -----
Your calculation utilizes the auxiliary basis: aug-cc-pVTZ/JK 
  H, B-F, Al-Cl, Ga-Br : Obtained from the TURBOMOLE 7.0 basis set library

The basis set includes element-specific modifications.

Your calculation utilizes the auxiliary basis: cc-pVTZ/JK 
  H, B-F, Al-Cl, Ga-Br : Obtained from the TURBOMOLE 7.0 basis set library

----- AuxC basis set information -----
Your calculation utilizes the auxiliary basis: aug-cc-pVTZ/C 
  H-He, B-F, Al-Ar, Ga-Kr : Obtained from the EMSL Basis Set Exchange (bse.pnl.gov) Feb. 2017
                            F. Weigend, A. Kohn, C. Hattig, J. Chem. Phys. 116, 3175 (2002)
                   Be, Mg : Obtained from the TURBOMOLE 7.0 basis set library
                            C. Haettig, Phys. Chem. Chem. Phys. 7, 59 (2005)
                       Ne : Obtained from the EMSL Basis Set Exchange (bse.pnl.gov) Feb. 2017
                            C. Haettig, Phys. Chem. Chem. Phys. 7, 59 (2005)
                            F. Weigend, A. Kohn, C. Hattig, J. Chem. Phys. 116, 3175 (2002)
                    Sc-Zn : Obtained from the EMSL Basis Set Exchange (bse.pnl.gov) Feb. 2017
                            J. G. Hill, J. A. Platts, J. Chem. Phys. 128, 044104 (2008)

The basis set includes element-specific modifications.

Your calculation utilizes the auxiliary basis: cc-pVTZ/C 
  Obtained from the EMSL Basis Set Exchange (bse.pnl.gov) Feb. 2017
  H-He, B-F, Al-Ar, Ga-Kr : F. Weigend, A. Kohn, C. Hattig, J. Chem. Phys. 116, 3175 (2002)
             Li-Be, Na-Mg : C. Haettig, Phys. Chem. Chem. Phys. 7, 59 (2005)
                       Ne : C. Haettig, Phys. Chem. Chem. Phys. 7, 59 (2005)
                            F. Weigend, A. Kohn, C. Hattig, J. Chem. Phys. 116, 3175 (2002)
                    Sc-Zn : J. G. Hill, J. A. Platts, J. Chem. Phys. 128, 044104 (2008)

================================================================================
                                        WARNINGS
                       Please study these warnings very carefully!
================================================================================


WARNING: Geometry Optimization
  ===> : Switching off AutoStart
         For restart on a previous wavefunction, please use MOREAD

INFO   : the flag for use of the SHARK integral package has been found!



***************************************
The coordinates will be read from file: 
***************************************


Your calculation utilizes the atom-pairwise dispersion correction
with the Becke-Johnson damping scheme (D3BJ)
Cite in your paper:
S.Grimme, S.Ehrlich, L.Goerigk, J Comput Chem, (2011), 32, 1456–1465 
S.Grimme, J.Antony, S.Ehrlich and H.Krieg, J.Chem.Phys., 132, (2010), 154104 
   

Your calculation utilizes the SMD solvation module
Please cite in your paper:
A.V. Marenich, C.J. Cramer, D.G. Truhlar J. Phys. Chem. B, 113, (2009), 6378 

================================================================================

----- Orbital basis set information -----
Your calculation utilizes the basis: aug-cc-pVTZ 
    H, B-Ne : Obtained from the ccRepo (grant-hill.group.shef.ac.uk/ccrepo) Feb. 2017
              R. A. Kendall, T. H. Dunning, Jr., R. J. Harrison, J. Chem. Phys. 96, 6796 (1992)
         He : Obtained from the ccRepo (grant-hill.group.shef.ac.uk/ccrepo) Feb. 2017
              D. E. Woon, T. H. Dunning, Jr., J. Chem. Phys. 100, 2975 (1994)
  Li-Be, Na : Obtained from the ccRepo (grant-hill.group.shef.ac.uk/ccrepo) Feb. 2017
              B. P. Prascher, D. E. Woon, K. A. Peterson, T. H. Dunning, Jr., A. K. Wilson, Theor. Chem. Acc. 128, 69 (2011)
         Mg : Obtained from the Peterson Research Group Website (tyr0.chem.wsu.edu/~kipeters) Feb. 2017
              B. P. Prascher, D. E. Woon, K. A. Peterson, T. H. Dunning, Jr., A. K. Wilson, Theor. Chem. Acc. 128, 69 (2011)
      Al-Ar : Obtained from the ccRepo (grant-hill.group.shef.ac.uk/ccrepo) Feb. 2017
              D. E. Woon, T. H. Dunning, Jr., J. Chem. Phys. 98, 1358 (1993)
      Sc-Zn : Obtained from the ccRepo (grant-hill.group.shef.ac.uk/ccrepo) Feb. 2017
              N. B. Balabanov, K. A. Peterson, J. Chem. Phys. 123, 064107 (2005)
              N. B. Balabanov, K. A. Peterson, J. Chem. Phys. 125, 074110 (2006)
      Ga-Kr : Obtained from the ccRepo (grant-hill.group.shef.ac.uk/ccrepo) Feb. 2017
              A. K. Wilson, D. E. Woon, K. A. Peterson, T. H. Dunning, Jr., J. Chem. Phys. 110, 7667 (1999)
     Ag, Au : Obtained from the Peterson Research Group Website (tyr0.chem.wsu.edu/~kipeters) Feb. 2017
              K. A. Peterson, C. Puzzarini, Theor. Chem. Acc. 114, 283 (2005)

The basis set includes element-specific modifications.

Your calculation utilizes the basis: cc-pVTZ 
       H, B-Ne : Obtained from the ccRepo (grant-hill.group.shef.ac.uk/ccrepo) Feb. 2017
                 T. H. Dunning, Jr., J. Chem. Phys. 90, 1007 (1989)
            He : Obtained from the ccRepo (grant-hill.group.shef.ac.uk/ccrepo) Feb. 2017
                 D. E. Woon, T. H. Dunning, Jr., J. Chem. Phys. 100, 2975 (1994)
  Li-Be, Na-Mg : Obtained from the ccRepo (grant-hill.group.shef.ac.uk/ccrepo) Feb. 2017
                 B. P. Prascher, D. E. Woon, K. A. Peterson, T. H. Dunning, Jr., A. K. Wilson, Theor. Chem. Acc. 128, 69 (2011)
         Al-Ar : Obtained from the ccRepo (grant-hill.group.shef.ac.uk/ccrepo) Feb. 2017
                 D. E. Woon, T. H. Dunning, Jr., J. Chem. Phys. 98, 1358 (1993)
            Ca : Obtained from the Peterson Research Group Website (tyr0.chem.wsu.edu/~kipeters) Feb. 2017
                 J. Koput, K. A. Peterson, J. Phys. Chem. 106, 9595 (2002)
         Sc-Zn : Obtained from the ccRepo (grant-hill.group.shef.ac.uk/ccrepo) Feb. 2017
                 N. B. Balabanov, K. A. Peterson, J. Chem. Phys. 123, 064107 (2005)
                 N. B. Balabanov, K. A. Peterson, J. Chem. Phys. 125, 074110 (2006)
         Ga-Kr : Obtained from the ccRepo (grant-hill.group.shef.ac.uk/ccrepo) Feb. 2017
                 A. K. Wilson, D. E. Woon, K. A. Peterson, T. H. Dunning, Jr., J. Chem. Phys. 110, 7667 (1999)
             Y : Obtained from the ccRepo (grant-hill.group.shef.ac.uk/ccrepo) Feb. 2017
                 K. A. Peterson, D. Figgen, M. Dolg, H. Stoll, J. Chem. Phys. 126, 124101 (2007)
        Ag, Au : Obtained from the Peterson Research Group Website (tyr0.chem.wsu.edu/~kipeters) Feb. 2017
                 K. A. Peterson, C. Puzzarini, Theor. Chem. Acc. 114, 283 (2005)

----- AuxJ basis set information -----
Your calculation utilizes the auxiliary basis: aug-cc-pVTZ/JK 
  H, B-F, Al-Cl, Ga-Br : Obtained from the TURBOMOLE 7.0 basis set library

The basis set includes element-specific modifications.

Your calculation utilizes the auxiliary basis: cc-pVTZ/JK 
  H, B-F, Al-Cl, Ga-Br : Obtained from the TURBOMOLE 7.0 basis set library

----- AuxC basis set information -----
Your calculation utilizes the auxiliary basis: aug-cc-pVTZ/C 
  H-He, B-F, Al-Ar, Ga-Kr : Obtained from the EMSL Basis Set Exchange (bse.pnl.gov) Feb. 2017
                            F. Weigend, A. Kohn, C. Hattig, J. Chem. Phys. 116, 3175 (2002)
                   Be, Mg : Obtained from the TURBOMOLE 7.0 basis set library
                            C. Haettig, Phys. Chem. Chem. Phys. 7, 59 (2005)
                       Ne : Obtained from the EMSL Basis Set Exchange (bse.pnl.gov) Feb. 2017
                            C. Haettig, Phys. Chem. Chem. Phys. 7, 59 (2005)
                            F. Weigend, A. Kohn, C. Hattig, J. Chem. Phys. 116, 3175 (2002)
                    Sc-Zn : Obtained from the EMSL Basis Set Exchange (bse.pnl.gov) Feb. 2017
                            J. G. Hill, J. A. Platts, J. Chem. Phys. 128, 044104 (2008)

The basis set includes element-specific modifications.

Your calculation utilizes the auxiliary basis: cc-pVTZ/C 
  Obtained from the EMSL Basis Set Exchange (bse.pnl.gov) Feb. 2017
  H-He, B-F, Al-Ar, Ga-Kr : F. Weigend, A. Kohn, C. Hattig, J. Chem. Phys. 116, 3175 (2002)
             Li-Be, Na-Mg : C. Haettig, Phys. Chem. Chem. Phys. 7, 59 (2005)
                       Ne : C. Haettig, Phys. Chem. Chem. Phys. 7, 59 (2005)
                            F. Weigend, A. Kohn, C. Hattig, J. Chem. Phys. 116, 3175 (2002)
                    Sc-Zn : J. G. Hill, J. A. Platts, J. Chem. Phys. 128, 044104 (2008)

================================================================================
                                        WARNINGS
                       Please study these warnings very carefully!
================================================================================

INFO   : Checking CIS options ...
  ===> : (D) CORRECTION FOUND - SETTING MODE=3
  ===> : JK MODE FOUND - ACTIVATING RI-MP2 CODE
  ===> : MP2 AND CIS FOUND - CHECKING
WARNING: CIS(D) and MP2 runs must have the same orbital window
  ===> : adjusting orbital windows

WARNING: No MP2 level density has been requested!
         To caclulate MP2 level properties use
         %mp2 Density relaxed end
         or
         %mp2 Density unrelaxed end
         Otherwise for double-hybrid DFT only the energy is correct!

WARNING: The frozen-core approximation is turned on by default for 
         the MP2 part of double-hybrid DFT.

INFO   : the flag for use of the SHARK integral package has been found!

================================================================================
                                       INPUT FILE
================================================================================
NAME = optpbed3-b2plyp-test-173.inp
|  1> ! pbe0 d3bj aug-cc-PVTZ RIJCOSX Opt
|  2> %maxcore 4000
|  3> %basis
|  4>  AuxJ "aug-cc-PVTZ/JK"
|  5>  AuxC "aug-cc-PVTZ/C"
|  6>  newGTO H "cc-PVTZ" end
|  7>  newAuxJGTO H "cc-PVTZ/JK" end
|  8>  newAuxCGTO H "cc-PVTZ/C" end
|  9> end
| 10> %cpcm
| 11>  SMD true
| 12>  SMDsolvent "n-hexane"
| 13> end
| 14> %pal nprocs 4 end
| 15> * xyz 0 1
| 16> C         -3.55880       -2.20730        1.07170
| 17> C         -3.79730       -0.98380        0.23380
| 18> O         -4.89810       -0.61260       -0.11670
| 19> C         -2.57770       -0.26100       -0.13260
| 20> N         -1.32420       -0.66900        0.24890
| 21> C         -0.50360        0.20140       -0.25230
| 22> C          0.93600        0.19960       -0.12770
| 23> C          1.56350       -0.81170        0.60060
| 24> C          2.93660       -0.82330        0.72230
| 25> C          3.71740        0.16400        0.12660
| 26> C          5.20920        0.12590        0.24670
| 27> C          3.08420        1.16860       -0.59630
| 28> C          1.70980        1.19250       -0.72580
| 29> O         -1.13450        1.18040       -0.95430
| 30> C         -2.44830        0.88950       -0.88010
| 31> C         -3.44360        1.75800       -1.54260
| 32> H         -4.50050       -2.69930        1.29820
| 33> H         -2.89580       -2.88270        0.53620
| 34> H         -3.05320       -1.91680        1.98960
| 35> H          0.95330       -1.57280        1.06000
| 36> H          3.41740       -1.60840        1.28780
| 37> H          5.64200        1.10450        0.05450
| 38> H          5.50880       -0.20620        1.23830
| 39> H          5.62130       -0.57620       -0.47890
| 40> H          3.67680        1.94230       -1.06310
| 41> H          1.22750        1.97750       -1.28860
| 42> H         -4.43680        1.36330       -1.35010
| 43> H         -3.26200        1.78800       -2.61670
| 44> H         -3.36970        2.77580       -1.16060
| 45> *
| 46> 
| 47> 
| 48> $new_job
| 49> ! b2plyp aug-cc-PVTZ RIJCOSX SP
| 50> %maxcore 4000
| 51> %basis
| 52>  AuxJ "aug-cc-PVTZ/JK"
| 53>  AuxC "aug-cc-PVTZ/C"
| 54>  newGTO H "cc-PVTZ" end
| 55>  newAuxJGTO H "cc-PVTZ/JK" end
| 56>  newAuxCGTO H "cc-PVTZ/C" end
| 57> end
| 58> %cpcm
| 59>  SMD true
| 60>  SMDsolvent "n-hexane"
| 61> end
| 62> %pal nprocs 4 end
| 63> %tddft
| 64>  nroots 10
| 65>  maxdim 7
| 66> end
| 67> * xyzfile 0 1
| 68> 
| 69>                          ****END OF INPUT****
================================================================================


                 $$$$$$$$$$$$$$$$$$$$$$$$$$$$$$$$$$$$$$$$$$$$$$ 
                 $ THERE ARE  2 JOBS TO BE PROCESSED THIS RUN $
                 $$$$$$$$$$$$$$$$$$$$$$$$$$$$$$$$$$$$$$$$$$$$$$ 




                 $$$$$$$$$$$$$$$$  JOB NUMBER  1 $$$$$$$$$$$$$$


                       *****************************
                       * Geometry Optimization Run *
                       *****************************

Geometry optimization settings:
Update method            Update   .... BFGS
Choice of coordinates    CoordSys .... Z-matrix Internals
Initial Hessian          InHess   .... Almoef's Model

Convergence Tolerances:
Energy Change            TolE     ....  5.0000e-06 Eh
Max. Gradient            TolMAXG  ....  3.0000e-04 Eh/bohr
RMS Gradient             TolRMSG  ....  1.0000e-04 Eh/bohr
Max. Displacement        TolMAXD  ....  4.0000e-03 bohr
RMS Displacement         TolRMSD  ....  2.0000e-03 bohr
Strict Convergence                ....  False
------------------------------------------------------------------------------
                        ORCA OPTIMIZATION COORDINATE SETUP
------------------------------------------------------------------------------

The optimization will be done in new redundant internal coordinates
Making redundant internal coordinates   ...  (new redundants) done
Evaluating the initial hessian          ...  (Almloef) done
Evaluating the coordinates              ...  done
Calculating the B-matrix                .... done
Calculating the G-matrix                .... done
Diagonalizing the G-matrix              .... done
Small eigenvalue found = 5.012e-03
Small eigenvalue found = 1.810e-02
The first mode is                       ....   61
The number of degrees of freedom        ....   81

    -----------------------------------------------------------------
                    Redundant Internal Coordinates


    -----------------------------------------------------------------
         Definition                    Initial Value    Approx d2E/dq
    -----------------------------------------------------------------
      1. B(C   1,C   0)                  1.5020         0.414094   
      2. B(O   2,C   1)                  1.2134         1.070507   
      3. B(C   3,C   1)                  1.4643         0.475588   
      4. B(N   4,C   3)                  1.3723         0.597144   
      5. B(C   5,N   4)                  1.2970         0.787531   
      6. B(C   6,C   5)                  1.4450         0.510524   
      7. B(C   7,C   6)                  1.3953         0.612715   
      8. B(C   8,C   7)                  1.3785         0.651682   
      9. B(C   9,C   8)                  1.3926         0.618911   
     10. B(C  10,C   9)                  1.4971         0.421550   
     11. B(C  11,C   9)                  1.3902         0.624262   
     12. B(C  12,C  11)                  1.3807         0.646525   
     13. B(C  12,C   6)                  1.3937         0.616410   
     14. B(O  13,C   5)                  1.3599         0.625067   
     15. B(C  14,C   3)                  1.3781         0.652724   
     16. B(C  14,O  13)                  1.3477         0.653762   
     17. B(C  15,C  14)                  1.4778         0.452583   
     18. B(H  16,C   0)                  1.0864         0.364956   
     19. B(H  17,C   0)                  1.0874         0.363522   
     20. B(H  18,C   0)                  1.0875         0.363480   
     21. B(H  19,C   7)                  1.0783         0.375957   
     22. B(H  20,C   8)                  1.0804         0.372978   
     23. B(H  21,C  10)                  1.0872         0.363878   
     24. B(H  22,C  10)                  1.0878         0.363015   
     25. B(H  23,C  10)                  1.0905         0.359393   
     26. B(H  24,C  11)                  1.0806         0.372757   
     27. B(H  25,C  12)                  1.0796         0.374095   
     28. B(H  26,C  15)                  1.0860         0.365496   
     29. B(H  27,C  15)                  1.0898         0.360422   
     30. B(H  28,C  15)                  1.0896         0.360585   
     31. A(C   1,C   0,H  18)          109.0931         0.330378   
     32. A(H  16,C   0,H  18)          110.3666         0.291881   
     33. A(H  17,C   0,H  18)          107.3443         0.291700   
     34. A(C   1,C   0,H  16)          110.3399         0.330599   
     35. A(H  16,C   0,H  17)          110.4809         0.291886   
     36. A(C   1,C   0,H  17)          109.1499         0.330384   
     37. A(C   0,C   1,C   3)          114.1695         0.385594   
     38. A(C   0,C   1,O   2)          123.6686         0.442448   
     39. A(O   2,C   1,C   3)          122.1618         0.453700   
     40. A(C   1,C   3,C  14)          128.7580         0.417771   
     41. A(C   1,C   3,N   4)          122.9882         0.408563   
     42. A(N   4,C   3,C  14)          108.2538         0.432303   
     43. A(C   3,N   4,C   5)          105.7218         0.444258   
     44. A(N   4,C   5,C   6)          126.5969         0.434722   
     45. A(C   6,C   5,O  13)          120.5054         0.417108   
     46. A(N   4,C   5,O  13)          112.8975         0.447952   
     47. A(C   5,C   6,C   7)          119.6009         0.418339   
     48. A(C   7,C   6,C  12)          119.3843         0.432692   
     49. A(C   5,C   6,C  12)          121.0148         0.418787   
     50. A(C   6,C   7,H  19)          118.6510         0.354784   
     51. A(C   8,C   7,H  19)          121.3406         0.358519   
     52. A(C   6,C   7,C   8)          120.0083         0.437048   
     53. A(C   7,C   8,C   9)          120.9806         0.437842   
     54. A(C   9,C   8,H  20)          119.3118         0.354910   
     55. A(C   7,C   8,H  20)          119.7076         0.358034   
     56. A(C   8,C   9,C  10)          120.4203         0.405088   
     57. A(C  10,C   9,C  11)          120.9274         0.405705   
     58. A(C   8,C   9,C  11)          118.6445         0.434464   
     59. A(H  22,C  10,H  23)          107.8116         0.291118   
     60. A(H  21,C  10,H  23)          108.1470         0.291227   
     61. A(C   9,C  10,H  23)          109.8498         0.330735   
     62. A(H  21,C  10,H  22)          109.0456         0.291686   
     63. A(C   9,C  10,H  22)          110.8140         0.331284   
     64. A(C   9,C  10,H  21)          111.0756         0.331415   
     65. A(C   9,C  11,C  12)          120.9752         0.437894   
     66. A(C  12,C  11,H  24)          119.5373         0.357514   
     67. A(C   9,C  11,H  24)          119.4876         0.355393   
     68. A(C  11,C  12,H  25)          120.4093         0.357732   
     69. A(C   6,C  12,H  25)          119.5836         0.354847   
     70. A(C   6,C  12,C  11)          120.0070         0.436896   
     71. A(C   5,O  13,C  14)          105.5726         0.433142   
     72. A(O  13,C  14,C  15)          120.3344         0.411543   
     73. A(C   3,C  14,C  15)          132.1114         0.414102   
     74. A(C   3,C  14,O  13)          107.5542         0.439414   
     75. A(H  27,C  15,H  28)          107.9703         0.290942   
     76. A(H  26,C  15,H  28)          109.8393         0.291582   
     77. A(C  14,C  15,H  28)          110.2501         0.334837   
     78. A(H  26,C  15,H  27)          109.7023         0.291561   
     79. A(C  14,C  15,H  27)          110.2313         0.334812   
     80. A(C  14,C  15,H  26)          108.8390         0.335591   
     81. D(C   3,C   1,C   0,H  18)     59.1711         0.012691   
     82. D(O   2,C   1,C   0,H  17)    122.2046         0.012691   
     83. D(C   3,C   1,C   0,H  16)   -179.4232         0.012691   
     84. D(C   3,C   1,C   0,H  17)    -57.8390         0.012691   
     85. D(O   2,C   1,C   0,H  16)      0.6204         0.012691   
     86. D(O   2,C   1,C   0,H  18)   -120.7853         0.012691   
     87. D(N   4,C   3,C   1,C   0)      0.3668         0.015400   
     88. D(C  14,C   3,C   1,C   0)   -179.6914         0.015400   
     89. D(N   4,C   3,C   1,O   2)   -179.6760         0.015400   
     90. D(C  14,C   3,C   1,O   2)      0.2657         0.015400   
     91. D(C   5,N   4,C   3,C  14)     -0.0166         0.026027   
     92. D(C   5,N   4,C   3,C   1)    179.9355         0.026027   
     93. D(C   6,C   5,N   4,C   3)   -179.7786         0.047624   
     94. D(O  13,C   5,N   4,C   3)      0.0288         0.047624   
     95. D(C   7,C   6,C   5,N   4)     -0.4107         0.017763   
     96. D(C  12,C   6,C   5,O  13)     -0.2920         0.017763   
     97. D(C  12,C   6,C   5,N   4)    179.5021         0.017763   
     98. D(C   7,C   6,C   5,O  13)    179.7951         0.017763   
     99. D(H  19,C   7,C   6,C  12)    179.8812         0.025941   
    100. D(H  19,C   7,C   6,C   5)     -0.2045         0.025941   
    101. D(C   8,C   7,C   6,C  12)     -0.0631         0.025941   
    102. D(C   8,C   7,C   6,C   5)    179.8512         0.025941   
    103. D(H  20,C   8,C   7,H  19)      0.0255         0.029581   
    104. D(H  20,C   8,C   7,C   6)    179.9682         0.029581   
    105. D(C   9,C   8,C   7,H  19)   -179.9552         0.029581   
    106. D(C   9,C   8,C   7,C   6)     -0.0124         0.029581   
    107. D(C  11,C   9,C   8,H  20)   -179.9143         0.026500   
    108. D(C  11,C   9,C   8,C   7)      0.0665         0.026500   
    109. D(C  10,C   9,C   8,H  20)      1.0931         0.026500   
    110. D(C  10,C   9,C   8,C   7)   -178.9262         0.026500   
    111. D(H  21,C  10,C   9,C   8)   -159.7541         0.013137   
    112. D(H  23,C  10,C   9,C  11)    -98.3268         0.013137   
    113. D(H  23,C  10,C   9,C   8)     80.6426         0.013137   
    114. D(H  22,C  10,C   9,C  11)    142.6509         0.013137   
    115. D(H  22,C  10,C   9,C   8)    -38.3797         0.013137   
    116. D(H  21,C  10,C   9,C  11)     21.2764         0.013137   
    117. D(H  24,C  11,C   9,C  10)     -1.0934         0.026989   
    118. D(H  24,C  11,C   9,C   8)    179.9192         0.026989   
    119. D(C  12,C  11,C   9,C  10)    178.9420         0.026989   
    120. D(C  12,C  11,C   9,C   8)     -0.0454         0.026989   
    121. D(H  25,C  12,C  11,H  24)     -0.0180         0.029082   
    122. D(C   6,C  12,C  11,H  24)   -179.9941         0.029082   
    123. D(C   6,C  12,C  11,C   9)     -0.0296         0.029082   
    124. D(H  25,C  12,C   6,C   7)   -179.8924         0.026274   
    125. D(H  25,C  12,C   6,C   5)      0.1945         0.026274   
    126. D(H  25,C  12,C  11,C   9)    179.9466         0.029082   
    127. D(C  11,C  12,C   6,C   7)      0.0839         0.026274   
    128. D(C  11,C  12,C   6,C   5)   -179.8292         0.026274   
    129. D(C  14,O  13,C   5,C   6)    179.7908         0.028699   
    130. D(C  14,O  13,C   5,N   4)     -0.0297         0.028699   
    131. D(C  15,C  14,O  13,C   5)   -179.9723         0.031617   
    132. D(C   3,C  14,O  13,C   5)      0.0174         0.031617   
    133. D(C  15,C  14,C   3,N   4)    179.9871         0.029682   
    134. D(C  15,C  14,C   3,C   1)      0.0385         0.029682   
    135. D(O  13,C  14,C   3,N   4)     -0.0010         0.029682   
    136. D(O  13,C  14,C   3,C   1)   -179.9496         0.029682   
    137. D(H  28,C  15,C  14,O  13)    -58.4872         0.015104   
    138. D(H  28,C  15,C  14,C   3)    121.5259         0.015104   
    139. D(H  27,C  15,C  14,O  13)     60.6195         0.015104   
    140. D(H  27,C  15,C  14,C   3)   -119.3674         0.015104   
    141. D(H  26,C  15,C  14,O  13)   -179.0238         0.015104   
    142. D(H  26,C  15,C  14,C   3)      0.9893         0.015104   
    -----------------------------------------------------------------

Number of atoms                         .... 29
Number of degrees of freedom            .... 142

         *************************************************************
         *                GEOMETRY OPTIMIZATION CYCLE   1            *
         *************************************************************
---------------------------------
CARTESIAN COORDINATES (ANGSTROEM)
---------------------------------
  C     -3.558800   -2.207300    1.071700
  C     -3.797300   -0.983800    0.233800
  O     -4.898100   -0.612600   -0.116700
  C     -2.577700   -0.261000   -0.132600
  N     -1.324200   -0.669000    0.248900
  C     -0.503600    0.201400   -0.252300
  C      0.936000    0.199600   -0.127700
  C      1.563500   -0.811700    0.600600
  C      2.936600   -0.823300    0.722300
  C      3.717400    0.164000    0.126600
  C      5.209200    0.125900    0.246700
  C      3.084200    1.168600   -0.596300
  C      1.709800    1.192500   -0.725800
  O     -1.134500    1.180400   -0.954300
  C     -2.448300    0.889500   -0.880100
  C     -3.443600    1.758000   -1.542600
  H     -4.500500   -2.699300    1.298200
  H     -2.895800   -2.882700    0.536200
  H     -3.053200   -1.916800    1.989600
  H      0.953300   -1.572800    1.060000
  H      3.417400   -1.608400    1.287800
  H      5.642000    1.104500    0.054500
  H      5.508800   -0.206200    1.238300
  H      5.621300   -0.576200   -0.478900
  H      3.676800    1.942300   -1.063100
  H      1.227500    1.977500   -1.288600
  H     -4.436800    1.363300   -1.350100
  H     -3.262000    1.788000   -2.616700
  H     -3.369700    2.775800   -1.160600

----------------------------
CARTESIAN COORDINATES (A.U.)
----------------------------
  NO LB      ZA    FRAG     MASS         X           Y           Z
   0 C     6.0000    0    12.011   -6.725157   -4.171192    2.025219
   1 C     6.0000    0    12.011   -7.175857   -1.859113    0.441818
   2 O     8.0000    0    15.999   -9.256068   -1.157646   -0.220531
   3 C     6.0000    0    12.011   -4.871147   -0.493219   -0.250578
   4 N     7.0000    0    14.007   -2.502375   -1.264227    0.470353
   5 C     6.0000    0    12.011   -0.951666    0.380591   -0.476778
   6 C     6.0000    0    12.011    1.768784    0.377189   -0.241318
   7 C     6.0000    0    12.011    2.954587   -1.533891    1.134970
   8 C     6.0000    0    12.011    5.549370   -1.555812    1.364949
   9 C     6.0000    0    12.011    7.024868    0.309915    0.239239
  10 C     6.0000    0    12.011    9.843961    0.237917    0.466195
  11 C     6.0000    0    12.011    5.828293    2.208334   -1.126844
  12 C     6.0000    0    12.011    3.231054    2.253498   -1.371563
  13 O     8.0000    0    15.999   -2.143894    2.230633   -1.803366
  14 C     6.0000    0    12.011   -4.626616    1.680911   -1.663148
  15 C     6.0000    0    12.011   -6.507461    3.322139   -2.915092
  16 H     1.0000    0     1.008   -8.504712   -5.100938    2.453242
  17 H     1.0000    0     1.008   -5.472269   -5.447514    1.013271
  18 H     1.0000    0     1.008   -5.769712   -3.622227    3.759799
  19 H     1.0000    0     1.008    1.801476   -2.972161    2.003110
  20 H     1.0000    0     1.008    6.457950   -3.039436    2.433589
  21 H     1.0000    0     1.008   10.661835    2.087203    0.102990
  22 H     1.0000    0     1.008   10.410123   -0.389662    2.340048
  23 H     1.0000    0     1.008   10.622718   -1.088860   -0.904990
  24 H     1.0000    0     1.008    6.948145    3.670415   -2.008968
  25 H     1.0000    0     1.008    2.319639    3.736933   -2.435101
  26 H     1.0000    0     1.008   -8.384337    2.576264   -2.551319
  27 H     1.0000    0     1.008   -6.164287    3.378830   -4.944846
  28 H     1.0000    0     1.008   -6.367810    5.245502   -2.193216

--------------------------------
INTERNAL COORDINATES (ANGSTROEM)
--------------------------------
 C      0   0   0     0.000000000000     0.00000000     0.00000000
 C      1   0   0     1.501969010999     0.00000000     0.00000000
 O      2   1   0     1.213425040948   123.66860825     0.00000000
 C      2   1   3     1.464278989810   114.16953814   179.95642994
 N      4   2   1     1.372322301794   122.98819561     0.36683836
 C      5   4   2     1.296989575903   105.72182591   179.93554321
 C      6   5   4     1.444983238657   126.59686485   180.22139381
 C      7   6   5     1.395315315619   119.60086122   359.58927622
 C      8   7   6     1.378531486764   120.00833756   179.85119441
 C      9   8   7     1.392576181040   120.98061831     0.00000000
 C     10   9   8     1.497111505533   120.42031096   181.07380544
 C     10   9   8     1.390233005650   118.64452198     0.06647327
 C     12  10   9     1.380694325331   120.97516618   359.95464381
 O      6   5   4     1.359882277993   112.89749171     0.02884772
 C     14   6   5     1.347664234889   105.57264036   359.97026750
 C     15  14   6     1.477775554677   120.33437338   180.02765433
 H      1   2   3     1.086354058307   110.33992995     0.62036067
 H      1   2   3     1.087425588259   109.14988915   122.20456449
 H      1   2   3     1.087456674999   109.09308355   239.21466138
 H      8   7   6     1.078269729706   118.65104170   359.79548561
 H      9   8   7     1.080435514041   119.70760547   179.96824022
 H     11  10   9     1.087158976415   111.07558904   200.24585705
 H     11  10   9     1.087805649002   110.81400820   321.62030048
 H     11  10   9     1.090534813750   109.84980215    80.64257514
 H     12  10   9     1.080596451040   119.48755295   179.91923801
 H     13  12  10     1.079621290083   120.40934265   179.94656397
 H     16  15  14     1.085951463004   108.83900871   180.97617818
 H     16  15  14     1.089756564559   110.23132285    60.61948716
 H     16  15  14     1.089633906411   110.25007795   301.51277378

---------------------------
INTERNAL COORDINATES (A.U.)
---------------------------
 C      0   0   0     0.000000000000     0.00000000     0.00000000
 C      1   0   0     2.838310092424     0.00000000     0.00000000
 O      2   1   0     2.293041011434   123.66860825     0.00000000
 C      2   1   3     2.767086274396   114.16953814   179.95642994
 N      4   2   1     2.593313317862   122.98819561     0.36683836
 C      5   4   2     2.450955097007   105.72182591   179.93554321
 C      6   5   4     2.730622589169   126.59686485   180.22139381
 C      7   6   5     2.636763816985   119.60086122   359.58927622
 C      8   7   6     2.605046976971   120.00833756   179.85119441
 C      9   8   7     2.631587602788   120.98061831     0.00000000
 C     10   9   8     2.829130737400   120.42031096   181.07380544
 C     10   9   8     2.627159643018   118.64452198     0.06647327
 C     12  10   9     2.609134149534   120.97516618   359.95464381
 O      6   5   4     2.569805079780   112.89749171     0.02884772
 C     14   6   5     2.546716324421   105.57264036   359.97026750
 C     15  14   6     2.792591085743   120.33437338   180.02765433
 H      1   2   3     2.052911654674   110.33992995     0.62036067
 H      1   2   3     2.054936552827   109.14988915   122.20456449
 H      1   2   3     2.054995298253   109.09308355   239.21466138
 H      8   7   6     2.037634487641   118.65104170   359.79548561
 H      9   8   7     2.041727226899   119.70760547   179.96824022
 H     11  10   9     2.054432729459   111.07558904   200.24585705
 H     11  10   9     2.055654763546   110.81400820   321.62030048
 H     11  10   9     2.060812137494   109.84980215    80.64257514
 H     12  10   9     2.042031353753   119.48755295   179.91923801
 H     13  12  10     2.040188566607   120.40934265   179.94656397
 H     16  15  14     2.052150859808   108.83900871   180.97617818
 H     16  15  14     2.059341459660   110.23132285    60.61948716
 H     16  15  14     2.059109669351   110.25007795   301.51277378

---------------------
BASIS SET INFORMATION
---------------------
There are 4 groups of distinct atoms

 Group   1 Type C   : 19s6p3d2f contracted to 5s4p3d2f pattern {88111/3111/111/11}
 Group   2 Type O   : 19s6p3d2f contracted to 5s4p3d2f pattern {88111/3111/111/11}
 Group   3 Type N   : 19s6p3d2f contracted to 5s4p3d2f pattern {88111/3111/111/11}
 Group   4 Type H   : 5s2p1d contracted to 3s2p1d pattern {311/11/1}

Atom   0C    basis set group =>   1
Atom   1C    basis set group =>   1
Atom   2O    basis set group =>   2
Atom   3C    basis set group =>   1
Atom   4N    basis set group =>   3
Atom   5C    basis set group =>   1
Atom   6C    basis set group =>   1
Atom   7C    basis set group =>   1
Atom   8C    basis set group =>   1
Atom   9C    basis set group =>   1
Atom  10C    basis set group =>   1
Atom  11C    basis set group =>   1
Atom  12C    basis set group =>   1
Atom  13O    basis set group =>   2
Atom  14C    basis set group =>   1
Atom  15C    basis set group =>   1
Atom  16H    basis set group =>   4
Atom  17H    basis set group =>   4
Atom  18H    basis set group =>   4
Atom  19H    basis set group =>   4
Atom  20H    basis set group =>   4
Atom  21H    basis set group =>   4
Atom  22H    basis set group =>   4
Atom  23H    basis set group =>   4
Atom  24H    basis set group =>   4
Atom  25H    basis set group =>   4
Atom  26H    basis set group =>   4
Atom  27H    basis set group =>   4
Atom  28H    basis set group =>   4
---------------------------------
AUXILIARY/J BASIS SET INFORMATION
---------------------------------
There are 4 groups of distinct atoms

 Group   1 Type C   : 10s7p5d2f1g contracted to 10s7p5d2f1g pattern {1111111111/1111111/11111/11/1}
 Group   2 Type O   : 10s7p5d2f1g contracted to 10s7p5d2f1g pattern {1111111111/1111111/11111/11/1}
 Group   3 Type N   : 10s7p5d2f1g contracted to 10s7p5d2f1g pattern {1111111111/1111111/11111/11/1}
 Group   4 Type H   : 4s3p2d1f contracted to 4s3p2d1f pattern {1111/111/11/1}

Atom   0C    basis set group =>   1
Atom   1C    basis set group =>   1
Atom   2O    basis set group =>   2
Atom   3C    basis set group =>   1
Atom   4N    basis set group =>   3
Atom   5C    basis set group =>   1
Atom   6C    basis set group =>   1
Atom   7C    basis set group =>   1
Atom   8C    basis set group =>   1
Atom   9C    basis set group =>   1
Atom  10C    basis set group =>   1
Atom  11C    basis set group =>   1
Atom  12C    basis set group =>   1
Atom  13O    basis set group =>   2
Atom  14C    basis set group =>   1
Atom  15C    basis set group =>   1
Atom  16H    basis set group =>   4
Atom  17H    basis set group =>   4
Atom  18H    basis set group =>   4
Atom  19H    basis set group =>   4
Atom  20H    basis set group =>   4
Atom  21H    basis set group =>   4
Atom  22H    basis set group =>   4
Atom  23H    basis set group =>   4
Atom  24H    basis set group =>   4
Atom  25H    basis set group =>   4
Atom  26H    basis set group =>   4
Atom  27H    basis set group =>   4
Atom  28H    basis set group =>   4
---------------------------------
AUXILIARY/C BASIS SET INFORMATION
---------------------------------
There are 4 groups of distinct atoms

 Group   1 Type C   : 9s7p6d4f2g contracted to 9s7p6d4f2g pattern {111111111/1111111/111111/1111/11}
 Group   2 Type O   : 9s7p6d4f2g contracted to 9s7p6d4f2g pattern {111111111/1111111/111111/1111/11}
 Group   3 Type N   : 9s7p6d4f2g contracted to 9s7p6d4f2g pattern {111111111/1111111/111111/1111/11}
 Group   4 Type H   : 4s3p2d1f contracted to 4s3p2d1f pattern {1111/111/11/1}

Atom   0C    basis set group =>   1
Atom   1C    basis set group =>   1
Atom   2O    basis set group =>   2
Atom   3C    basis set group =>   1
Atom   4N    basis set group =>   3
Atom   5C    basis set group =>   1
Atom   6C    basis set group =>   1
Atom   7C    basis set group =>   1
Atom   8C    basis set group =>   1
Atom   9C    basis set group =>   1
Atom  10C    basis set group =>   1
Atom  11C    basis set group =>   1
Atom  12C    basis set group =>   1
Atom  13O    basis set group =>   2
Atom  14C    basis set group =>   1
Atom  15C    basis set group =>   1
Atom  16H    basis set group =>   4
Atom  17H    basis set group =>   4
Atom  18H    basis set group =>   4
Atom  19H    basis set group =>   4
Atom  20H    basis set group =>   4
Atom  21H    basis set group =>   4
Atom  22H    basis set group =>   4
Atom  23H    basis set group =>   4
Atom  24H    basis set group =>   4
Atom  25H    basis set group =>   4
Atom  26H    basis set group =>   4
Atom  27H    basis set group =>   4
Atom  28H    basis set group =>   4


           ************************************************************
           *        Program running with 4 parallel MPI-processes     *
           *              working on a common directory               *
           ************************************************************
------------------------------------------------------------------------------
                           ORCA GTO INTEGRAL CALCULATION
                           -- RI-GTO INTEGRALS CHOSEN --
------------------------------------------------------------------------------
------------------------------------------------------------------------------
                   ___                                                        
                  /   \      - P O W E R E D   B Y -                         
                 /     \                                                     
                 |  |  |   _    _      __       _____    __    __             
                 |  |  |  | |  | |    /  \     |  _  \  |  |  /  |          
                  \  \/   | |  | |   /    \    | | | |  |  | /  /          
                 / \  \   | |__| |  /  /\  \   | |_| |  |  |/  /          
                |  |  |   |  __  | /  /__\  \  |    /   |      \           
                |  |  |   | |  | | |   __   |  |    \   |  |\   \          
                \     /   | |  | | |  |  |  |  | |\  \  |  | \   \       
                 \___/    |_|  |_| |__|  |__|  |_| \__\ |__|  \__/        
                                                                              
                      - O R C A' S   B I G   F R I E N D -                    
                                      &                                       
                       - I N T E G R A L  F E E D E R -                       
                                                                              
 v1 FN, 2020, v2 2021                                                         
------------------------------------------------------------------------------


Reading SHARK input file optpbed3-b2plyp-test-173.SHARKINP.tmp ... ok
----------------------
SHARK INTEGRAL PACKAGE
----------------------

Number of atoms                             ...     29
Number of basis functions                   ...   1014
Number of shells                            ...    398
Maximum angular momentum                    ...      3
Integral batch strategy                     ... SHARK/LIBINT Hybrid
RI-J (if used) integral strategy            ... SPLIT-RIJ (Revised 2003 algorithm where possible)
Printlevel                                  ...      1
Contraction scheme used                     ... PARTIAL GENERAL contraction
Coulomb Range Separation                    ... NOT USED
Exchange Range Separation                   ... NOT USED
Finite Nucleus Model                        ... NOT USED
Auxiliary Coulomb fitting basis             ... AVAILABLE
   # of basis functions in Aux-J            ...   1654
   # of shells in Aux-J                     ...    530
   Maximum angular momentum in Aux-J        ...      4
Auxiliary J/K fitting basis                 ... NOT available
Auxiliary Correlation fitting basis         ... AVAILABLE
   # of basis functions in Aux-C            ...   2086
   # of shells in Aux-C                     ...    578
   Maximum angular momentum in Aux-C        ...      4
Auxiliary 'external' fitting basis          ... NOT available
Integral threshold                          ...     2.500000e-11
Primitive cut-off                           ...     2.500000e-12
Primitive pair pre-selection threshold      ...     2.500000e-12

Calculating pre-screening integrals         ... done (  0.2 sec) Dimension = 398
Calculating pre-screening integrals (ORCA)  ... done (  0.5 sec) Dimension = 302
Organizing shell pair data                  ... done (  0.7 sec)
Shell pair information
Total number of shell pairs                 ...     79401
Shell pairs after pre-screening             ...     53205
Total number of primitive shell pairs       ...    104283
Primitive shell pairs kept                  ...     63081
          la=0 lb=0:  12347 shell pairs
          la=1 lb=0:  13605 shell pairs
          la=1 lb=1:   3316 shell pairs
          la=2 lb=0:   8937 shell pairs
          la=2 lb=1:   4350 shell pairs
          la=2 lb=2:   1485 shell pairs
          la=3 lb=0:   4816 shell pairs
          la=3 lb=1:   2333 shell pairs
          la=3 lb=2:   1575 shell pairs
          la=3 lb=3:    441 shell pairs

Calculating one electron integrals          ... done (  0.2 sec)
Calculating RI/J V-Matrix + Cholesky decomp.... done (  0.4 sec)
Calculating RI/C V-Matrix + Cholesky decomp.... done (  0.4 sec)
Calculating Nuclear repulsion               ... done (  0.0 sec) ENN=   1016.040695489570 Eh

SHARK setup successfully completed in   3.6 seconds

Maximum memory used throughout the entire GTOINT-calculation: 82.9 MB


           ************************************************************
           *        Program running with 4 parallel MPI-processes     *
           *              working on a common directory               *
           ************************************************************
-------------------------------------------------------------------------------
                                 ORCA SCF
-------------------------------------------------------------------------------

------------
SCF SETTINGS
------------
Hamiltonian:
 Density Functional     Method          .... DFT(GTOs)
 Exchange Functional    Exchange        .... PBE
   PBE kappa parameter   XKappa         ....  0.804000
   PBE mue parameter    XMuePBE         ....  0.219520
 Correlation Functional Correlation     .... PBE
   PBE beta parameter  CBetaPBE         ....  0.066725
 LDA part of GGA corr.  LDAOpt          .... PW91-LDA
 Gradients option       PostSCFGGA      .... off
 Hybrid DFT is turned on
   Fraction HF Exchange ScalHFX         ....  0.250000
   Scaling of DF-GGA-X  ScalDFX         ....  0.750000
   Scaling of DF-GGA-C  ScalDFC         ....  1.000000
   Scaling of DF-LDA-C  ScalLDAC        ....  1.000000
   Perturbative correction              ....  0.000000
   Density functional embedding theory  .... OFF
   NL short-range parameter             ....  6.900000
 RI-approximation to the Coulomb term is turned on
   Number of AuxJ basis functions       .... 1654
   RIJ-COSX (HFX calculated with COS-X)).... on


General Settings:
 Integral files         IntName         .... optpbed3-b2plyp-test-173
 Hartree-Fock type      HFTyp           .... RHF
 Total Charge           Charge          ....    0
 Multiplicity           Mult            ....    1
 Number of Electrons    NEL             ....  114
 Basis Dimension        Dim             ....  918
 Nuclear Repulsion      ENuc            ....   1016.0406954896 Eh

Convergence Acceleration:
 DIIS                   CNVDIIS         .... on
   Start iteration      DIISMaxIt       ....    12
   Startup error        DIISStart       ....  0.200000
   # of expansion vecs  DIISMaxEq       ....     5
   Bias factor          DIISBfac        ....   1.050
   Max. coefficient     DIISMaxC        ....  10.000
 Trust-Rad. Augm. Hess. CNVTRAH         .... auto
   Auto Start mean grad. ratio tolernc. ....  1.125000
   Auto Start start iteration           ....    20
   Auto Start num. interpolation iter.  ....    10
   Max. Number of Micro iterations      ....    16
   Max. Number of Macro iterations      .... Maxiter - #DIIS iter
   Number of Davidson start vectors     ....     2
   Converg. threshold I  (grad. norm)   ....   1.000e-05
   Converg. threshold II (energy diff.) ....   1.000e-08
   Grad. Scal. Fac. for Micro threshold ....   0.100
   Minimum threshold for Micro iter.    ....   0.010
   NR start threshold (gradient norm)   ....   0.001
   Initial trust radius                 ....   0.400
   Minimum AH scaling param. (alpha)    ....   1.000
   Maximum AH scaling param. (alpha)    .... 1000.000
   Orbital update algorithm             .... Taylor
   White noise on init. David. guess    .... on
   Maximum white noise                  ....   0.010
   Quad. conv. algorithm                .... NR
 SOSCF                  CNVSOSCF        .... on
   Start iteration      SOSCFMaxIt      ....   150
   Startup grad/error   SOSCFStart      ....  0.003300
 Level Shifting         CNVShift        .... on
   Level shift para.    LevelShift      ....    0.2500
   Turn off err/grad.   ShiftErr        ....    0.0010
 Zerner damping         CNVZerner       .... off
 Static damping         CNVDamp         .... on
   Fraction old density DampFac         ....    0.7000
   Max. Damping (<1)    DampMax         ....    0.9800
   Min. Damping (>=0)   DampMin         ....    0.0000
   Turn off err/grad.   DampErr         ....    0.1000
 Fernandez-Rico         CNVRico         .... off

SCF Procedure:
 Maximum # iterations   MaxIter         ....   125
 SCF integral mode      SCFMode         .... Direct
   Integral package                     .... SHARK and LIBINT hybrid scheme
 Reset frequency        DirectResetFreq ....    20
 Integral Threshold     Thresh          ....  2.500e-11 Eh
 Primitive CutOff       TCut            ....  2.500e-12 Eh

Convergence Tolerance:
 Convergence Check Mode ConvCheckMode   .... Total+1el-Energy
 Convergence forced     ConvForced      .... 0
 Energy Change          TolE            ....  1.000e-08 Eh
 1-El. energy change                    ....  1.000e-05 Eh
 Orbital Gradient       TolG            ....  1.000e-05
 Orbital Rotation angle TolX            ....  1.000e-05
 DIIS Error             TolErr          ....  5.000e-07


Diagonalization of the overlap matrix:
Smallest eigenvalue                        ... 6.198e-07
Time for diagonalization                   ...    0.367 sec
Threshold for overlap eigenvalues          ... 1.000e-08
Number of eigenvalues below threshold      ... 0
Time for construction of square roots      ...    0.202 sec
Total time needed                          ...    0.574 sec

Time for model grid setup =    1.040 sec

------------------------------
INITIAL GUESS: MODEL POTENTIAL
------------------------------
Loading Hartree-Fock densities                     ... done
Calculating cut-offs                               ... done
Initializing the effective Hamiltonian             ... done
Setting up the integral package (SHARK)            ... done
Starting the Coulomb interaction                   ... done (   2.0 sec)
Reading the grid                                   ... done
Mapping shells                                     ... done
Starting the XC term evaluation                    ... done (   1.8 sec)
  promolecular density results
     # of electrons  =    113.992641034
     EX              =    -93.237013362
     EC              =     -3.816373700
     EX+EC           =    -97.053387062
Transforming the Hamiltonian                       ... done (   0.2 sec)
Diagonalizing the Hamiltonian                      ... done (   0.4 sec)
Back transforming the eigenvectors                 ... done (   0.1 sec)
Now organizing SCF variables                       ... done
                      ------------------
                      INITIAL GUESS DONE (   5.7 sec)
                      ------------------
-------------------
DFT GRID GENERATION
-------------------

General Integration Accuracy     IntAcc      ... 4.388
Radial Grid Type                 RadialGrid  ... OptM3 with GC (2021)
Angular Grid (max. ang.)         AngularGrid ... 4 (Lebedev-302)
Angular grid pruning method      GridPruning ... 4 (adaptive)
Weight generation scheme         WeightScheme... Becke
Basis function cutoff            BFCut       ... 1.0000e-11
Integration weight cutoff        WCut        ... 1.0000e-14
Angular grids for H and He will be reduced by one unit
Partially contracted basis set               ... off
Rotationally invariant grid construction     ... off

Total number of grid points                  ...   141815
Total number of batches                      ...     2231
Average number of points per batch           ...       63
Average number of grid points per atom       ...     4890
Time for grid setup =    2.832 sec

--------------------
COSX GRID GENERATION
--------------------

GRIDX 1
-------
General Integration Accuracy     IntAcc      ... 3.816
Radial Grid Type                 RadialGrid  ... OptM3 with GC (2021)
Angular Grid (max. ang.)         AngularGrid ... 1 (Lebedev-50)
Angular grid pruning method      GridPruning ... 4 (adaptive)
Weight generation scheme         WeightScheme... Becke
Basis function cutoff            BFCut       ... 1.0000e-11
Integration weight cutoff        WCut        ... 1.0000e-14
Angular grids for H and He will be reduced by one unit
Partially contracted basis set               ... on
Rotationally invariant grid construction     ... off

Total number of grid points                  ...    18086
Total number of batches                      ...      301
Average number of points per batch           ...       60
Average number of grid points per atom       ...      624
UseSFitting                                  ... on

GRIDX 2
-------
General Integration Accuracy     IntAcc      ... 4.020
Radial Grid Type                 RadialGrid  ... OptM3 with GC (2021)
Angular Grid (max. ang.)         AngularGrid ... 2 (Lebedev-110)
Angular grid pruning method      GridPruning ... 4 (adaptive)
Weight generation scheme         WeightScheme... Becke
Basis function cutoff            BFCut       ... 1.0000e-11
Integration weight cutoff        WCut        ... 1.0000e-14
Angular grids for H and He will be reduced by one unit
Partially contracted basis set               ... on
Rotationally invariant grid construction     ... off

Total number of grid points                  ...    42808
Total number of batches                      ...      686
Average number of points per batch           ...       62
Average number of grid points per atom       ...     1476
UseSFitting                                  ... on

GRIDX 3
-------
General Integration Accuracy     IntAcc      ... 4.338
Radial Grid Type                 RadialGrid  ... OptM3 with GC (2021)
Angular Grid (max. ang.)         AngularGrid ... 3 (Lebedev-194)
Angular grid pruning method      GridPruning ... 4 (adaptive)
Weight generation scheme         WeightScheme... Becke
Basis function cutoff            BFCut       ... 1.0000e-11
Integration weight cutoff        WCut        ... 1.0000e-14
Angular grids for H and He will be reduced by one unit
Partially contracted basis set               ... on
Rotationally invariant grid construction     ... off

Total number of grid points                  ...    92228
Total number of batches                      ...     1454
Average number of points per batch           ...       63
Average number of grid points per atom       ...     3180
UseSFitting                                  ... on

Time for X-Grid setup             =    6.783 sec


--------------------
CPCM SOLVATION MODEL
--------------------
CPCM parameters:
  Epsilon                                         ...       1.8819
  Refrac                                          ...       1.3749
  Rsolv                                           ...       1.3000
  Surface type                                    ... GAUSSIAN VDW
  Epsilon function type                           ...         CPCM
Solvent:                                     ... N-HEXANE
SMD-CDS solvent descriptors:
  Soln                                       ...    1.3749
  Soln25                                     ...    1.3722
  Sola                                       ...    0.0000
  Solb                                       ...    0.0000
  Solg                                       ...   25.7500
  Solc                                       ...    0.0000
  Solh                                       ...    0.0000
Radii:
 Radius for C  used is    3.4960 Bohr (=   1.8500 Ang.)
 Radius for O  used is    4.3350 Bohr (=   2.2940 Ang.)
 Radius for N  used is    3.5716 Bohr (=   1.8900 Ang.)
 Radius for H  used is    2.2677 Bohr (=   1.2000 Ang.)
Calculating surface                               ...        done! (  0.0s)
GEPOL surface points                              ...         1607
GEPOL Volume                                      ...    1711.9057
GEPOL Surface-area                                ...     940.8544
Calculating surface distance matrix               ...        done! (  0.1s)
Performing Cholesky decomposition & store         ...        done! (  0.2s)
Overall time for CPCM initialization              ...                 0.3s
 re-compute Schwartz prescreening matrix in partically contracted basis (1) ...done (   0.214 sec)
--------------
SCF ITERATIONS
--------------
ITER       Energy         Delta-E        Max-DP      RMS-DP      [F,P]     Damp
               ***  Starting incremental Fock matrix formation  ***
  0   -707.4529738270   0.000000000000 0.11881998  0.00101088  0.2807796 0.7000
  1   -707.6383706068  -0.185396779802 0.09924485  0.00075081  0.1128326 0.7000
                               ***Turning on DIIS***
  2   -707.7152924189  -0.076921812106 0.24486335  0.00156338  0.0440841 0.0000
  3   -707.8334059371  -0.118113518277 0.05108609  0.00040591  0.0585297 0.0000
  4   -707.8594362423  -0.026030305191 0.02256428  0.00012654  0.0147202 0.0000
  5   -707.8608976321  -0.001461389728 0.01283746  0.00005638  0.0078766 0.0000
                      *** Initiating the SOSCF procedure ***
                           *** Shutting down DIIS ***
                      *** Re-Reading the Fockian *** 
                      *** Removing any level shift *** 
ITER      Energy       Delta-E        Grad      Rot      Max-DP    RMS-DP
  6   -707.86101325  -0.0001156187  0.000268  0.000268  0.006631  0.000027
               *** Restarting incremental Fock matrix formation ***
  7   -707.86104080  -0.0000275532  0.000262  0.000788  0.021959  0.000243
  8   -707.86103954   0.0000012672  0.000349  0.000339  0.003938  0.000050
  9   -707.86104320  -0.0000036592  0.000035  0.000086  0.004511  0.000060
 10   -707.86104320  -0.0000000078  0.000050  0.000049  0.002782  0.000022
 11   -707.86104333  -0.0000001300  0.000012  0.000023  0.006100  0.000034
 12   -707.86104334  -0.0000000099  0.000009  0.000015  0.001819  0.000016
                  ***Gradient check signals convergence***
              ***Rediagonalizing the Fockian in SOSCF/NRSCF***

               *****************************************************
               *                     SUCCESS                       *
               *           SCF CONVERGED AFTER  13 CYCLES          *
               *****************************************************

Old exchange energy                            =    -23.789150577 Eh
New exchange energy                            =    -23.789132016 Eh
Exchange energy change after final integration =      0.000018561 Eh
Total energy after final integration           =   -707.861024793 Eh
Final COS-X integration done in                =    89.978 sec

SMD CDS free energy correction energy :                -6.12192     Kcal/mol
Total Energy after SMD CDS correction =              -707.870780696 Eh

----------------
TOTAL SCF ENERGY
----------------

Total Energy       :         -707.87078070 Eh          -19262.14321 eV

Components:
Nuclear Repulsion  :         1016.04069549 Eh           27647.87291 eV
Electronic Energy  :        -1723.91147619 Eh          -46910.01613 eV
One Electron Energy:        -2976.95769120 Eh          -81007.13710 eV
Two Electron Energy:         1253.04621502 Eh           34097.12097 eV
Max COSX asymmetry :            0.00004554 Eh               0.00124 eV
CPCM Dielectric    :           -0.00602136 Eh              -0.16385 eV
SMD CDS (Gcds)     :           -0.00975590 Eh              -0.26547 eV

Virial components:
Potential Energy   :        -1411.77471287 Eh          -38416.34299 eV
Kinetic Energy     :          703.90393217 Eh           19154.19978 eV
Virial Ratio       :            2.00563550


DFT components:
N(Alpha)           :       56.999995939939 electrons
N(Beta)            :       56.999995939939 electrons
N(Total)           :      113.999991879877 electrons
E(X)               :      -71.194408253676 Eh       
E(C)               :       -3.822456715922 Eh       
E(XC)              :      -75.016864969598 Eh       
DFET-embed. en.    :        0.000000000000 Eh       
CPCM Solvation Model Properties:
Surface-charge          :           -0.04711025
Charge-correction       :            0.00006153 Eh               0.00167 eV
Free-energy (cav+disp)  :           -0.00975590 Eh              -0.26547 eV

---------------
SCF CONVERGENCE
---------------

  Last Energy change         ...   -1.0329e-08  Tolerance :   1.0000e-08
  Last MAX-Density change    ...    3.7748e-15  Tolerance :   1.0000e-07
  Last RMS-Density change    ...    1.3911e-17  Tolerance :   5.0000e-09
  Last Orbital Gradient      ...    1.6842e-06  Tolerance :   1.0000e-05
  Last Orbital Rotation      ...    7.5733e-06  Tolerance :   1.0000e-05

             **** THE GBW FILE WAS UPDATED (optpbed3-b2plyp-test-173.gbw) ****
             **** DENSITY optpbed3-b2plyp-test-173.scfp WAS UPDATED ****
             **** ENERGY FILE WAS UPDATED (optpbed3-b2plyp-test-173.en.tmp) ****
             **** THE GBW FILE WAS UPDATED (optpbed3-b2plyp-test-173.gbw) ****
             **** DENSITY optpbed3-b2plyp-test-173.scfp WAS UPDATED ****
----------------
ORBITAL ENERGIES
----------------

  NO   OCC          E(Eh)            E(eV) 
   0   2.0000     -19.303052      -525.2627 
   1   2.0000     -19.193898      -522.2925 
   2   2.0000     -14.388772      -391.5384 
   3   2.0000     -10.323097      -280.9058 
   4   2.0000     -10.314335      -280.6673 
   5   2.0000     -10.308593      -280.5111 
   6   2.0000     -10.256489      -279.0933 
   7   2.0000     -10.250760      -278.9374 
   8   2.0000     -10.245759      -278.8013 
   9   2.0000     -10.237932      -278.5883 
  10   2.0000     -10.236010      -278.5360 
  11   2.0000     -10.231431      -278.4114 
  12   2.0000     -10.231122      -278.4030 
  13   2.0000     -10.229807      -278.3672 
  14   2.0000     -10.220125      -278.1037 
  15   2.0000     -10.213440      -277.9218 
  16   2.0000      -1.184566       -32.2337 
  17   2.0000      -1.071983       -29.1701 
  18   2.0000      -0.964536       -26.2464 
  19   2.0000      -0.903715       -24.5913 
  20   2.0000      -0.846231       -23.0271 
  21   2.0000      -0.805700       -21.9242 
  22   2.0000      -0.782359       -21.2891 
  23   2.0000      -0.775148       -21.0929 
  24   2.0000      -0.742853       -20.2141 
  25   2.0000      -0.707822       -19.2608 
  26   2.0000      -0.673137       -18.3170 
  27   2.0000      -0.637591       -17.3497 
  28   2.0000      -0.624360       -16.9897 
  29   2.0000      -0.607987       -16.5442 
  30   2.0000      -0.575653       -15.6643 
  31   2.0000      -0.533216       -14.5095 
  32   2.0000      -0.519299       -14.1308 
  33   2.0000      -0.499207       -13.5841 
  34   2.0000      -0.488665       -13.2973 
  35   2.0000      -0.479047       -13.0355 
  36   2.0000      -0.468300       -12.7431 
  37   2.0000      -0.453719       -12.3463 
  38   2.0000      -0.448256       -12.1977 
  39   2.0000      -0.442075       -12.0295 
  40   2.0000      -0.441716       -12.0197 
  41   2.0000      -0.435712       -11.8563 
  42   2.0000      -0.432845       -11.7783 
  43   2.0000      -0.425349       -11.5743 
  44   2.0000      -0.409092       -11.1320 
  45   2.0000      -0.400985       -10.9114 
  46   2.0000      -0.392940       -10.6925 
  47   2.0000      -0.388096       -10.5606 
  48   2.0000      -0.376348       -10.2410 
  49   2.0000      -0.368344       -10.0231 
  50   2.0000      -0.356696        -9.7062 
  51   2.0000      -0.346914        -9.4400 
  52   2.0000      -0.316518        -8.6129 
  53   2.0000      -0.292729        -7.9655 
  54   2.0000      -0.277586        -7.5535 
  55   2.0000      -0.266543        -7.2530 
  56   2.0000      -0.232525        -6.3273 
  57   0.0000      -0.048428        -1.3178 
  58   0.0000      -0.043699        -1.1891 
  59   0.0000      -0.015724        -0.4279 
  60   0.0000       0.002981         0.0811 
  61   0.0000       0.008605         0.2342 
  62   0.0000       0.015360         0.4180 
  63   0.0000       0.025303         0.6885 
  64   0.0000       0.028413         0.7732 
  65   0.0000       0.030554         0.8314 
  66   0.0000       0.035858         0.9757 
  67   0.0000       0.038690         1.0528 
  68   0.0000       0.046409         1.2629 
  69   0.0000       0.049646         1.3509 
  70   0.0000       0.050969         1.3869 
  71   0.0000       0.056095         1.5264 
  72   0.0000       0.059259         1.6125 
  73   0.0000       0.064076         1.7436 
  74   0.0000       0.067434         1.8350 
  75   0.0000       0.071998         1.9592 
  76   0.0000       0.073849         2.0095 
  77   0.0000       0.077198         2.1007 
  78   0.0000       0.081093         2.2067 
  79   0.0000       0.091558         2.4914 
  80   0.0000       0.094980         2.5846 
  81   0.0000       0.096635         2.6296 
  82   0.0000       0.099027         2.6947 
  83   0.0000       0.099667         2.7121 
  84   0.0000       0.105353         2.8668 
  85   0.0000       0.108312         2.9473 
  86   0.0000       0.109866         2.9896 
  87   0.0000       0.121672         3.3109 
  88   0.0000       0.122770         3.3408 
  89   0.0000       0.125755         3.4220 
  90   0.0000       0.128844         3.5060 
  91   0.0000       0.133736         3.6391 
  92   0.0000       0.134079         3.6485 
  93   0.0000       0.135055         3.6750 
  94   0.0000       0.138088         3.7576 
  95   0.0000       0.140816         3.8318 
  96   0.0000       0.143452         3.9035 
  97   0.0000       0.147917         4.0250 
  98   0.0000       0.149537         4.0691 
  99   0.0000       0.155036         4.2187 
 100   0.0000       0.156362         4.2548 
 101   0.0000       0.158672         4.3177 
 102   0.0000       0.162230         4.4145 
 103   0.0000       0.165002         4.4899 
 104   0.0000       0.166209         4.5228 
 105   0.0000       0.169736         4.6187 
 106   0.0000       0.173105         4.7104 
 107   0.0000       0.174588         4.7508 
 108   0.0000       0.177104         4.8193 
 109   0.0000       0.178815         4.8658 
 110   0.0000       0.180725         4.9178 
 111   0.0000       0.184012         5.0072 
 112   0.0000       0.187959         5.1146 
 113   0.0000       0.189649         5.1606 
 114   0.0000       0.196921         5.3585 
 115   0.0000       0.198186         5.3929 
 116   0.0000       0.199035         5.4160 
 117   0.0000       0.204617         5.5679 
 118   0.0000       0.205069         5.5802 
 119   0.0000       0.207437         5.6447 
 120   0.0000       0.212682         5.7874 
 121   0.0000       0.215075         5.8525 
 122   0.0000       0.221323         6.0225 
 123   0.0000       0.225133         6.1262 
 124   0.0000       0.227408         6.1881 
 125   0.0000       0.234040         6.3685 
 126   0.0000       0.234741         6.3876 
 127   0.0000       0.237842         6.4720 
 128   0.0000       0.242685         6.6038 
 129   0.0000       0.246817         6.7162 
 130   0.0000       0.247600         6.7376 
 131   0.0000       0.252320         6.8660 
 132   0.0000       0.254354         6.9213 
 133   0.0000       0.258386         7.0310 
 134   0.0000       0.263584         7.1725 
 135   0.0000       0.264180         7.1887 
 136   0.0000       0.269477         7.3328 
 137   0.0000       0.272459         7.4140 
 138   0.0000       0.275147         7.4871 
 139   0.0000       0.276429         7.5220 
 140   0.0000       0.278476         7.5777 
 141   0.0000       0.282123         7.6769 
 142   0.0000       0.294309         8.0086 
 143   0.0000       0.301506         8.2044 
 144   0.0000       0.304487         8.2855 
 145   0.0000       0.308347         8.3906 
 146   0.0000       0.308538         8.3957 
 147   0.0000       0.312367         8.4999 
 148   0.0000       0.317084         8.6283 
 149   0.0000       0.321093         8.7374 
 150   0.0000       0.323146         8.7933 
 151   0.0000       0.328242         8.9319 
 152   0.0000       0.329273         8.9600 
 153   0.0000       0.331159         9.0113 
 154   0.0000       0.332853         9.0574 
 155   0.0000       0.343898         9.3579 
 156   0.0000       0.347582         9.4582 
 157   0.0000       0.347759         9.4630 
 158   0.0000       0.349377         9.5070 
 159   0.0000       0.357219         9.7204 
 160   0.0000       0.358386         9.7522 
 161   0.0000       0.359610         9.7855 
 162   0.0000       0.365045         9.9334 
 163   0.0000       0.367567        10.0020 
 164   0.0000       0.376265        10.2387 
 165   0.0000       0.379485        10.3263 
 166   0.0000       0.381163        10.3720 
 167   0.0000       0.384522        10.4634 
 168   0.0000       0.390719        10.6320 
 169   0.0000       0.396998        10.8029 
 170   0.0000       0.398936        10.8556 
 171   0.0000       0.399528        10.8717 
 172   0.0000       0.402518        10.9531 
 173   0.0000       0.407954        11.1010 
 174   0.0000       0.409686        11.1481 
 175   0.0000       0.418560        11.3896 
 176   0.0000       0.421157        11.4603 
 177   0.0000       0.423356        11.5201 
 178   0.0000       0.425461        11.5774 
 179   0.0000       0.426806        11.6140 
 180   0.0000       0.431009        11.7284 
 181   0.0000       0.434772        11.8307 
 182   0.0000       0.437541        11.9061 
 183   0.0000       0.442748        12.0478 
 184   0.0000       0.447091        12.1660 
 185   0.0000       0.449242        12.2245 
 186   0.0000       0.453204        12.3323 
 187   0.0000       0.455479        12.3942 
 188   0.0000       0.465036        12.6543 
 189   0.0000       0.471977        12.8431 
 190   0.0000       0.478330        13.0160 
 191   0.0000       0.478587        13.0230 
 192   0.0000       0.479608        13.0508 
 193   0.0000       0.489634        13.3236 
 194   0.0000       0.493757        13.4358 
 195   0.0000       0.495699        13.4886 
 196   0.0000       0.496596        13.5131 
 197   0.0000       0.499770        13.5994 
 198   0.0000       0.507770        13.8171 
 199   0.0000       0.513851        13.9826 
 200   0.0000       0.519521        14.1369 
 201   0.0000       0.521711        14.1965 
 202   0.0000       0.523487        14.2448 
 203   0.0000       0.526416        14.3245 
 204   0.0000       0.531437        14.4611 
 205   0.0000       0.537045        14.6137 
 206   0.0000       0.540293        14.7021 
 207   0.0000       0.540965        14.7204 
 208   0.0000       0.543046        14.7770 
 209   0.0000       0.548971        14.9383 
 210   0.0000       0.554019        15.0756 
 211   0.0000       0.557753        15.1772 
 212   0.0000       0.565641        15.3919 
 213   0.0000       0.569720        15.5029 
[...]
   Transformed RI-exchange        ...   131.23 sec
   (ab|v) reading and digestion   ...   120.22 sec
   Final sigma-completion         ...     0.00 sec
   Done building sigma-vectors             Size of expansion space: 50
   Lowest Energy          :     0.166159800047
   Maximum Energy change  :     0.004674717040 (vector 9)
   Maximum residual norm  :     0.000684991413

                       ****Iteration    3****
              <<< Entering MO-section for Build Sigma(Double) >>>
   Forming the XC and CPCM contribution:
   Time for densities:            0.187
   Time for XC-Integration:      13.231
   Time for LR-CPCM terms:        7.581
   Time for Sigma-Completion:     0.132
   Time for building 10 sigma-vectors
   Data Preparation Phase         ...     0.01 sec
   Transformed RI Coulomb         ...     0.43 sec
   Transformed RI-exchange        ...   155.87 sec
   (ab|v) reading and digestion   ...   126.30 sec
   Final sigma-completion         ...     0.00 sec
   Done building sigma-vectors             Size of expansion space: 60
   Lowest Energy          :     0.166083027587
   Maximum Energy change  :     0.005320741800 (vector 8)
   Maximum residual norm  :     0.000289228605

                       ****Iteration    4****
              <<< Entering MO-section for Build Sigma(Double) >>>
   Forming the XC and CPCM contribution:
   Time for densities:            0.161
   Time for XC-Integration:      13.524
   Time for LR-CPCM terms:        7.723
   Time for Sigma-Completion:     0.127
   Time for building 10 sigma-vectors
   Data Preparation Phase         ...     0.01 sec
   Transformed RI Coulomb         ...     0.39 sec
   Transformed RI-exchange        ...   137.45 sec
   (ab|v) reading and digestion   ...   116.84 sec
   Final sigma-completion         ...     0.00 sec
   Done building sigma-vectors             Size of expansion space: 70
   Lowest Energy          :     0.166076716936
   Maximum Energy change  :     0.000831476724 (vector 7)
   Maximum residual norm  :     0.000067403053
   Rebuilding the expansion space

                       ****Iteration    5****
              <<< Entering MO-section for Build Sigma(Double) >>>
   Forming the XC and CPCM contribution:
   Time for densities:            0.369
   Time for XC-Integration:      26.269
   Time for LR-CPCM terms:       11.999
   Time for Sigma-Completion:     0.277
   Time for building 20 sigma-vectors
   Data Preparation Phase         ...     0.01 sec
   Transformed RI Coulomb         ...     0.67 sec
   Transformed RI-exchange        ...   370.53 sec
   (ab|v) reading and digestion   ...   356.08 sec
   Final sigma-completion         ...     0.01 sec
   Done building sigma-vectors             Size of expansion space: 20
   Lowest Energy          :     0.166076274346
   Maximum Energy change  :     0.000092814695 (vector 7)
   Maximum residual norm  :     0.000010270069

                       ****Iteration    6****
              <<< Entering MO-section for Build Sigma(Double) >>>
   Forming the XC and CPCM contribution:
   Time for densities:            0.224
   Time for XC-Integration:      13.441
   Time for LR-CPCM terms:        7.674
   Time for Sigma-Completion:     0.138
   Time for building 10 sigma-vectors
   Data Preparation Phase         ...     0.01 sec
   Transformed RI Coulomb         ...     0.39 sec
   Transformed RI-exchange        ...   131.14 sec
   (ab|v) reading and digestion   ...   123.12 sec
   Final sigma-completion         ...     0.01 sec
   Done building sigma-vectors             Size of expansion space: 30
   Lowest Energy          :     0.166076204632
   Maximum Energy change  :     0.000023522202 (vector 7)
   Maximum residual norm  :     0.000002003699

                       ****Iteration    7****
              <<< Entering MO-section for Build Sigma(Double) >>>
   Forming the XC and CPCM contribution:
   Time for densities:            0.161
   Time for XC-Integration:      12.658
   Time for LR-CPCM terms:        7.517
   Time for Sigma-Completion:     0.148
   Time for building 10 sigma-vectors
   Data Preparation Phase         ...     0.01 sec
   Transformed RI Coulomb         ...     0.40 sec
   Transformed RI-exchange        ...   150.57 sec
   (ab|v) reading and digestion   ...   130.31 sec
   Final sigma-completion         ...     0.00 sec
   Done building sigma-vectors             Size of expansion space: 40
   Lowest Energy          :     0.166076196873
   Maximum Energy change  :     0.000002735176 (vector 7)
   Maximum residual norm  :     0.000000308651

      *** CONVERGENCE OF RESIDUAL NORM REACHED ***

Storing the converged CI vectors               ... optpbed3-b2plyp-test-173_job2.cis1

                 *** DAVIDSON DONE ***

Total time for solving the CIS problem:  1466.729sec

------------------
DOUBLES CORRECTION (Double precision version)
------------------

The (D) correction will be scaled by  0.2700
Doing v(i,a)*T(i,a) terms (RI)                    ... ok
Doing u(i,j,a,b) terms for state   0              ... ok
Doing u(i,j,a,b) terms for state   1              ... ok
Doing u(i,j,a,b) terms for state   2              ... ok
Doing u(i,j,a,b) terms for state   3              ... ok
Doing u(i,j,a,b) terms for state   4              ... ok
Doing u(i,j,a,b) terms for state   5              ... ok
Doing u(i,j,a,b) terms for state   6              ... ok
Doing u(i,j,a,b) terms for state   7              ... ok
Doing u(i,j,a,b) terms for state   8              ... ok
Doing u(i,j,a,b) terms for state   9              ... ok

Contributions to the (D) correction(s) (in eV)

STATE  Final   Init.   Total   v(ext)   v(int)  v(3)    u
       omega   omega     (D)                             
-----------------------------------------------------------------------------
   0   4.050   4.519  -0.469   0.622   0.765  -0.031  -1.825
   1   4.611   4.803  -0.193   0.611   0.996  -0.065  -1.734
   2   4.738   5.163  -0.426   0.526   0.964  -0.039  -1.876
   3   4.895   5.328  -0.433   0.573   0.969  -0.052  -1.922
   4   5.555   5.703  -0.149   0.042   1.003  -0.002  -1.192
   5   5.897   6.073  -0.177   0.032   0.990  -0.001  -1.197
   6   6.086   6.260  -0.174   0.035   1.004  -0.001  -1.212
   7   5.871   6.305  -0.434   0.453   0.936  -0.098  -1.725
   8   6.104   6.351  -0.247   0.467   0.903  -0.052  -1.565
   9   6.364   6.500  -0.136   0.106   0.987  -0.010  -1.218

(D)-timings
 V(i,a)*T(i,a) terms           ...   363.091 sec
 U(i,j,a,b) 3-internal         ...     6.212 sec
 U(i,j,a,b) 3-external         ...   157.187 sec
 U(i,j,a,b) pair terms         ...   204.450 sec
 Total measured time           ...  1451.405 sec

 Time for (ab|v) I/O           ...    56.651 sec


------------------------------------
TD-DFT/TDA EXCITED STATES (SINGLETS)
------------------------------------

the weight of the individual excitations are printed if larger than 1.0e-02

STATE  1:  E=   0.148839 au      4.050 eV    32666.5 cm**-1 <S**2> =   0.000000
    53a ->  57a  :     0.013065 (c= -0.11430108)
    53a ->  58a  :     0.849555 (c= -0.92171307)
    53a ->  62a  :     0.034118 (c= -0.18471018)
    53a ->  78a  :     0.015041 (c=  0.12264076)

STATE  2:  E=   0.169442 au      4.611 eV    37188.2 cm**-1 <S**2> =   0.000000
    55a ->  62a  :     0.013678 (c=  0.11695249)
    56a ->  57a  :     0.929601 (c=  0.96415825)

STATE  3:  E=   0.174111 au      4.738 eV    38213.0 cm**-1 <S**2> =   0.000000
    54a ->  62a  :     0.046895 (c=  0.21655159)
    55a ->  57a  :     0.240770 (c=  0.49068340)
    55a ->  58a  :     0.010597 (c= -0.10294040)
    56a ->  58a  :     0.436669 (c=  0.66080949)
    56a ->  62a  :     0.226046 (c= -0.47544340)

STATE  4:  E=   0.179893 au      4.895 eV    39482.0 cm**-1 <S**2> =   0.000000
    54a ->  58a  :     0.047803 (c=  0.21863959)
    54a ->  62a  :     0.011722 (c= -0.10826647)
    55a ->  57a  :     0.186671 (c= -0.43205391)
    56a ->  58a  :     0.472735 (c=  0.68755694)
    56a ->  62a  :     0.228954 (c=  0.47849180)

STATE  5:  E=   0.204128 au      5.555 eV    44801.0 cm**-1 <S**2> =   0.000000
    54a ->  60a  :     0.013914 (c=  0.11795843)
    56a ->  59a  :     0.450613 (c=  0.67127749)
    56a ->  60a  :     0.331820 (c=  0.57603855)
    56a ->  61a  :     0.010856 (c= -0.10419185)
    56a ->  63a  :     0.022249 (c=  0.14916252)
    56a ->  64a  :     0.015671 (c=  0.12518496)
    56a ->  66a  :     0.117800 (c= -0.34321969)

STATE  6:  E=   0.216693 au      5.897 eV    47558.7 cm**-1 <S**2> =   0.000000
    54a ->  59a  :     0.052223 (c=  0.22852428)
    56a ->  59a  :     0.344576 (c= -0.58700612)
    56a ->  60a  :     0.453887 (c=  0.67371150)
    56a ->  63a  :     0.033232 (c= -0.18229749)
    56a ->  64a  :     0.016154 (c= -0.12709666)
    56a ->  66a  :     0.014569 (c= -0.12070378)
    56a ->  68a  :     0.011919 (c= -0.10917579)
    56a ->  70a  :     0.037509 (c=  0.19367206)

STATE  7:  E=   0.223651 au      6.086 eV    49085.7 cm**-1 <S**2> =   0.000000
    56a ->  59a  :     0.017153 (c=  0.13096765)
    56a ->  60a  :     0.013296 (c=  0.11530797)
    56a ->  61a  :     0.869049 (c=  0.93222796)
    56a ->  64a  :     0.012047 (c= -0.10975741)
    56a ->  66a  :     0.020897 (c=  0.14455784)
    56a ->  69a  :     0.017301 (c=  0.13153340)

STATE  8:  E=   0.215760 au      5.871 eV    47353.9 cm**-1 <S**2> =   0.000000
    54a ->  57a  :     0.016075 (c= -0.12678888)
    55a ->  57a  :     0.446849 (c= -0.66846752)
    55a ->  62a  :     0.019857 (c=  0.14091417)
    56a ->  62a  :     0.435442 (c= -0.65988026)
    56a ->  65a  :     0.016998 (c= -0.13037624)

STATE  9:  E=   0.224321 au      6.104 eV    49232.9 cm**-1 <S**2> =   0.000000
    54a ->  57a  :     0.387063 (c=  0.62214427)
    55a ->  57a  :     0.016885 (c= -0.12994136)
    55a ->  58a  :     0.046187 (c=  0.21491202)
    55a ->  62a  :     0.310880 (c= -0.55756657)
    56a ->  62a  :     0.028333 (c= -0.16832539)
    56a ->  65a  :     0.120931 (c=  0.34775190)
    56a ->  67a  :     0.012386 (c=  0.11129265)
    56a ->  78a  :     0.012253 (c=  0.11069182)

STATE 10:  E=   0.233874 au      6.364 eV    51329.3 cm**-1 <S**2> =   0.000000
    54a ->  57a  :     0.095078 (c=  0.30834719)
    55a ->  62a  :     0.031690 (c= -0.17801787)
    56a ->  65a  :     0.777005 (c= -0.88147904)
    56a ->  67a  :     0.013561 (c=  0.11645348)
    56a ->  72a  :     0.021851 (c=  0.14782220)


-----------------------------
TD-DFT/TDA-EXCITATION SPECTRA
-----------------------------

Center of mass = ( -0.6736,  0.0354, -0.2501)
Calculating the Dipole integrals                  ... done
Transforming integrals                            ... done
Calculating the Linear Momentum integrals         ... done
Transforming integrals                            ... done
Calculating angular momentum integrals            ... done
Transforming integrals                            ... done

-----------------------------------------------------------------------------
         ABSORPTION SPECTRUM VIA TRANSITION ELECTRIC DIPOLE MOMENTS
-----------------------------------------------------------------------------
State   Energy    Wavelength  fosc         T2        TX        TY        TZ  
        (cm-1)      (nm)                 (au**2)    (au)      (au)      (au) 
-----------------------------------------------------------------------------
   1   32666.5    306.1   0.000305739   0.00308  -0.01342   0.02220   0.04907
   2   37188.2    268.9   0.851955539   7.54202  -2.72392   0.14715  -0.31721
   3   38213.0    261.7   0.082675102   0.71226   0.57585   0.53480  -0.30765
   4   39482.0    253.3   0.144483874   1.20475   0.72728   0.71107  -0.41254
   5   44801.0    223.2   0.001440986   0.01059   0.00356  -0.05800  -0.08492
   6   47558.7    210.3   0.000580860   0.00402   0.02183  -0.03839  -0.04550
   7   49085.7    203.7   0.001920261   0.01288  -0.00347   0.11283   0.01164
   8   47353.9    211.2   0.398202450   2.76837   0.04147  -1.39630   0.90388
   9   49232.9    203.1   0.221699569   1.48247  -1.18125  -0.29013   0.05433
  10   51329.4    194.8   0.021775249   0.13966   0.20498   0.26917  -0.15872

-----------------------------------------------------------------------------
         ABSORPTION SPECTRUM VIA TRANSITION VELOCITY DIPOLE MOMENTS
-----------------------------------------------------------------------------
State   Energy    Wavelength   fosc        P2         PX        PY        PZ  
        (cm-1)      (nm)                 (au**2)     (au)      (au)      (au) 
-----------------------------------------------------------------------------
   1   32666.5    306.1   0.001140413   0.00025   0.00228  -0.00833  -0.01342
   2   37188.2    268.9   0.471246179   0.11977   0.34378  -0.01456   0.03715
   3   38213.0    261.7   0.038027607   0.00993  -0.07106  -0.06057   0.03484
   4   39482.0    253.3   0.049140681   0.01326  -0.09040  -0.06206   0.03517
   5   44801.0    223.2   0.000045442   0.00001   0.00053   0.00167   0.00329
   6   47558.7    210.3   0.000243592   0.00008  -0.00160  -0.00446  -0.00753
   7   49085.7    203.7   0.000587650   0.00020   0.00050  -0.01134  -0.00827
   8   47353.9    211.2   0.040855907   0.01322  -0.00522   0.09606  -0.06300
   9   49232.9    203.1   0.089324264   0.03006   0.17183   0.02279   0.00354
  10   51329.4    194.8   0.013539172   0.00475  -0.06139  -0.02882   0.01227

-------------------------------------------------------------------
                             CD SPECTRUM
-------------------------------------------------------------------
State  Energy     Wavelength     R         MX        MY        MZ   
       (cm-1)       (nm)     (1e40*cgs)   (au)      (au)      (au)  
-------------------------------------------------------------------
   1   32666.5    306.1      0.86049  -0.40014   0.13114  -0.13158
   2   37188.2    268.9     -3.31890   0.00517  -0.04080  -0.04112
   3   38213.0    261.7      0.94092   0.01560  -0.10019  -0.15145
   4   39482.0    253.3      0.29828   0.02224  -0.21691  -0.33620
   5   44801.0    223.2      0.36923   0.00738  -0.01620   0.00215
   6   47558.7    210.3      0.29909   0.03394   0.01681  -0.01184
   7   49085.7    203.7      2.73266   0.08985   0.05509  -0.00928
   8   47353.9    211.2      4.19422   0.06478  -0.28209  -0.42889
   9   49232.9    203.1     -7.25457   0.03080  -0.11032  -0.20277
  10   51329.4    194.8     -3.46569   0.00199  -0.05788  -0.04928

-------------------------------------------------------------------
         CD SPECTRUM VIA TRANSITION VELOCITY DIPOLE MOMENTS        
-------------------------------------------------------------------
State  Energy     Wavelength     R         MX        MY        MZ   
       (cm-1)       (nm)     (1e40*cgs)   (au)      (au)      (au)  
-------------------------------------------------------------------
   1   32666.5    306.1     -0.75112  -0.40014   0.13114  -0.13158
   2   37188.2    268.9      2.34686   0.00517  -0.04080  -0.04112
   3   38213.0    261.7     -0.85697   0.01560  -0.10019  -0.15145
   4   39482.0    253.3     -0.98315   0.02224  -0.21691  -0.33620
   5   44801.0    223.2     -0.03718   0.00738  -0.01620   0.00215
   6   47558.7    210.3     -0.08709   0.03394   0.01681  -0.01184
   7   49085.7    203.7     -1.05920   0.08985   0.05509  -0.00928
   8   47353.9    211.2     -0.90828   0.06478  -0.28209  -0.42889
   9   49232.9    203.1      4.32873   0.03080  -0.11032  -0.20277
  10   51329.4    194.8      1.89855   0.00199  -0.05788  -0.04928

Total run time:     2924.598 sec

           *** ORCA-CIS/TD-DFT FINISHED WITHOUT ERROR ***

Maximum memory used throughout the entire CIS-calculation: 830.6 MB

-----------------------
CIS/TD-DFT TOTAL ENERGY
-----------------------

    E(SCF)  =   -707.215456440 Eh
    DE(CIS) =      0.148839414 Eh (Root  1)
    ----------------------------- ---------
    E(tot)  =   -707.066617025 Eh



-------------------------------------------------------------------------------
                          DFT DISPERSION CORRECTION                            
                                                                               
                              DFTD3 V3.1  Rev 1                                
                          USING Becke-Johnson damping                          
-------------------------------------------------------------------------------
The B2PLYP functional is recognized
Active option DFTDOPT                   ...         4   

molecular C6(AA) [au] = 9186.365715 


            DFT-D V3
 parameters
 s6 scaling factor         :     0.6400 
 a1 scaling factor         :     0.3065 
 s8 scaling factor         :     0.9147 
 a2 scaling factor         :     5.0570 
 ad hoc parameters k1-k3   :    16.0000     1.3333    -4.0000 

 Edisp/kcal,au: -15.754547856749  -0.025106467436 
 E6   /kcal   :  -8.896587718 
 E8   /kcal   :  -6.857960138 
 % E8         :  43.530034634 

-------------------------   ----------------
Dispersion correction           -0.025106467
-------------------------   ----------------


-------------------------   --------------------
FINAL SINGLE POINT ENERGY      -707.091723492921
-------------------------   --------------------


                            ***************************************
                            *     ORCA property calculations      *
                            ***************************************


  WARNING: The energy has been calculated at the MP2 level but the densities
           used in the property calculations are still SCF densities
           MP2 response densities have not been calculated 
           use %mp2 Density relaxed end
           or  %mp2 Density unrelaxed end

                                    ---------------------
                                    Active property flags
                                    ---------------------
   (+) Dipole Moment


------------------------------------------------------------------------------
                       ORCA ELECTRIC PROPERTIES CALCULATION
------------------------------------------------------------------------------

Dipole Moment Calculation                       ... on
Quadrupole Moment Calculation                   ... off
Polarizability Calculation                      ... off
GBWName                                         ... optpbed3-b2plyp-test-173_job2.gbw
Electron density                                ... optpbed3-b2plyp-test-173_job2.scfp
The origin for moment calculation is the CENTER OF MASS  = (-0.673648,  0.035360 -0.250099)

-------------
DIPOLE MOMENT
-------------
                                X             Y             Z
Electronic contribution:     -6.84750       0.92108      -1.20004
Nuclear contribution   :      8.52635      -0.51333       1.08317
                        -----------------------------------------
Total Dipole Moment    :      1.67884       0.40776      -0.11687
                        -----------------------------------------
Magnitude (a.u.)       :      1.73160
Magnitude (Debye)      :      4.40138



--------------------
Rotational spectrum 
--------------------
 
Rotational constants in cm-1:     0.048818     0.008232     0.007072 
Rotational constants in MHz :  1463.541273   246.779402   212.010030 

 Dipole components along the rotational axes: 
x,y,z [a.u.] :     1.702064     0.318383     0.007027 
x,y,z [Debye]:     4.326304     0.809265     0.017862 

 

Timings for individual modules:

Sum of individual times         ...     4319.806 sec (=  71.997 min)
GTO integral calculation        ...        4.006 sec (=   0.067 min)   0.1 %
SCF iterations                  ...      631.390 sec (=  10.523 min)  14.6 %
MP2 module                      ...      758.859 sec (=  12.648 min)  17.6 %
CIS module                      ...     2925.552 sec (=  48.759 min)  67.7 %



                             ****ORCA TERMINATED NORMALLY****
TOTAL RUN TIME: 0 days 2 hours 44 minutes 28 seconds 886 msec
