
                                 *****************
                                 * O   R   C   A *
                                 *****************

                                            #,                                       
                                            ###                                      
                                            ####                                     
                                            #####                                    
                                            ######                                   
                                           ########,                                 
                                     ,,################,,,,,                         
                               ,,#################################,,                 
                          ,,##########################################,,             
                       ,#########################################, ''#####,          
                    ,#############################################,,   '####,        
                  ,##################################################,,,,####,       
                ,###########''''           ''''###############################       
              ,#####''   ,,,,##########,,,,          '''####'''          '####       
            ,##' ,,,,###########################,,,                        '##       
           ' ,,###''''                  '''############,,,                           
         ,,##''                                '''############,,,,        ,,,,,,###''
      ,#''                                            '''#######################'''  
     '                                                          ''''####''''         
             ,#######,   #######,   ,#######,      ##                                
            ,#'     '#,  ##    ##  ,#'     '#,    #''#        ######   ,####,        
            ##       ##  ##   ,#'  ##            #'  '#       #        #'  '#        
            ##       ##  #######   ##           ,######,      #####,   #    #        
            '#,     ,#'  ##    ##  '#,     ,#' ,#      #,         ##   #,  ,#        
             '#######'   ##     ##  '#######'  #'      '#     #####' # '####'        



                  #######################################################
                  #                        -***-                        #
                  #          Department of theory and spectroscopy      #
                  #    Directorship and core code : Frank Neese         #
                  #        Max Planck Institute fuer Kohlenforschung    #
                  #                Kaiser Wilhelm Platz 1               #
                  #                 D-45470 Muelheim/Ruhr               #
                  #                      Germany                        #
                  #                                                     #
                  #                  All rights reserved                #
                  #                        -***-                        #
                  #######################################################


                         Program Version 5.0.2 -  RELEASE  -


 With contributions from (in alphabetic order):
   Daniel Aravena         : Magnetic Suceptibility
   Michael Atanasov       : Ab Initio Ligand Field Theory (pilot matlab implementation)
   Alexander A. Auer      : GIAO ZORA, VPT2 properties, NMR spectrum
   Ute Becker             : Parallelization
   Giovanni Bistoni       : ED, misc. LED, open-shell LED, HFLD
   Martin Brehm           : Molecular dynamics
   Dmytro Bykov           : SCF Hessian
   Vijay G. Chilkuri      : MRCI spin determinant printing, contributions to CSF-ICE
   Dipayan Datta          : RHF DLPNO-CCSD density
   Achintya Kumar Dutta   : EOM-CC, STEOM-CC
   Dmitry Ganyushin       : Spin-Orbit,Spin-Spin,Magnetic field MRCI
   Miquel Garcia          : C-PCM and meta-GGA Hessian, CC/C-PCM, Gaussian charge scheme
   Yang Guo               : DLPNO-NEVPT2, F12-NEVPT2, CIM, IAO-localization
   Andreas Hansen         : Spin unrestricted coupled pair/coupled cluster methods
   Benjamin Helmich-Paris : MC-RPA, TRAH-SCF, COSX integrals
   Lee Huntington         : MR-EOM, pCC
   Robert Izsak           : Overlap fitted RIJCOSX, COSX-SCS-MP3, EOM
   Marcus Kettner         : VPT2
   Christian Kollmar      : KDIIS, OOCD, Brueckner-CCSD(T), CCSD density, CASPT2, CASPT2-K
   Simone Kossmann        : Meta GGA functionals, TD-DFT gradient, OOMP2, MP2 Hessian
   Martin Krupicka        : Initial AUTO-CI
   Lucas Lang             : DCDCAS
   Marvin Lechner         : AUTO-CI (C++ implementation), FIC-MRCC
   Dagmar Lenk            : GEPOL surface, SMD
   Dimitrios Liakos       : Extrapolation schemes; Compound Job, initial MDCI parallelization
   Dimitrios Manganas     : Further ROCIS development; embedding schemes
   Dimitrios Pantazis     : SARC Basis sets
   Anastasios Papadopoulos: AUTO-CI, single reference methods and gradients
   Taras Petrenko         : DFT Hessian,TD-DFT gradient, ASA, ECA, R-Raman, ABS, FL, XAS/XES, NRVS
   Peter Pinski           : DLPNO-MP2, DLPNO-MP2 Gradient
   Christoph Reimann      : Effective Core Potentials
   Marius Retegan         : Local ZFS, SOC
   Christoph Riplinger    : Optimizer, TS searches, QM/MM, DLPNO-CCSD(T), (RO)-DLPNO pert. Triples
   Tobias Risthaus        : Range-separated hybrids, TD-DFT gradient, RPA, STAB
   Michael Roemelt        : Original ROCIS implementation
   Masaaki Saitow         : Open-shell DLPNO-CCSD energy and density
   Barbara Sandhoefer     : DKH picture change effects
   Avijit Sen             : IP-ROCIS
   Kantharuban Sivalingam : CASSCF convergence, NEVPT2, FIC-MRCI
   Bernardo de Souza      : ESD, SOC TD-DFT
   Georgi Stoychev        : AutoAux, RI-MP2 NMR, DLPNO-MP2 response
   Willem Van den Heuvel  : Paramagnetic NMR
   Boris Wezisla          : Elementary symmetry handling
   Frank Wennmohs         : Technical directorship


 We gratefully acknowledge several colleagues who have allowed us to
 interface, adapt or use parts of their codes:
   Stefan Grimme, W. Hujo, H. Kruse, P. Pracht,  : VdW corrections, initial TS optimization,
                  C. Bannwarth, S. Ehlert          DFT functionals, gCP, sTDA/sTD-DF
   Ed Valeev, F. Pavosevic, A. Kumar             : LibInt (2-el integral package), F12 methods
   Garnet Chan, S. Sharma, J. Yang, R. Olivares  : DMRG
   Ulf Ekstrom                                   : XCFun DFT Library
   Mihaly Kallay                                 : mrcc  (arbitrary order and MRCC methods)
   Jiri Pittner, Ondrej Demel                    : Mk-CCSD
   Frank Weinhold                                : gennbo (NPA and NBO analysis)
   Christopher J. Cramer and Donald G. Truhlar   : smd solvation model
   Lars Goerigk                                  : TD-DFT with DH, B97 family of functionals
   V. Asgeirsson, H. Jonsson                     : NEB implementation
   FAccTs GmbH                                   : IRC, NEB, NEB-TS, DLPNO-Multilevel, CI-OPT
                                                   MM, QMMM, 2- and 3-layer-ONIOM, Crystal-QMMM,
                                                   LR-CPCM, SF, NACMEs, symmetry and pop. for TD-DFT,
                                                   nearIR, NL-DFT gradient (VV10), updates on ESD,
                                                   ML-optimized integration grids
   S Lehtola, MJT Oliveira, MAL Marques          : LibXC Library
   Liviu Ungur et al                             : ANISO software


 Your calculation uses the libint2 library for the computation of 2-el integrals
 For citations please refer to: http://libint.valeyev.net

 Your ORCA version has been built with support for libXC version: 5.1.0
 For citations please refer to: https://tddft.org/programs/libxc/

 This ORCA versions uses:
   CBLAS   interface :  Fast vector & matrix operations
   LAPACKE interface :  Fast linear algebra routines
   SCALAPACK package :  Parallel linear algebra routines
   Shared memory     :  Shared parallel matrices
   BLAS/LAPACK       :  OpenBLAS 0.3.15  USE64BITINT DYNAMIC_ARCH NO_AFFINITY Haswell SINGLE_THREADED
        Core in use  :  Haswell
   Copyright (c) 2011-2014, The OpenBLAS Project


Your calculation utilizes the atom-pairwise dispersion correction
with the Becke-Johnson damping scheme (D3BJ)
Cite in your paper:
S.Grimme, S.Ehrlich, L.Goerigk, J Comput Chem, (2011), 32, 1456–1465 
S.Grimme, J.Antony, S.Ehrlich and H.Krieg, J.Chem.Phys., 132, (2010), 154104 
   

Your calculation utilizes the SMD solvation module
Please cite in your paper:
A.V. Marenich, C.J. Cramer, D.G. Truhlar J. Phys. Chem. B, 113, (2009), 6378 

================================================================================

----- Orbital basis set information -----
Your calculation utilizes the basis: aug-cc-pVTZ 
    H, B-Ne : Obtained from the ccRepo (grant-hill.group.shef.ac.uk/ccrepo) Feb. 2017
              R. A. Kendall, T. H. Dunning, Jr., R. J. Harrison, J. Chem. Phys. 96, 6796 (1992)
         He : Obtained from the ccRepo (grant-hill.group.shef.ac.uk/ccrepo) Feb. 2017
              D. E. Woon, T. H. Dunning, Jr., J. Chem. Phys. 100, 2975 (1994)
  Li-Be, Na : Obtained from the ccRepo (grant-hill.group.shef.ac.uk/ccrepo) Feb. 2017
              B. P. Prascher, D. E. Woon, K. A. Peterson, T. H. Dunning, Jr., A. K. Wilson, Theor. Chem. Acc. 128, 69 (2011)
         Mg : Obtained from the Peterson Research Group Website (tyr0.chem.wsu.edu/~kipeters) Feb. 2017
              B. P. Prascher, D. E. Woon, K. A. Peterson, T. H. Dunning, Jr., A. K. Wilson, Theor. Chem. Acc. 128, 69 (2011)
      Al-Ar : Obtained from the ccRepo (grant-hill.group.shef.ac.uk/ccrepo) Feb. 2017
              D. E. Woon, T. H. Dunning, Jr., J. Chem. Phys. 98, 1358 (1993)
      Sc-Zn : Obtained from the ccRepo (grant-hill.group.shef.ac.uk/ccrepo) Feb. 2017
              N. B. Balabanov, K. A. Peterson, J. Chem. Phys. 123, 064107 (2005)
              N. B. Balabanov, K. A. Peterson, J. Chem. Phys. 125, 074110 (2006)
      Ga-Kr : Obtained from the ccRepo (grant-hill.group.shef.ac.uk/ccrepo) Feb. 2017
              A. K. Wilson, D. E. Woon, K. A. Peterson, T. H. Dunning, Jr., J. Chem. Phys. 110, 7667 (1999)
     Ag, Au : Obtained from the Peterson Research Group Website (tyr0.chem.wsu.edu/~kipeters) Feb. 2017
              K. A. Peterson, C. Puzzarini, Theor. Chem. Acc. 114, 283 (2005)

The basis set includes element-specific modifications.

Your calculation utilizes the basis: cc-pVTZ 
       H, B-Ne : Obtained from the ccRepo (grant-hill.group.shef.ac.uk/ccrepo) Feb. 2017
                 T. H. Dunning, Jr., J. Chem. Phys. 90, 1007 (1989)
            He : Obtained from the ccRepo (grant-hill.group.shef.ac.uk/ccrepo) Feb. 2017
                 D. E. Woon, T. H. Dunning, Jr., J. Chem. Phys. 100, 2975 (1994)
  Li-Be, Na-Mg : Obtained from the ccRepo (grant-hill.group.shef.ac.uk/ccrepo) Feb. 2017
                 B. P. Prascher, D. E. Woon, K. A. Peterson, T. H. Dunning, Jr., A. K. Wilson, Theor. Chem. Acc. 128, 69 (2011)
         Al-Ar : Obtained from the ccRepo (grant-hill.group.shef.ac.uk/ccrepo) Feb. 2017
                 D. E. Woon, T. H. Dunning, Jr., J. Chem. Phys. 98, 1358 (1993)
            Ca : Obtained from the Peterson Research Group Website (tyr0.chem.wsu.edu/~kipeters) Feb. 2017
                 J. Koput, K. A. Peterson, J. Phys. Chem. 106, 9595 (2002)
         Sc-Zn : Obtained from the ccRepo (grant-hill.group.shef.ac.uk/ccrepo) Feb. 2017
                 N. B. Balabanov, K. A. Peterson, J. Chem. Phys. 123, 064107 (2005)
                 N. B. Balabanov, K. A. Peterson, J. Chem. Phys. 125, 074110 (2006)
         Ga-Kr : Obtained from the ccRepo (grant-hill.group.shef.ac.uk/ccrepo) Feb. 2017
                 A. K. Wilson, D. E. Woon, K. A. Peterson, T. H. Dunning, Jr., J. Chem. Phys. 110, 7667 (1999)
             Y : Obtained from the ccRepo (grant-hill.group.shef.ac.uk/ccrepo) Feb. 2017
                 K. A. Peterson, D. Figgen, M. Dolg, H. Stoll, J. Chem. Phys. 126, 124101 (2007)
        Ag, Au : Obtained from the Peterson Research Group Website (tyr0.chem.wsu.edu/~kipeters) Feb. 2017
                 K. A. Peterson, C. Puzzarini, Theor. Chem. Acc. 114, 283 (2005)

----- AuxJ basis set information -----
Your calculation utilizes the auxiliary basis: aug-cc-pVTZ/JK 
  H, B-F, Al-Cl, Ga-Br : Obtained from the TURBOMOLE 7.0 basis set library

The basis set includes element-specific modifications.

Your calculation utilizes the auxiliary basis: cc-pVTZ/JK 
  H, B-F, Al-Cl, Ga-Br : Obtained from the TURBOMOLE 7.0 basis set library

----- AuxC basis set information -----
Your calculation utilizes the auxiliary basis: aug-cc-pVTZ/C 
  H-He, B-F, Al-Ar, Ga-Kr : Obtained from the EMSL Basis Set Exchange (bse.pnl.gov) Feb. 2017
                            F. Weigend, A. Kohn, C. Hattig, J. Chem. Phys. 116, 3175 (2002)
                   Be, Mg : Obtained from the TURBOMOLE 7.0 basis set library
                            C. Haettig, Phys. Chem. Chem. Phys. 7, 59 (2005)
                       Ne : Obtained from the EMSL Basis Set Exchange (bse.pnl.gov) Feb. 2017
                            C. Haettig, Phys. Chem. Chem. Phys. 7, 59 (2005)
                            F. Weigend, A. Kohn, C. Hattig, J. Chem. Phys. 116, 3175 (2002)
                    Sc-Zn : Obtained from the EMSL Basis Set Exchange (bse.pnl.gov) Feb. 2017
                            J. G. Hill, J. A. Platts, J. Chem. Phys. 128, 044104 (2008)

The basis set includes element-specific modifications.

Your calculation utilizes the auxiliary basis: cc-pVTZ/C 
  Obtained from the EMSL Basis Set Exchange (bse.pnl.gov) Feb. 2017
  H-He, B-F, Al-Ar, Ga-Kr : F. Weigend, A. Kohn, C. Hattig, J. Chem. Phys. 116, 3175 (2002)
             Li-Be, Na-Mg : C. Haettig, Phys. Chem. Chem. Phys. 7, 59 (2005)
                       Ne : C. Haettig, Phys. Chem. Chem. Phys. 7, 59 (2005)
                            F. Weigend, A. Kohn, C. Hattig, J. Chem. Phys. 116, 3175 (2002)
                    Sc-Zn : J. G. Hill, J. A. Platts, J. Chem. Phys. 128, 044104 (2008)

================================================================================
                                        WARNINGS
                       Please study these warnings very carefully!
================================================================================


WARNING: Geometry Optimization
  ===> : Switching off AutoStart
         For restart on a previous wavefunction, please use MOREAD

INFO   : the flag for use of the SHARK integral package has been found!



***************************************
The coordinates will be read from file: 
***************************************


Your calculation utilizes the atom-pairwise dispersion correction
with the Becke-Johnson damping scheme (D3BJ)
Cite in your paper:
S.Grimme, S.Ehrlich, L.Goerigk, J Comput Chem, (2011), 32, 1456–1465 
S.Grimme, J.Antony, S.Ehrlich and H.Krieg, J.Chem.Phys., 132, (2010), 154104 
   

Your calculation utilizes the SMD solvation module
Please cite in your paper:
A.V. Marenich, C.J. Cramer, D.G. Truhlar J. Phys. Chem. B, 113, (2009), 6378 

================================================================================

----- Orbital basis set information -----
Your calculation utilizes the basis: aug-cc-pVTZ 
    H, B-Ne : Obtained from the ccRepo (grant-hill.group.shef.ac.uk/ccrepo) Feb. 2017
              R. A. Kendall, T. H. Dunning, Jr., R. J. Harrison, J. Chem. Phys. 96, 6796 (1992)
         He : Obtained from the ccRepo (grant-hill.group.shef.ac.uk/ccrepo) Feb. 2017
              D. E. Woon, T. H. Dunning, Jr., J. Chem. Phys. 100, 2975 (1994)
  Li-Be, Na : Obtained from the ccRepo (grant-hill.group.shef.ac.uk/ccrepo) Feb. 2017
              B. P. Prascher, D. E. Woon, K. A. Peterson, T. H. Dunning, Jr., A. K. Wilson, Theor. Chem. Acc. 128, 69 (2011)
         Mg : Obtained from the Peterson Research Group Website (tyr0.chem.wsu.edu/~kipeters) Feb. 2017
              B. P. Prascher, D. E. Woon, K. A. Peterson, T. H. Dunning, Jr., A. K. Wilson, Theor. Chem. Acc. 128, 69 (2011)
      Al-Ar : Obtained from the ccRepo (grant-hill.group.shef.ac.uk/ccrepo) Feb. 2017
              D. E. Woon, T. H. Dunning, Jr., J. Chem. Phys. 98, 1358 (1993)
      Sc-Zn : Obtained from the ccRepo (grant-hill.group.shef.ac.uk/ccrepo) Feb. 2017
              N. B. Balabanov, K. A. Peterson, J. Chem. Phys. 123, 064107 (2005)
              N. B. Balabanov, K. A. Peterson, J. Chem. Phys. 125, 074110 (2006)
      Ga-Kr : Obtained from the ccRepo (grant-hill.group.shef.ac.uk/ccrepo) Feb. 2017
              A. K. Wilson, D. E. Woon, K. A. Peterson, T. H. Dunning, Jr., J. Chem. Phys. 110, 7667 (1999)
     Ag, Au : Obtained from the Peterson Research Group Website (tyr0.chem.wsu.edu/~kipeters) Feb. 2017
              K. A. Peterson, C. Puzzarini, Theor. Chem. Acc. 114, 283 (2005)

The basis set includes element-specific modifications.

Your calculation utilizes the basis: cc-pVTZ 
       H, B-Ne : Obtained from the ccRepo (grant-hill.group.shef.ac.uk/ccrepo) Feb. 2017
                 T. H. Dunning, Jr., J. Chem. Phys. 90, 1007 (1989)
            He : Obtained from the ccRepo (grant-hill.group.shef.ac.uk/ccrepo) Feb. 2017
                 D. E. Woon, T. H. Dunning, Jr., J. Chem. Phys. 100, 2975 (1994)
  Li-Be, Na-Mg : Obtained from the ccRepo (grant-hill.group.shef.ac.uk/ccrepo) Feb. 2017
                 B. P. Prascher, D. E. Woon, K. A. Peterson, T. H. Dunning, Jr., A. K. Wilson, Theor. Chem. Acc. 128, 69 (2011)
         Al-Ar : Obtained from the ccRepo (grant-hill.group.shef.ac.uk/ccrepo) Feb. 2017
                 D. E. Woon, T. H. Dunning, Jr., J. Chem. Phys. 98, 1358 (1993)
            Ca : Obtained from the Peterson Research Group Website (tyr0.chem.wsu.edu/~kipeters) Feb. 2017
                 J. Koput, K. A. Peterson, J. Phys. Chem. 106, 9595 (2002)
         Sc-Zn : Obtained from the ccRepo (grant-hill.group.shef.ac.uk/ccrepo) Feb. 2017
                 N. B. Balabanov, K. A. Peterson, J. Chem. Phys. 123, 064107 (2005)
                 N. B. Balabanov, K. A. Peterson, J. Chem. Phys. 125, 074110 (2006)
         Ga-Kr : Obtained from the ccRepo (grant-hill.group.shef.ac.uk/ccrepo) Feb. 2017
                 A. K. Wilson, D. E. Woon, K. A. Peterson, T. H. Dunning, Jr., J. Chem. Phys. 110, 7667 (1999)
             Y : Obtained from the ccRepo (grant-hill.group.shef.ac.uk/ccrepo) Feb. 2017
                 K. A. Peterson, D. Figgen, M. Dolg, H. Stoll, J. Chem. Phys. 126, 124101 (2007)
        Ag, Au : Obtained from the Peterson Research Group Website (tyr0.chem.wsu.edu/~kipeters) Feb. 2017
                 K. A. Peterson, C. Puzzarini, Theor. Chem. Acc. 114, 283 (2005)

----- AuxJ basis set information -----
Your calculation utilizes the auxiliary basis: aug-cc-pVTZ/JK 
  H, B-F, Al-Cl, Ga-Br : Obtained from the TURBOMOLE 7.0 basis set library

The basis set includes element-specific modifications.

Your calculation utilizes the auxiliary basis: cc-pVTZ/JK 
  H, B-F, Al-Cl, Ga-Br : Obtained from the TURBOMOLE 7.0 basis set library

----- AuxC basis set information -----
Your calculation utilizes the auxiliary basis: aug-cc-pVTZ/C 
  H-He, B-F, Al-Ar, Ga-Kr : Obtained from the EMSL Basis Set Exchange (bse.pnl.gov) Feb. 2017
                            F. Weigend, A. Kohn, C. Hattig, J. Chem. Phys. 116, 3175 (2002)
                   Be, Mg : Obtained from the TURBOMOLE 7.0 basis set library
                            C. Haettig, Phys. Chem. Chem. Phys. 7, 59 (2005)
                       Ne : Obtained from the EMSL Basis Set Exchange (bse.pnl.gov) Feb. 2017
                            C. Haettig, Phys. Chem. Chem. Phys. 7, 59 (2005)
                            F. Weigend, A. Kohn, C. Hattig, J. Chem. Phys. 116, 3175 (2002)
                    Sc-Zn : Obtained from the EMSL Basis Set Exchange (bse.pnl.gov) Feb. 2017
                            J. G. Hill, J. A. Platts, J. Chem. Phys. 128, 044104 (2008)

The basis set includes element-specific modifications.

Your calculation utilizes the auxiliary basis: cc-pVTZ/C 
  Obtained from the EMSL Basis Set Exchange (bse.pnl.gov) Feb. 2017
  H-He, B-F, Al-Ar, Ga-Kr : F. Weigend, A. Kohn, C. Hattig, J. Chem. Phys. 116, 3175 (2002)
             Li-Be, Na-Mg : C. Haettig, Phys. Chem. Chem. Phys. 7, 59 (2005)
                       Ne : C. Haettig, Phys. Chem. Chem. Phys. 7, 59 (2005)
                            F. Weigend, A. Kohn, C. Hattig, J. Chem. Phys. 116, 3175 (2002)
                    Sc-Zn : J. G. Hill, J. A. Platts, J. Chem. Phys. 128, 044104 (2008)

================================================================================
                                        WARNINGS
                       Please study these warnings very carefully!
================================================================================

INFO   : Checking CIS options ...
  ===> : (D) CORRECTION FOUND - SETTING MODE=3
  ===> : JK MODE FOUND - ACTIVATING RI-MP2 CODE
  ===> : MP2 AND CIS FOUND - CHECKING
WARNING: CIS(D) and MP2 runs must have the same orbital window
  ===> : adjusting orbital windows

WARNING: No MP2 level density has been requested!
         To caclulate MP2 level properties use
         %mp2 Density relaxed end
         or
         %mp2 Density unrelaxed end
         Otherwise for double-hybrid DFT only the energy is correct!

WARNING: The frozen-core approximation is turned on by default for 
         the MP2 part of double-hybrid DFT.

INFO   : the flag for use of the SHARK integral package has been found!

================================================================================
                                       INPUT FILE
================================================================================
NAME = optpbed3-b2plyp-test-117.inp
|  1> ! pbe0 d3bj aug-cc-PVTZ RIJCOSX Opt
|  2> %maxcore 4000
|  3> %basis
|  4>  AuxJ "aug-cc-PVTZ/JK"
|  5>  AuxC "aug-cc-PVTZ/C"
|  6>  newGTO H "cc-PVTZ" end
|  7>  newAuxJGTO H "cc-PVTZ/JK" end
|  8>  newAuxCGTO H "cc-PVTZ/C" end
|  9> end
| 10> %cpcm
| 11>  SMD true
| 12>  SMDsolvent "acetonitrile"
| 13> end
| 14> %pal nprocs 4 end
| 15> * xyz 0 1
| 16> C         -6.37170       -1.21800       -1.13210
| 17> N         -5.66230       -0.84010        0.06450
| 18> C         -6.40760       -0.67330        1.28700
| 19> C         -4.30850       -0.65350        0.04180
| 20> C         -3.57820       -0.42820        1.22150
| 21> C         -2.21730       -0.24150        1.19690
| 22> C         -1.49170       -0.26420       -0.00060
| 23> C         -0.06900       -0.07040       -0.08500
| 24> C          0.78810        0.10510        0.94410
| 25> C          2.20210        0.30380        0.84070
| 26> C          2.91100        0.45520       -0.29810
| 27> C          4.33430        0.66330       -0.40180
| 28> C          5.20260        0.65010        0.69920
| 29> C          6.55330        0.85980        0.54410
| 30> C          7.08720        1.09150       -0.72680
| 31> C          8.47080        1.30970       -0.88620
| 32> N          9.59710        1.48940       -1.01530
| 33> C          6.23910        1.10420       -1.83720
| 34> C          4.89060        0.89170       -1.66980
| 35> C         -2.22390       -0.48610       -1.17430
| 36> C         -3.58450       -0.67620       -1.16190
| 37> H         -6.41160       -0.39530       -1.85480
| 38> H         -5.89620       -2.07870       -1.60950
| 39> H         -7.39120       -1.49730       -0.87690
| 40> H         -6.19360       -1.47410        2.00380
| 41> H         -7.47260       -0.68770        1.06750
| 42> H         -6.17370        0.28600        1.75580
| 43> H         -4.08080       -0.40860        2.17480
| 44> H         -1.70510       -0.07310        2.13190
| 45> H          0.32480       -0.08010       -1.09330
| 46> H          0.40300        0.09030        1.95470
| 47> H          2.72220        0.34620        1.78880
| 48> H          2.38890        0.43940       -1.24540
| 49> H          4.81410        0.46870        1.68910
| 50> H          7.21190        0.84660        1.40070
| 51> H          6.65160        1.28130       -2.82010
| 52> H          4.24040        0.90350       -2.53320
| 53> H         -1.70230       -0.50690       -2.12140
| 54> H         -4.09150       -0.83250       -2.10010
| 55> *
| 56> 
| 57> 
| 58> $new_job
| 59> ! b2plyp aug-cc-PVTZ RIJCOSX SP
| 60> %maxcore 4000
| 61> %basis
| 62>  AuxJ "aug-cc-PVTZ/JK"
| 63>  AuxC "aug-cc-PVTZ/C"
| 64>  newGTO H "cc-PVTZ" end
| 65>  newAuxJGTO H "cc-PVTZ/JK" end
| 66>  newAuxCGTO H "cc-PVTZ/C" end
| 67> end
| 68> %cpcm
| 69>  SMD true
| 70>  SMDsolvent "acetonitrile"
| 71> end
| 72> %pal nprocs 4 end
| 73> %tddft
| 74>  nroots 10
| 75>  maxdim 7
| 76> end
| 77> * xyzfile 0 1
| 78> 
| 79>                          ****END OF INPUT****
================================================================================


                 $$$$$$$$$$$$$$$$$$$$$$$$$$$$$$$$$$$$$$$$$$$$$$ 
                 $ THERE ARE  2 JOBS TO BE PROCESSED THIS RUN $
                 $$$$$$$$$$$$$$$$$$$$$$$$$$$$$$$$$$$$$$$$$$$$$$ 




                 $$$$$$$$$$$$$$$$  JOB NUMBER  1 $$$$$$$$$$$$$$


                       *****************************
                       * Geometry Optimization Run *
                       *****************************

Geometry optimization settings:
Update method            Update   .... BFGS
Choice of coordinates    CoordSys .... Z-matrix Internals
Initial Hessian          InHess   .... Almoef's Model

Convergence Tolerances:
Energy Change            TolE     ....  5.0000e-06 Eh
Max. Gradient            TolMAXG  ....  3.0000e-04 Eh/bohr
RMS Gradient             TolRMSG  ....  1.0000e-04 Eh/bohr
Max. Displacement        TolMAXD  ....  4.0000e-03 bohr
RMS Displacement         TolRMSD  ....  2.0000e-03 bohr
Strict Convergence                ....  False
------------------------------------------------------------------------------
                        ORCA OPTIMIZATION COORDINATE SETUP
------------------------------------------------------------------------------

The optimization will be done in new redundant internal coordinates
Making redundant internal coordinates   ...  (new redundants) done
Evaluating the initial hessian          ...  (Almloef) done
Evaluating the coordinates              ...  done
Calculating the B-matrix                .... done
Calculating the G-matrix                .... done
Diagonalizing the G-matrix              .... done
Small eigenvalue found = 1.108e-03
Small eigenvalue found = 5.465e-03
Small eigenvalue found = 9.348e-03
Small eigenvalue found = 1.340e-02
Small eigenvalue found = 1.480e-02
Small eigenvalue found = 2.245e-02
The first mode is                       ....   78
The number of degrees of freedom        ....  111

    -----------------------------------------------------------------
                    Redundant Internal Coordinates


    -----------------------------------------------------------------
         Definition                    Initial Value    Approx d2E/dq
    -----------------------------------------------------------------
      1. B(N   1,C   0)                  1.4415         0.463146   
      2. B(C   2,N   1)                  1.4415         0.463210   
      3. B(C   3,N   1)                  1.3668         0.609409   
      4. B(C   4,C   3)                  1.4056         0.589936   
      5. B(C   5,C   4)                  1.3739         0.662945   
      6. B(C   6,C   5)                  1.4004         0.601457   
      7. B(C   7,C   6)                  1.4383         0.523180   
      8. B(C   8,C   7)                  1.3507         0.721762   
      9. B(C   9,C   8)                  1.4316         0.536189   
     10. B(C  10,C   9)                  1.3499         0.723866   
     11. B(C  11,C  10)                  1.4422         0.515836   
     12. B(C  12,C  11)                  1.4023         0.597291   
     13. B(C  13,C  12)                  1.3757         0.658610   
     14. B(C  14,C  13)                  1.3978         0.607087   
     15. B(C  15,C  14)                  1.4097         0.581090   
     16. B(N  16,C  15)                  1.1478         1.362211   
     17. B(C  17,C  14)                  1.3973         0.608283   
     18. B(C  18,C  17)                  1.3754         0.659305   
     19. B(C  18,C  11)                  1.4034         0.594840   
     20. B(C  19,C   6)                  1.4010         0.599952   
     21. B(C  20,C  19)                  1.3739         0.662933   
     22. B(C  20,C   3)                  1.4048         0.591639   
     23. B(H  21,C   0)                  1.0958         0.352541   
     24. B(H  22,C   0)                  1.0931         0.356054   
     25. B(H  23,C   0)                  1.0874         0.363509   
     26. B(H  24,C   2)                  1.0958         0.352449   
     27. B(H  25,C   2)                  1.0875         0.363449   
     28. B(H  26,C   2)                  1.0930         0.356099   
     29. B(H  27,C   4)                  1.0779         0.376530   
     30. B(H  28,C   5)                  1.0793         0.374509   
     31. B(H  29,C   7)                  1.0825         0.370137   
     32. B(H  30,C   8)                  1.0816         0.371401   
     33. B(H  31,C   9)                  1.0822         0.370543   
     34. B(H  32,C  10)                  1.0818         0.371160   
     35. B(H  33,C  12)                  1.0788         0.375269   
     36. B(H  34,C  13)                  1.0806         0.372755   
     37. B(H  35,C  17)                  1.0806         0.372805   
     38. B(H  36,C  18)                  1.0809         0.372333   
     39. B(H  37,C  19)                  1.0814         0.371613   
     40. B(H  38,C  20)                  1.0778         0.376577   
     41. A(H  21,C   0,H  22)          108.6008         0.289359   
     42. A(H  21,C   0,H  23)          108.2689         0.290301   
     43. A(N   1,C   0,H  23)          109.5060         0.334539   
     44. A(N   1,C   0,H  22)          110.7870         0.333390   
     45. A(H  22,C   0,H  23)          107.9442         0.290754   
     46. A(N   1,C   0,H  21)          111.6280         0.332843   
     47. A(C   0,N   1,C   3)          120.6276         0.405491   
     48. A(C   0,N   1,C   2)          118.6788         0.386438   
     49. A(C   2,N   1,C   3)          120.6918         0.405500   
     50. A(H  25,C   2,H  26)          107.9241         0.290752   
     51. A(H  24,C   2,H  25)          108.2761         0.290282   
     52. A(H  24,C   2,H  26)          108.6033         0.289353   
     53. A(N   1,C   2,H  25)          109.4900         0.334538   
     54. A(N   1,C   2,H  26)          110.7726         0.333405   
     55. A(N   1,C   2,H  24)          111.6673         0.332836   
     56. A(C   4,C   3,C  20)          116.9965         0.426609   
     57. A(N   1,C   3,C  20)          121.4992         0.426301   
     58. A(N   1,C   3,C   4)          121.5042         0.426081   
     59. A(C   3,C   4,C   5)          121.4265         0.435417   
     60. A(C   5,C   4,H  27)          118.3763         0.359659   
     61. A(C   3,C   4,H  27)          120.1942         0.352605   
     62. A(C   4,C   5,C   6)          121.7605         0.436937   
     63. A(C   6,C   5,H  28)          119.8300         0.353439   
     64. A(C   4,C   5,H  28)          118.4095         0.359330   
     65. A(C   5,C   6,C   7)          124.0918         0.418782   
     66. A(C   7,C   6,C  19)          119.2826         0.418595   
     67. A(C   5,C   6,C  19)          116.6251         0.429163   
     68. A(C   8,C   7,H  29)          118.6840         0.363850   
     69. A(C   6,C   7,H  29)          114.4111         0.344544   
     70. A(C   6,C   7,C   8)          126.9026         0.432677   
     71. A(C   9,C   8,H  30)          114.9009         0.346167   
     72. A(C   7,C   8,H  30)          118.9582         0.364062   
     73. A(C   7,C   8,C   9)          126.1384         0.434593   
     74. A(C   8,C   9,H  31)          114.6347         0.346033   
     75. A(C   8,C   9,C  10)          126.5243         0.434821   
     76. A(C  10,C   9,H  31)          118.8346         0.364099   
     77. A(C   9,C  10,H  32)          118.9239         0.364203   
     78. A(C   9,C  10,C  11)          126.5204         0.431805   
     79. A(C  11,C  10,H  32)          114.5485         0.343887   
     80. A(C  10,C  11,C  12)          123.5937         0.417212   
     81. A(C  12,C  11,C  18)          117.7424         0.427971   
     82. A(C  10,C  11,C  18)          118.6638         0.416907   
     83. A(C  13,C  12,H  33)          118.8614         0.359053   
     84. A(C  11,C  12,H  33)          119.9382         0.353145   
     85. A(C  11,C  12,C  13)          121.1999         0.435875   
     86. A(C  12,C  13,C  14)          120.1853         0.437154   
     87. A(C  14,C  13,H  34)          119.3382         0.353716   
     88. A(C  12,C  13,H  34)          120.4765         0.358642   
     89. A(C  13,C  14,C  15)          120.2203         0.427425   
     90. A(C  15,C  14,C  17)          120.2944         0.427576   
     91. A(C  13,C  14,C  17)          119.4852         0.430946   
     92. L(C  14,C  15,N  16,C  13, 2) 180.2131         0.492011   
     93. L(C  14,C  15,N  16,C  13, 1) 179.9780         0.492011   
     94. A(C  18,C  17,H  35)          120.6854         0.358715   
     95. A(C  14,C  17,H  35)          119.5144         0.353842   
     96. A(C  14,C  17,C  18)          119.8002         0.437392   
     97. A(C  17,C  18,H  36)          119.3981         0.358637   
     98. A(C  11,C  18,H  36)          119.0157         0.352430   
     99. A(C  11,C  18,C  17)          121.5859         0.435635   
    100. A(C  20,C  19,H  37)          118.8754         0.358854   
    101. A(C   6,C  19,H  37)          118.9896         0.352825   
    102. A(C   6,C  19,C  20)          122.1349         0.436738   
    103. A(C   3,C  20,C  19)          121.0562         0.435642   
    104. A(C  19,C  20,H  38)          118.5587         0.359666   
    105. A(C   3,C  20,H  38)          120.3812         0.352785   
    106. D(C   3,N   1,C   0,H  23)    169.4779         0.018316   
    107. D(C   2,N   1,C   0,H  22)   -128.9956         0.018316   
    108. D(C   3,N   1,C   0,H  22)     50.5259         0.018316   
    109. D(C   2,N   1,C   0,H  21)    109.8376         0.018316   
    110. D(C   2,N   1,C   0,H  23)    -10.0437         0.018316   
    111. D(C   3,N   1,C   0,H  21)    -70.6408         0.018316   
    112. D(H  25,C   2,N   1,C   3)    169.9369         0.018321   
    113. D(H  26,C   2,N   1,C   3)     51.0285         0.018321   
    114. D(H  24,C   2,N   1,C   0)    109.3628         0.018321   
    115. D(H  26,C   2,N   1,C   0)   -129.4502         0.018321   
    116. D(H  24,C   2,N   1,C   3)    -70.1585         0.018321   
    117. D(H  25,C   2,N   1,C   0)    -10.5419         0.018321   
    118. D(C  20,C   3,N   1,C   0)      7.1131         0.029993   
    119. D(C   4,C   3,N   1,C   0)   -172.9862         0.029993   
    120. D(C   4,C   3,N   1,C   2)      6.5257         0.029993   
    121. D(C  20,C   3,N   1,C   2)   -173.3750         0.029993   
    122. D(H  27,C   4,C   3,C  20)   -179.4935         0.023950   
    123. D(H  27,C   4,C   3,N   1)      0.6015         0.023950   
    124. D(C   5,C   4,C   3,C  20)     -0.1284         0.023950   
    125. D(C   5,C   4,C   3,N   1)    179.9667         0.023950   
    126. D(H  28,C   5,C   4,H  27)     -0.5701         0.030688   
    127. D(H  28,C   5,C   4,C   3)   -179.9464         0.030688   
    128. D(C   6,C   5,C   4,H  27)    179.4699         0.030688   
    129. D(C   6,C   5,C   4,C   3)      0.0936         0.030688   
    130. D(C  19,C   6,C   5,H  28)   -179.9118         0.024945   
    131. D(C  19,C   6,C   5,C   4)      0.0476         0.024945   
    132. D(C   7,C   6,C   5,H  28)     -0.1812         0.024945   
    133. D(C   7,C   6,C   5,C   4)    179.7782         0.024945   
    134. D(H  29,C   7,C   6,C   5)   -177.6899         0.018672   
    135. D(C   8,C   7,C   6,C  19)   -177.4047         0.018672   
    136. D(C   8,C   7,C   6,C   5)      2.8714         0.018672   
    137. D(H  29,C   7,C   6,C  19)      2.0339         0.018672   
    138. D(H  30,C   8,C   7,H  29)   -178.4549         0.036886   
    139. D(H  30,C   8,C   7,C   6)      0.9624         0.036886   
    140. D(C   9,C   8,C   7,H  29)      0.9330         0.036886   
    141. D(C   9,C   8,C   7,C   6)   -179.6497         0.036886   
    142. D(H  31,C   9,C   8,H  30)      4.0446         0.019636   
    143. D(H  31,C   9,C   8,C   7)   -175.3649         0.019636   
    144. D(C  10,C   9,C   8,H  30)   -175.0162         0.019636   
    145. D(C  10,C   9,C   8,C   7)      5.5743         0.019636   
    146. D(H  32,C  10,C   9,H  31)   -178.3895         0.037121   
    147. D(H  32,C  10,C   9,C   8)      0.6359         0.037121   
    148. D(C  11,C  10,C   9,H  31)      0.5777         0.037121   
    149. D(C  11,C  10,C   9,C   8)    179.6032         0.037121   
    150. D(C  18,C  11,C  10,H  32)      3.2967         0.018141   
    151. D(C  18,C  11,C  10,C   9)   -175.7096         0.018141   
    152. D(C  12,C  11,C  10,H  32)   -176.6714         0.018141   
    153. D(C  12,C  11,C  10,C   9)      4.3224         0.018141   
    154. D(H  33,C  12,C  11,C  18)   -179.4352         0.024582   
    155. D(H  33,C  12,C  11,C  10)      0.5331         0.024582   
    156. D(C  13,C  12,C  11,C  18)      0.2899         0.024582   
    157. D(C  13,C  12,C  11,C  10)   -179.7418         0.024582   
    158. D(H  34,C  13,C  12,H  33)     -0.2394         0.030259   
    159. D(H  34,C  13,C  12,C  11)   -179.9675         0.030259   
    160. D(C  14,C  13,C  12,H  33)    179.7145         0.030259   
    161. D(C  14,C  13,C  12,C  11)     -0.0136         0.030259   
    162. D(C  17,C  14,C  13,H  34)    179.7591         0.025440   
    163. D(C  17,C  14,C  13,C  12)     -0.1953         0.025440   
    164. D(C  15,C  14,C  13,H  34)     -0.1994         0.025440   
    165. D(C  15,C  14,C  13,C  12)    179.8461         0.025440   
    166. D(H  35,C  17,C  14,C  13)   -179.8782         0.025546   
    167. D(C  18,C  17,C  14,C  15)   -179.9234         0.025546   
    168. D(C  18,C  17,C  14,C  13)      0.1181         0.025546   
    169. D(H  35,C  17,C  14,C  15)      0.0803         0.025546   
    170. D(H  36,C  18,C  17,H  35)     -0.0400         0.030327   
    171. D(H  36,C  18,C  17,C  14)    179.9638         0.030327   
    172. D(C  11,C  18,C  17,H  35)   -179.8344         0.030327   
    173. D(C  11,C  18,C  17,C  14)      0.1693         0.030327   
    174. D(H  36,C  18,C  11,C  12)    179.8354         0.024370   
    175. D(H  36,C  18,C  11,C  10)     -0.1345         0.024370   
    176. D(C  17,C  18,C  11,C  12)     -0.3694         0.024370   
    177. D(C  17,C  18,C  11,C  10)    179.6607         0.024370   
    178. D(H  37,C  19,C   6,C   7)     -0.0059         0.024813   
    179. D(H  37,C  19,C   6,C   5)    179.7383         0.024813   
    180. D(C  20,C  19,C   6,C   7)   -179.8982         0.024813   
    181. D(C  20,C  19,C   6,C   5)     -0.1540         0.024813   
    182. D(H  38,C  20,C  19,H  37)     -0.4927         0.030687   
    183. D(H  38,C  20,C  19,C   6)    179.3997         0.030687   
    184. D(C   3,C  20,C  19,H  37)   -179.7723         0.030687   
    185. D(C   3,C  20,C  19,C   6)      0.1202         0.030687   
    186. D(H  38,C  20,C   3,C   4)   -179.2430         0.024095   
    187. D(H  38,C  20,C   3,N   1)      0.6620         0.024095   
    188. D(C  19,C  20,C   3,C   4)      0.0234         0.024095   
    189. D(C  19,C  20,C   3,N   1)    179.9284         0.024095   
    -----------------------------------------------------------------

Number of atoms                         .... 39
Number of degrees of freedom            .... 189

         *************************************************************
         *                GEOMETRY OPTIMIZATION CYCLE   1            *
         *************************************************************
---------------------------------
CARTESIAN COORDINATES (ANGSTROEM)
---------------------------------
  C     -6.371700   -1.218000   -1.132100
  N     -5.662300   -0.840100    0.064500
  C     -6.407600   -0.673300    1.287000
  C     -4.308500   -0.653500    0.041800
  C     -3.578200   -0.428200    1.221500
  C     -2.217300   -0.241500    1.196900
  C     -1.491700   -0.264200   -0.000600
  C     -0.069000   -0.070400   -0.085000
  C      0.788100    0.105100    0.944100
  C      2.202100    0.303800    0.840700
  C      2.911000    0.455200   -0.298100
  C      4.334300    0.663300   -0.401800
  C      5.202600    0.650100    0.699200
  C      6.553300    0.859800    0.544100
  C      7.087200    1.091500   -0.726800
  C      8.470800    1.309700   -0.886200
  N      9.597100    1.489400   -1.015300
  C      6.239100    1.104200   -1.837200
  C      4.890600    0.891700   -1.669800
  C     -2.223900   -0.486100   -1.174300
  C     -3.584500   -0.676200   -1.161900
  H     -6.411600   -0.395300   -1.854800
  H     -5.896200   -2.078700   -1.609500
  H     -7.391200   -1.497300   -0.876900
  H     -6.193600   -1.474100    2.003800
  H     -7.472600   -0.687700    1.067500
  H     -6.173700    0.286000    1.755800
  H     -4.080800   -0.408600    2.174800
  H     -1.705100   -0.073100    2.131900
  H      0.324800   -0.080100   -1.093300
  H      0.403000    0.090300    1.954700
  H      2.722200    0.346200    1.788800
  H      2.388900    0.439400   -1.245400
  H      4.814100    0.468700    1.689100
  H      7.211900    0.846600    1.400700
  H      6.651600    1.281300   -2.820100
  H      4.240400    0.903500   -2.533200
  H     -1.702300   -0.506900   -2.121400
  H     -4.091500   -0.832500   -2.100100

----------------------------
CARTESIAN COORDINATES (A.U.)
----------------------------
  NO LB      ZA    FRAG     MASS         X           Y           Z
   0 C     6.0000    0    12.011  -12.040768   -2.301686   -2.139359
   1 N     7.0000    0    14.007  -10.700196   -1.587559    0.121887
   2 C     6.0000    0    12.011  -12.108609   -1.272353    2.432078
   3 C     6.0000    0    12.011   -8.141885   -1.234936    0.078991
   4 C     6.0000    0    12.011   -6.761818   -0.809181    2.308300
   5 C     6.0000    0    12.011   -4.190090   -0.456369    2.261813
   6 C     6.0000    0    12.011   -2.818904   -0.499266   -0.001134
   7 C     6.0000    0    12.011   -0.130391   -0.133037   -0.160627
   8 C     6.0000    0    12.011    1.489293    0.198610    1.784090
   9 C     6.0000    0    12.011    4.161366    0.574099    1.588693
  10 C     6.0000    0    12.011    5.500993    0.860203   -0.563327
  11 C     6.0000    0    12.011    8.190640    1.253455   -0.759292
  12 C     6.0000    0    12.011    9.831489    1.228511    1.321297
  13 C     6.0000    0    12.011   12.383942    1.624787    1.028200
  14 C     6.0000    0    12.011   13.392867    2.062636   -1.373453
  15 C     6.0000    0    12.011   16.007492    2.474974   -1.674675
  16 N     7.0000    0    14.007   18.135891    2.814558   -1.918639
  17 C     6.0000    0    12.011   11.790190    2.086636   -3.471805
  18 C     6.0000    0    12.011    9.241895    1.685069   -3.155465
  19 C     6.0000    0    12.011   -4.202562   -0.918596   -2.219105
  20 C     6.0000    0    12.011   -6.773723   -1.277833   -2.195673
  21 H     1.0000    0     1.008  -12.116168   -0.747009   -3.505064
  22 H     1.0000    0     1.008  -11.142203   -3.928174   -3.041514
  23 H     1.0000    0     1.008  -13.967344   -2.829487   -1.657101
  24 H     1.0000    0     1.008  -11.704208   -2.785645    3.786633
  25 H     1.0000    0     1.008  -14.121168   -1.299565    2.017283
  26 H     1.0000    0     1.008  -11.666602    0.540462    3.317981
  27 H     1.0000    0     1.008   -7.711594   -0.772142    4.109776
  28 H     1.0000    0     1.008   -3.222172   -0.138139    4.028707
  29 H     1.0000    0     1.008    0.613783   -0.151367   -2.066038
  30 H     1.0000    0     1.008    0.761560    0.170642    3.693848
  31 H     1.0000    0     1.008    5.144212    0.654223    3.380342
  32 H     1.0000    0     1.008    4.514367    0.830346   -2.353465
  33 H     1.0000    0     1.008    9.097331    0.885715    3.191936
  34 H     1.0000    0     1.008   13.628516    1.599842    2.646939
  35 H     1.0000    0     1.008   12.569702    2.421306   -5.329217
  36 H     1.0000    0     1.008    8.013195    1.707368   -4.787054
  37 H     1.0000    0     1.008   -3.216881   -0.957902   -4.008865
  38 H     1.0000    0     1.008   -7.731814   -1.573197   -3.968614

--------------------------------
INTERNAL COORDINATES (ANGSTROEM)
--------------------------------
 C      0   0   0     0.000000000000     0.00000000     0.00000000
 N      1   0   0     1.441495171688     0.00000000     0.00000000
 C      2   1   0     1.441457796815   118.67884112     0.00000000
 C      2   1   3     1.366787946245   120.62758555   179.52158750
 C      4   2   1     1.405628069583   121.50419867   187.01381031
 C      5   4   2     1.373867118756   121.42650455   179.96666377
 C      6   5   4     1.400363131477   121.76049715     0.09357142
 C      7   6   5     1.438317451052   124.09177112   179.77824998
 C      8   7   6     1.350728496035   126.90257442     2.87142863
 C      9   8   7     1.431631674000   126.13838102   180.35026488
 C     10   9   8     1.349935779954   126.52429885     5.57429660
 C     11  10   9     1.442165798374   126.52042096   179.60316441
 C     12  11  10     1.402255372605   123.59372388     4.32241555
 C     13  12  11     1.375652786862   121.19989637   180.25820554
 C     14  13  12     1.397827210352   120.18528809     0.00000000
 C     15  14  13     1.409740600252   120.22033943   179.84614294
 N     16  15  14     1.147828641392   179.89193933   281.64935058
 C     15  14  13     1.397291329680   119.48522270   359.80468060
 C     18  15  14     1.375365864052   119.80017671     0.11813945
 C      7   6   5     1.401045373998   116.62507388     0.04764151
 C     20   7   6     1.373871948181   122.13494758   359.84598654
 H      1   2   3     1.095774881077   111.62796983   109.83759720
 H      1   2   3     1.093076163861   110.78702449   231.00436086
 H      1   2   3     1.087435414174   109.50601873   349.95634882
 H      3   2   1     1.095846193587   111.66730705   109.36279382
 H      3   2   1     1.087479935447   109.49002506   349.45813337
 H      3   2   1     1.093041234355   110.77264369   230.54975820
 H      5   4   2     1.077855189717   120.19422191     0.60152808
 H      6   5   4     1.079320341697   118.40950420   180.05360795
 H      8   7   6     1.082516244682   114.41113262   182.31005334
 H      9   8   7     1.081588373643   118.95820996     0.96241849
 H     10   9   8     1.082217806174   114.63471407   184.63509665
 H     11  10   9     1.081764919010   118.92388103     0.63593714
 H     13  12  11     1.078767917580   119.93816706     0.53306159
 H     14  13  12     1.080597871551   120.47650003   180.03252389
 H     18  15  14     1.080561460538   119.51438289   180.12182454
 H     19  18  15     1.080906489943   119.39805165   179.96375036
 H     20   7   6     1.081433127845   118.98955172   179.73830282
 H     21  20   7     1.077820917407   118.55867162   179.39971171

---------------------------
INTERNAL COORDINATES (A.U.)
---------------------------
 C      0   0   0     0.000000000000     0.00000000     0.00000000
 N      1   0   0     2.724031097860     0.00000000     0.00000000
 C      2   1   0     2.723960469587   118.67884112     0.00000000
 C      2   1   3     2.582854901547   120.62758555   179.52158750
 C      4   2   1     2.656252097665   121.50419867   187.01381031
 C      5   4   2     2.596232598849   121.42650455   179.96666377
 C      6   5   4     2.646302806532   121.76049715     0.09357142
 C      7   6   5     2.718026076127   124.09177112   179.77824998
 C      8   7   6     2.552506938789   126.90257442     2.87142863
 C      9   8   7     2.705391788507   126.13838102   180.35026488
 C     10   9   8     2.551008922494   126.52429885     5.57429660
 C     11  10   9     2.725298398635   126.52042096   179.60316441
 C     12  11  10     2.649878624043   123.59372388     4.32241555
 C     13  12  11     2.599607022534   121.19989637   180.25820554
 C     14  13  12     2.641510610108   120.18528809     0.00000000
 C     15  14  13     2.664023654347   120.22033943   179.84614294
 N     16  15  14     2.169081780902   179.89193933   281.64935058
 C     15  14  13     2.640497942399   119.48522270   359.80468060
 C     18  15  14     2.599064817003   119.80017671     0.11813945
 C      7   6   5     2.647592058053   116.62507388     0.04764151
 C     20   7   6     2.596241725140   122.13494758   359.84598654
 H      1   2   3     2.070714429666   111.62796983   109.83759720
 H      1   2   3     2.065614593214   110.78702449   231.00436086
 H      1   2   3     2.054955121116   109.50601873   349.95634882
 H      3   2   1     2.070849190780   111.66730705   109.36279382
 H      3   2   1     2.055039254129   109.49002506   349.45813337
 H      3   2   1     2.065548586014   110.77264369   230.54975820
 H      5   4   2     2.036851120591   120.19422191     0.60152808
 H      6   5   4     2.039619856577   118.40950420   180.05360795
 H      8   7   6     2.045659237970   114.41113262   182.31005334
 H      9   8   7     2.043905815819   118.95820996     0.96241849
 H     10   9   8     2.045095270922   114.63471407   184.63509665
 H     11  10   9     2.044239438212   118.92388103     0.63593714
 H     13  12  11     2.038575926287   119.93816706     0.53306159
 H     14  13  12     2.042034038129   120.47650003   180.03252389
 H     18  15  14     2.041965231287   119.51438289   180.12182454
 H     19  18  15     2.042617242370   119.39805165   179.96375036
 H     20   7   6     2.043612443776   118.98955172   179.73830282
 H     21  20   7     2.036786355311   118.55867162   179.39971171

---------------------
BASIS SET INFORMATION
---------------------
There are 3 groups of distinct atoms

 Group   1 Type C   : 19s6p3d2f contracted to 5s4p3d2f pattern {88111/3111/111/11}
 Group   2 Type N   : 19s6p3d2f contracted to 5s4p3d2f pattern {88111/3111/111/11}
 Group   3 Type H   : 5s2p1d contracted to 3s2p1d pattern {311/11/1}

Atom   0C    basis set group =>   1
Atom   1N    basis set group =>   2
Atom   2C    basis set group =>   1
Atom   3C    basis set group =>   1
Atom   4C    basis set group =>   1
Atom   5C    basis set group =>   1
Atom   6C    basis set group =>   1
Atom   7C    basis set group =>   1
Atom   8C    basis set group =>   1
Atom   9C    basis set group =>   1
Atom  10C    basis set group =>   1
Atom  11C    basis set group =>   1
Atom  12C    basis set group =>   1
Atom  13C    basis set group =>   1
Atom  14C    basis set group =>   1
Atom  15C    basis set group =>   1
Atom  16N    basis set group =>   2
Atom  17C    basis set group =>   1
Atom  18C    basis set group =>   1
Atom  19C    basis set group =>   1
Atom  20C    basis set group =>   1
Atom  21H    basis set group =>   3
Atom  22H    basis set group =>   3
Atom  23H    basis set group =>   3
Atom  24H    basis set group =>   3
Atom  25H    basis set group =>   3
Atom  26H    basis set group =>   3
Atom  27H    basis set group =>   3
Atom  28H    basis set group =>   3
Atom  29H    basis set group =>   3
Atom  30H    basis set group =>   3
Atom  31H    basis set group =>   3
Atom  32H    basis set group =>   3
Atom  33H    basis set group =>   3
Atom  34H    basis set group =>   3
Atom  35H    basis set group =>   3
Atom  36H    basis set group =>   3
Atom  37H    basis set group =>   3
Atom  38H    basis set group =>   3
---------------------------------
AUXILIARY/J BASIS SET INFORMATION
---------------------------------
There are 3 groups of distinct atoms

 Group   1 Type C   : 10s7p5d2f1g contracted to 10s7p5d2f1g pattern {1111111111/1111111/11111/11/1}
 Group   2 Type N   : 10s7p5d2f1g contracted to 10s7p5d2f1g pattern {1111111111/1111111/11111/11/1}
 Group   3 Type H   : 4s3p2d1f contracted to 4s3p2d1f pattern {1111/111/11/1}

Atom   0C    basis set group =>   1
Atom   1N    basis set group =>   2
Atom   2C    basis set group =>   1
Atom   3C    basis set group =>   1
Atom   4C    basis set group =>   1
Atom   5C    basis set group =>   1
Atom   6C    basis set group =>   1
Atom   7C    basis set group =>   1
Atom   8C    basis set group =>   1
Atom   9C    basis set group =>   1
Atom  10C    basis set group =>   1
Atom  11C    basis set group =>   1
Atom  12C    basis set group =>   1
Atom  13C    basis set group =>   1
Atom  14C    basis set group =>   1
Atom  15C    basis set group =>   1
Atom  16N    basis set group =>   2
Atom  17C    basis set group =>   1
Atom  18C    basis set group =>   1
Atom  19C    basis set group =>   1
Atom  20C    basis set group =>   1
Atom  21H    basis set group =>   3
Atom  22H    basis set group =>   3
Atom  23H    basis set group =>   3
Atom  24H    basis set group =>   3
Atom  25H    basis set group =>   3
Atom  26H    basis set group =>   3
Atom  27H    basis set group =>   3
Atom  28H    basis set group =>   3
Atom  29H    basis set group =>   3
Atom  30H    basis set group =>   3
Atom  31H    basis set group =>   3
Atom  32H    basis set group =>   3
Atom  33H    basis set group =>   3
Atom  34H    basis set group =>   3
Atom  35H    basis set group =>   3
Atom  36H    basis set group =>   3
Atom  37H    basis set group =>   3
Atom  38H    basis set group =>   3
---------------------------------
AUXILIARY/C BASIS SET INFORMATION
---------------------------------
There are 3 groups of distinct atoms

 Group   1 Type C   : 9s7p6d4f2g contracted to 9s7p6d4f2g pattern {111111111/1111111/111111/1111/11}
 Group   2 Type N   : 9s7p6d4f2g contracted to 9s7p6d4f2g pattern {111111111/1111111/111111/1111/11}
 Group   3 Type H   : 4s3p2d1f contracted to 4s3p2d1f pattern {1111/111/11/1}

Atom   0C    basis set group =>   1
Atom   1N    basis set group =>   2
Atom   2C    basis set group =>   1
Atom   3C    basis set group =>   1
Atom   4C    basis set group =>   1
Atom   5C    basis set group =>   1
Atom   6C    basis set group =>   1
Atom   7C    basis set group =>   1
Atom   8C    basis set group =>   1
Atom   9C    basis set group =>   1
Atom  10C    basis set group =>   1
Atom  11C    basis set group =>   1
Atom  12C    basis set group =>   1
Atom  13C    basis set group =>   1
Atom  14C    basis set group =>   1
Atom  15C    basis set group =>   1
Atom  16N    basis set group =>   2
Atom  17C    basis set group =>   1
Atom  18C    basis set group =>   1
Atom  19C    basis set group =>   1
Atom  20C    basis set group =>   1
Atom  21H    basis set group =>   3
Atom  22H    basis set group =>   3
Atom  23H    basis set group =>   3
Atom  24H    basis set group =>   3
Atom  25H    basis set group =>   3
Atom  26H    basis set group =>   3
Atom  27H    basis set group =>   3
Atom  28H    basis set group =>   3
Atom  29H    basis set group =>   3
Atom  30H    basis set group =>   3
Atom  31H    basis set group =>   3
Atom  32H    basis set group =>   3
Atom  33H    basis set group =>   3
Atom  34H    basis set group =>   3
Atom  35H    basis set group =>   3
Atom  36H    basis set group =>   3
Atom  37H    basis set group =>   3
Atom  38H    basis set group =>   3


           ************************************************************
           *        Program running with 4 parallel MPI-processes     *
           *              working on a common directory               *
           ************************************************************
------------------------------------------------------------------------------
                           ORCA GTO INTEGRAL CALCULATION
                           -- RI-GTO INTEGRALS CHOSEN --
------------------------------------------------------------------------------
------------------------------------------------------------------------------
                   ___                                                        
                  /   \      - P O W E R E D   B Y -                         
                 /     \                                                     
                 |  |  |   _    _      __       _____    __    __             
                 |  |  |  | |  | |    /  \     |  _  \  |  |  /  |          
                  \  \/   | |  | |   /    \    | | | |  |  | /  /          
                 / \  \   | |__| |  /  /\  \   | |_| |  |  |/  /          
                |  |  |   |  __  | /  /__\  \  |    /   |      \           
                |  |  |   | |  | | |   __   |  |    \   |  |\   \          
                \     /   | |  | | |  |  |  |  | |\  \  |  | \   \       
                 \___/    |_|  |_| |__|  |__|  |_| \__\ |__|  \__/        
                                                                              
                      - O R C A' S   B I G   F R I E N D -                    
                                      &                                       
                       - I N T E G R A L  F E E D E R -                       
                                                                              
 v1 FN, 2020, v2 2021                                                         
------------------------------------------------------------------------------


Reading SHARK input file optpbed3-b2plyp-test-117.SHARKINP.tmp ... ok
----------------------
SHARK INTEGRAL PACKAGE
----------------------

Number of atoms                             ...     39
Number of basis functions                   ...   1344
Number of shells                            ...    528
Maximum angular momentum                    ...      3
Integral batch strategy                     ... SHARK/LIBINT Hybrid
RI-J (if used) integral strategy            ... SPLIT-RIJ (Revised 2003 algorithm where possible)
Printlevel                                  ...      1
Contraction scheme used                     ... PARTIAL GENERAL contraction
Coulomb Range Separation                    ... NOT USED
Exchange Range Separation                   ... NOT USED
Finite Nucleus Model                        ... NOT USED
Auxiliary Coulomb fitting basis             ... AVAILABLE
   # of basis functions in Aux-J            ...   2199
   # of shells in Aux-J                     ...    705
   Maximum angular momentum in Aux-J        ...      4
Auxiliary J/K fitting basis                 ... NOT available
Auxiliary Correlation fitting basis         ... AVAILABLE
   # of basis functions in Aux-C            ...   2766
   # of shells in Aux-C                     ...    768
   Maximum angular momentum in Aux-C        ...      4
Auxiliary 'external' fitting basis          ... NOT available
Integral threshold                          ...     2.500000e-11
Primitive cut-off                           ...     2.500000e-12
Primitive pair pre-selection threshold      ...     2.500000e-12

Calculating pre-screening integrals         ... done (  0.4 sec) Dimension = 528
Calculating pre-screening integrals (ORCA)  ... done (  0.7 sec) Dimension = 402
Organizing shell pair data                  ... done (  1.3 sec)
Shell pair information
Total number of shell pairs                 ...    139656
Shell pairs after pre-screening             ...     76725
Total number of primitive shell pairs       ...    184038
Primitive shell pairs kept                  ...     90635
          la=0 lb=0:  17772 shell pairs
          la=1 lb=0:  20178 shell pairs
          la=1 lb=1:   5106 shell pairs
          la=2 lb=0:  12620 shell pairs
          la=2 lb=1:   6465 shell pairs
          la=2 lb=2:   2111 shell pairs
          la=3 lb=0:   6492 shell pairs
          la=3 lb=1:   3318 shell pairs
          la=3 lb=2:   2107 shell pairs
          la=3 lb=3:    556 shell pairs

Calculating one electron integrals          ... done (  0.3 sec)
Calculating RI/J V-Matrix + Cholesky decomp.... done (  0.5 sec)
Calculating RI/C V-Matrix + Cholesky decomp.... done (  0.7 sec)
Calculating Nuclear repulsion               ... done (  0.0 sec) ENN=   1344.871494814897 Eh

SHARK setup successfully completed in   6.0 seconds

Maximum memory used throughout the entire GTOINT-calculation: 129.8 MB


           ************************************************************
           *        Program running with 4 parallel MPI-processes     *
           *              working on a common directory               *
           ************************************************************
-------------------------------------------------------------------------------
                                 ORCA SCF
-------------------------------------------------------------------------------

------------
SCF SETTINGS
------------
Hamiltonian:
 Density Functional     Method          .... DFT(GTOs)
 Exchange Functional    Exchange        .... PBE
   PBE kappa parameter   XKappa         ....  0.804000
   PBE mue parameter    XMuePBE         ....  0.219520
 Correlation Functional Correlation     .... PBE
   PBE beta parameter  CBetaPBE         ....  0.066725
 LDA part of GGA corr.  LDAOpt          .... PW91-LDA
 Gradients option       PostSCFGGA      .... off
 Hybrid DFT is turned on
   Fraction HF Exchange ScalHFX         ....  0.250000
   Scaling of DF-GGA-X  ScalDFX         ....  0.750000
   Scaling of DF-GGA-C  ScalDFC         ....  1.000000
   Scaling of DF-LDA-C  ScalLDAC        ....  1.000000
   Perturbative correction              ....  0.000000
   Density functional embedding theory  .... OFF
   NL short-range parameter             ....  6.900000
 RI-approximation to the Coulomb term is turned on
   Number of AuxJ basis functions       .... 2199
   RIJ-COSX (HFX calculated with COS-X)).... on


General Settings:
 Integral files         IntName         .... optpbed3-b2plyp-test-117
 Hartree-Fock type      HFTyp           .... RHF
 Total Charge           Charge          ....    0
 Multiplicity           Mult            ....    1
 Number of Electrons    NEL             ....  146
 Basis Dimension        Dim             .... 1218
 Nuclear Repulsion      ENuc            ....   1344.8714948149 Eh

Convergence Acceleration:
 DIIS                   CNVDIIS         .... on
   Start iteration      DIISMaxIt       ....    12
   Startup error        DIISStart       ....  0.200000
   # of expansion vecs  DIISMaxEq       ....     5
   Bias factor          DIISBfac        ....   1.050
   Max. coefficient     DIISMaxC        ....  10.000
 Trust-Rad. Augm. Hess. CNVTRAH         .... auto
   Auto Start mean grad. ratio tolernc. ....  1.125000
   Auto Start start iteration           ....    20
   Auto Start num. interpolation iter.  ....    10
   Max. Number of Micro iterations      ....    16
   Max. Number of Macro iterations      .... Maxiter - #DIIS iter
   Number of Davidson start vectors     ....     2
   Converg. threshold I  (grad. norm)   ....   1.000e-05
   Converg. threshold II (energy diff.) ....   1.000e-08
   Grad. Scal. Fac. for Micro threshold ....   0.100
   Minimum threshold for Micro iter.    ....   0.010
   NR start threshold (gradient norm)   ....   0.001
   Initial trust radius                 ....   0.400
   Minimum AH scaling param. (alpha)    ....   1.000
   Maximum AH scaling param. (alpha)    .... 1000.000
   Orbital update algorithm             .... Taylor
   White noise on init. David. guess    .... on
   Maximum white noise                  ....   0.010
   Quad. conv. algorithm                .... NR
 SOSCF                  CNVSOSCF        .... on
   Start iteration      SOSCFMaxIt      ....   150
   Startup grad/error   SOSCFStart      ....  0.003300
 Level Shifting         CNVShift        .... on
   Level shift para.    LevelShift      ....    0.2500
   Turn off err/grad.   ShiftErr        ....    0.0010
 Zerner damping         CNVZerner       .... off
 Static damping         CNVDamp         .... on
   Fraction old density DampFac         ....    0.7000
   Max. Damping (<1)    DampMax         ....    0.9800
   Min. Damping (>=0)   DampMin         ....    0.0000
   Turn off err/grad.   DampErr         ....    0.1000
 Fernandez-Rico         CNVRico         .... off

SCF Procedure:
 Maximum # iterations   MaxIter         ....   125
 SCF integral mode      SCFMode         .... Direct
   Integral package                     .... SHARK and LIBINT hybrid scheme
 Reset frequency        DirectResetFreq ....    20
 Integral Threshold     Thresh          ....  2.500e-11 Eh
 Primitive CutOff       TCut            ....  2.500e-12 Eh

Convergence Tolerance:
 Convergence Check Mode ConvCheckMode   .... Total+1el-Energy
 Convergence forced     ConvForced      .... 0
 Energy Change          TolE            ....  1.000e-08 Eh
 1-El. energy change                    ....  1.000e-05 Eh
 Orbital Gradient       TolG            ....  1.000e-05
 Orbital Rotation angle TolX            ....  1.000e-05
 DIIS Error             TolErr          ....  5.000e-07


Diagonalization of the overlap matrix:
Smallest eigenvalue                        ... 3.114e-07
Time for diagonalization                   ...    0.355 sec
Threshold for overlap eigenvalues          ... 1.000e-08
Number of eigenvalues below threshold      ... 0
Time for construction of square roots      ...    0.249 sec
Total time needed                          ...    0.613 sec

Time for model grid setup =    0.968 sec

------------------------------
INITIAL GUESS: MODEL POTENTIAL
------------------------------
Loading Hartree-Fock densities                     ... done
Calculating cut-offs                               ... done
Initializing the effective Hamiltonian             ... done
Setting up the integral package (SHARK)            ... done
Starting the Coulomb interaction                   ... done (   3.3 sec)
Reading the grid                                   ... done
Mapping shells                                     ... done
Starting the XC term evaluation                    ... done (   2.4 sec)
  promolecular density results
     # of electrons  =    145.995514972
     EX              =   -115.585984179
     EC              =     -4.846905954
     EX+EC           =   -120.432890133
Transforming the Hamiltonian                       ... done (   0.2 sec)
Diagonalizing the Hamiltonian                      ... done (   0.4 sec)
Back transforming the eigenvectors                 ... done (   0.1 sec)
Now organizing SCF variables                       ... done
                      ------------------
                      INITIAL GUESS DONE (   7.4 sec)
                      ------------------
-------------------
DFT GRID GENERATION
-------------------

General Integration Accuracy     IntAcc      ... 4.388
Radial Grid Type                 RadialGrid  ... OptM3 with GC (2021)
Angular Grid (max. ang.)         AngularGrid ... 4 (Lebedev-302)
Angular grid pruning method      GridPruning ... 4 (adaptive)
Weight generation scheme         WeightScheme... Becke
Basis function cutoff            BFCut       ... 1.0000e-11
Integration weight cutoff        WCut        ... 1.0000e-14
Angular grids for H and He will be reduced by one unit
Partially contracted basis set               ... off
Rotationally invariant grid construction     ... off

Total number of grid points                  ...   188269
Total number of batches                      ...     2956
Average number of points per batch           ...       63
Average number of grid points per atom       ...     4827
Time for grid setup =    3.042 sec

--------------------
COSX GRID GENERATION
--------------------

GRIDX 1
-------
General Integration Accuracy     IntAcc      ... 3.816
Radial Grid Type                 RadialGrid  ... OptM3 with GC (2021)
Angular Grid (max. ang.)         AngularGrid ... 1 (Lebedev-50)
Angular grid pruning method      GridPruning ... 4 (adaptive)
Weight generation scheme         WeightScheme... Becke
Basis function cutoff            BFCut       ... 1.0000e-11
Integration weight cutoff        WCut        ... 1.0000e-14
Angular grids for H and He will be reduced by one unit
Partially contracted basis set               ... on
Rotationally invariant grid construction     ... off

Total number of grid points                  ...    24026
Total number of batches                      ...      395
Average number of points per batch           ...       60
Average number of grid points per atom       ...      616
UseSFitting                                  ... on

GRIDX 2
-------
General Integration Accuracy     IntAcc      ... 4.020
Radial Grid Type                 RadialGrid  ... OptM3 with GC (2021)
Angular Grid (max. ang.)         AngularGrid ... 2 (Lebedev-110)
Angular grid pruning method      GridPruning ... 4 (adaptive)
Weight generation scheme         WeightScheme... Becke
Basis function cutoff            BFCut       ... 1.0000e-11
Integration weight cutoff        WCut        ... 1.0000e-14
Angular grids for H and He will be reduced by one unit
Partially contracted basis set               ... on
Rotationally invariant grid construction     ... off

Total number of grid points                  ...    56264
Total number of batches                      ...      899
Average number of points per batch           ...       62
Average number of grid points per atom       ...     1443
UseSFitting                                  ... on

GRIDX 3
-------
General Integration Accuracy     IntAcc      ... 4.338
Radial Grid Type                 RadialGrid  ... OptM3 with GC (2021)
Angular Grid (max. ang.)         AngularGrid ... 3 (Lebedev-194)
Angular grid pruning method      GridPruning ... 4 (adaptive)
Weight generation scheme         WeightScheme... Becke
Basis function cutoff            BFCut       ... 1.0000e-11
Integration weight cutoff        WCut        ... 1.0000e-14
Angular grids for H and He will be reduced by one unit
Partially contracted basis set               ... on
Rotationally invariant grid construction     ... off

Total number of grid points                  ...   121352
Total number of batches                      ...     1915
Average number of points per batch           ...       63
Average number of grid points per atom       ...     3112
UseSFitting                                  ... on

Time for X-Grid setup             =    7.237 sec


--------------------
CPCM SOLVATION MODEL
--------------------
CPCM parameters:
  Epsilon                                         ...      35.6880
  Refrac                                          ...       1.3442
  Rsolv                                           ...       1.3000
  Surface type                                    ... GAUSSIAN VDW
  Epsilon function type                           ...         CPCM
Solvent:                                     ... ACETONITRILE
SMD-CDS solvent descriptors:
  Soln                                       ...    1.3442
  Soln25                                     ...    1.3416
  Sola                                       ...    0.0700
  Solb                                       ...    0.3200
  Solg                                       ...   41.2500
  Solc                                       ...    0.0000
  Solh                                       ...    0.0000
Radii:
 Radius for C  used is    3.4960 Bohr (=   1.8500 Ang.)
 Radius for N  used is    3.5716 Bohr (=   1.8900 Ang.)
 Radius for H  used is    2.2677 Bohr (=   1.2000 Ang.)
Calculating surface                               ...        done! (  0.0s)
GEPOL surface points                              ...         2315
GEPOL Volume                                      ...    2076.4655
GEPOL Surface-area                                ...    1207.8695
Calculating surface distance matrix               ...        done! (  0.1s)
Performing Cholesky decomposition & store         ...        done! (  0.4s)
Overall time for CPCM initialization              ...                 0.5s
 re-compute Schwartz prescreening matrix in partically contracted basis (1) ...done (   0.293 sec)
--------------
SCF ITERATIONS
--------------
ITER       Energy         Delta-E        Max-DP      RMS-DP      [F,P]     Damp
               ***  Starting incremental Fock matrix formation  ***
  0   -843.1691508172   0.000000000000 1.20924892  0.00509776  0.2359225 0.7000
  1   -843.3622726756  -0.193121858436 1.50334431  0.00608728  0.1056781 0.7000
                               ***Turning on DIIS***
  2   -843.4524955008  -0.090222825175 4.12178824  0.01658441  0.0410196 0.0000
  3   -843.5885782570  -0.136082756203 0.18467975  0.00088566  0.0490727 0.0000
  4   -843.6161090056  -0.027530748616 0.03649425  0.00023844  0.0200808 0.0000
  5   -843.6175299813  -0.001420975673 0.04568318  0.00021372  0.0117132 0.0000
                      *** Initiating the SOSCF procedure ***
                           *** Shutting down DIIS ***
                      *** Re-Reading the Fockian *** 
                      *** Removing any level shift *** 
ITER      Energy       Delta-E        Grad      Rot      Max-DP    RMS-DP
  6   -843.61776373  -0.0002337474  0.000457  0.000457  0.122141  0.000490
               *** Restarting incremental Fock matrix formation ***
  7   -843.61774640   0.0000173305  0.000124  0.000544  1.369773  0.005690
  8   -843.61774783  -0.0000014313  0.000151  0.000687  0.150272  0.000661
  9   -843.61775217  -0.0000043369  0.000052  0.000106  0.215423  0.000924
 10   -843.61775200   0.0000001692  0.000077  0.000077  0.015029  0.000078
 11   -843.61775223  -0.0000002307  0.000018  0.000039  0.035643  0.000196
 12   -843.61775226  -0.0000000273  0.000021  0.000020  0.006446  0.000046
                  ***Gradient check signals convergence***
              ***Rediagonalizing the Fockian in SOSCF/NRSCF***

               *****************************************************
               *                     SUCCESS                       *
               *           SCF CONVERGED AFTER  13 CYCLES          *
               *****************************************************

Old exchange energy                            =    -29.545832507 Eh
New exchange energy                            =    -29.545722895 Eh
Exchange energy change after final integration =      0.000109612 Eh
Total energy after final integration           =   -843.617642667 Eh
Final COS-X integration done in                =   171.801 sec

SMD CDS free energy correction energy :                -3.10246     Kcal/mol
Total Energy after SMD CDS correction =              -843.622586753 Eh

----------------
TOTAL SCF ENERGY
----------------

Total Energy       :         -843.62258675 Eh          -22956.13765 eV

Components:
Nuclear Repulsion  :         1344.87149481 Eh           36595.81387 eV
Electronic Energy  :        -2188.49408157 Eh          -59551.95152 eV
One Electron Energy:        -3808.58996941 Eh         -103637.00187 eV
Two Electron Energy:         1620.09588784 Eh           44085.05035 eV
Max COSX asymmetry :            0.00005118 Eh               0.00139 eV
CPCM Dielectric    :           -0.03158944 Eh              -0.85959 eV
SMD CDS (Gcds)     :           -0.00494409 Eh              -0.13454 eV

Virial components:
Potential Energy   :        -1682.52532849 Eh          -45783.84179 eV
Kinetic Energy     :          838.90274174 Eh           22827.70414 eV
Virial Ratio       :            2.00562621


DFT components:
N(Alpha)           :       73.000006209990 electrons
N(Beta)            :       73.000006209990 electrons
N(Total)           :      146.000012419979 electrons
E(X)               :      -88.375966584958 Eh       
E(C)               :       -4.848508494356 Eh       
E(XC)              :      -93.224475079314 Eh       
DFET-embed. en.    :        0.000000000000 Eh       
CPCM Solvation Model Properties:
Surface-charge          :           -0.06926790
Charge-correction       :            0.00035476 Eh               0.00965 eV
Free-energy (cav+disp)  :           -0.00494409 Eh              -0.13454 eV

---------------
SCF CONVERGENCE
---------------

  Last Energy change         ...   -2.3963e-08  Tolerance :   1.0000e-08
  Last MAX-Density change    ...    2.8866e-15  Tolerance :   1.0000e-07
  Last RMS-Density change    ...    1.9639e-17  Tolerance :   5.0000e-09
  Last Orbital Gradient      ...    2.2377e-06  Tolerance :   1.0000e-05
  Last Orbital Rotation      ...    1.8428e-05  Tolerance :   1.0000e-05

             **** THE GBW FILE WAS UPDATED (optpbed3-b2plyp-test-117.gbw) ****
             **** DENSITY optpbed3-b2plyp-test-117.scfp WAS UPDATED ****
             **** ENERGY FILE WAS UPDATED (optpbed3-b2plyp-test-117.en.tmp) ****
             **** THE GBW FILE WAS UPDATED (optpbed3-b2plyp-test-117.gbw) ****
             **** DENSITY optpbed3-b2plyp-test-117.scfp WAS UPDATED ****
----------------
ORBITAL ENERGIES
----------------

  NO   OCC          E(Eh)            E(eV) 
   0   2.0000     -14.410075      -392.1181 
   1   2.0000     -14.387020      -391.4907 
   2   2.0000     -10.271908      -279.5128 
   3   2.0000     -10.269995      -279.4608 
   4   2.0000     -10.265759      -279.3455 
   5   2.0000     -10.252261      -278.9782 
   6   2.0000     -10.245669      -278.7988 
   7   2.0000     -10.245479      -278.7937 
   8   2.0000     -10.240721      -278.6642 
   9   2.0000     -10.240719      -278.6641 
  10   2.0000     -10.234155      -278.4855 
  11   2.0000     -10.233931      -278.4794 
  12   2.0000     -10.232246      -278.4336 
  13   2.0000     -10.230526      -278.3868 
  14   2.0000     -10.226716      -278.2831 
  15   2.0000     -10.226221      -278.2696 
  16   2.0000     -10.225793      -278.2580 
  17   2.0000     -10.224284      -278.2169 
  18   2.0000     -10.220212      -278.1061 
  19   2.0000     -10.219829      -278.0957 
  20   2.0000     -10.217966      -278.0450 
  21   2.0000      -0.983369       -26.7588 
  22   2.0000      -0.948861       -25.8198 
  23   2.0000      -0.905861       -24.6497 
  24   2.0000      -0.884353       -24.0645 
  25   2.0000      -0.847207       -23.0537 
  26   2.0000      -0.818406       -22.2700 
  27   2.0000      -0.787060       -21.4170 
  28   2.0000      -0.783951       -21.3324 
  29   2.0000      -0.776261       -21.1231 
  30   2.0000      -0.741253       -20.1705 
  31   2.0000      -0.738703       -20.1011 
  32   2.0000      -0.697580       -18.9821 
  33   2.0000      -0.664188       -18.0735 
  34   2.0000      -0.642574       -17.4853 
  35   2.0000      -0.631808       -17.1924 
  36   2.0000      -0.618213       -16.8224 
  37   2.0000      -0.590239       -16.0612 
  38   2.0000      -0.575575       -15.6622 
  39   2.0000      -0.554198       -15.0805 
  40   2.0000      -0.540236       -14.7006 
  41   2.0000      -0.519249       -14.1295 
  42   2.0000      -0.504683       -13.7331 
  43   2.0000      -0.493171       -13.4199 
  44   2.0000      -0.479299       -13.0424 
  45   2.0000      -0.473098       -12.8736 
  46   2.0000      -0.461439       -12.5564 
  47   2.0000      -0.457735       -12.4556 
  48   2.0000      -0.453127       -12.3302 
  49   2.0000      -0.441887       -12.0243 
  50   2.0000      -0.432878       -11.7792 
  51   2.0000      -0.426850       -11.6152 
  52   2.0000      -0.425819       -11.5871 
  53   2.0000      -0.416590       -11.3360 
  54   2.0000      -0.410916       -11.1816 
  55   2.0000      -0.403026       -10.9669 
[...]
   Transformed RI-exchange        ...   737.16 sec
   (ab|v) reading and digestion   ...   693.27 sec
   Final sigma-completion         ...     0.01 sec
   Done building sigma-vectors             Size of expansion space: 60
   Lowest Energy          :     0.110282441533
   Maximum Energy change  :     0.000576349110 (vector 9)
   Maximum residual norm  :     0.000099641454

                       ****Iteration    4****
              <<< Entering MO-section for Build Sigma(Double) >>>
   Forming the XC and CPCM contribution:
   Time for densities:            0.322
   Time for XC-Integration:      18.121
   Time for LR-CPCM terms:       14.179
   Time for Sigma-Completion:     0.235
   Time for building 10 sigma-vectors
   Data Preparation Phase         ...     0.01 sec
   Transformed RI Coulomb         ...     1.00 sec
   Transformed RI-exchange        ...   776.81 sec
   (ab|v) reading and digestion   ...   715.44 sec
   Final sigma-completion         ...     0.01 sec
   Done building sigma-vectors             Size of expansion space: 70
   Lowest Energy          :     0.110278631596
   Maximum Energy change  :     0.000511023063 (vector 9)
   Maximum residual norm  :     0.000068187247
   Rebuilding the expansion space

                       ****Iteration    5****
              <<< Entering MO-section for Build Sigma(Double) >>>
   Forming the XC and CPCM contribution:
   Time for densities:            0.662
   Time for XC-Integration:      36.074
   Time for LR-CPCM terms:       22.440
   Time for Sigma-Completion:     0.457
   Time for building 20 sigma-vectors
   Data Preparation Phase         ...     0.02 sec
   Transformed RI Coulomb         ...     1.74 sec
   Transformed RI-exchange        ...  1543.41 sec
   (ab|v) reading and digestion   ...  1415.18 sec
   Final sigma-completion         ...     0.02 sec
   Done building sigma-vectors             Size of expansion space: 20
   Lowest Energy          :     0.110278376844
   Maximum Energy change  :     0.000093964461 (vector 9)
   Maximum residual norm  :     0.000009549431

                       ****Iteration    6****
              <<< Entering MO-section for Build Sigma(Double) >>>
   Forming the XC and CPCM contribution:
   Time for densities:            0.294
   Time for XC-Integration:      18.405
   Time for LR-CPCM terms:       14.188
   Time for Sigma-Completion:     0.246
   Time for building 10 sigma-vectors
   Data Preparation Phase         ...     0.01 sec
   Transformed RI Coulomb         ...     1.03 sec
   Transformed RI-exchange        ...   783.47 sec
   (ab|v) reading and digestion   ...   682.37 sec
   Final sigma-completion         ...     0.01 sec
   Done building sigma-vectors             Size of expansion space: 30
   Lowest Energy          :     0.110278335745
   Maximum Energy change  :     0.000022738903 (vector 9)
   Maximum residual norm  :     0.000002475321

                       ****Iteration    7****
              <<< Entering MO-section for Build Sigma(Double) >>>
   Forming the XC and CPCM contribution:
   Time for densities:            0.347
   Time for XC-Integration:      22.078
   Time for LR-CPCM terms:       15.525
   Time for Sigma-Completion:     0.314
   Time for building 10 sigma-vectors
   Data Preparation Phase         ...     0.01 sec
   Transformed RI Coulomb         ...     1.07 sec
   Transformed RI-exchange        ...   775.43 sec
   (ab|v) reading and digestion   ...   675.28 sec
   Final sigma-completion         ...     0.01 sec
   Done building sigma-vectors             Size of expansion space: 40
   Lowest Energy          :     0.110278332007
   Maximum Energy change  :     0.000005031259 (vector 9)
   Maximum residual norm  :     0.000000714195

      *** CONVERGENCE OF RESIDUAL NORM REACHED ***

Storing the converged CI vectors               ... optpbed3-b2plyp-test-117_job2.cis1

                 *** DAVIDSON DONE ***

Total time for solving the CIS problem:  6646.635sec

------------------
DOUBLES CORRECTION (Double precision version)
------------------

The (D) correction will be scaled by  0.2700
Doing v(i,a)*T(i,a) terms (RI)                    ... ok
Doing u(i,j,a,b) terms for state   0              ... ok
Doing u(i,j,a,b) terms for state   1              ... ok
Doing u(i,j,a,b) terms for state   2              ... ok
Doing u(i,j,a,b) terms for state   3              ... ok
Doing u(i,j,a,b) terms for state   4              ... ok
Doing u(i,j,a,b) terms for state   5              ... ok
Doing u(i,j,a,b) terms for state   6              ... ok
Doing u(i,j,a,b) terms for state   7              ... ok
Doing u(i,j,a,b) terms for state   8              ... ok
Doing u(i,j,a,b) terms for state   9              ... ok

Contributions to the (D) correction(s) (in eV)

STATE  Final   Init.   Total   v(ext)   v(int)  v(3)    u
       omega   omega     (D)                             
-----------------------------------------------------------------------------
   0   2.688   3.001  -0.313   0.591   1.008  -0.049  -1.862
   1   3.960   4.433  -0.474   0.459   0.988  -0.051  -1.869
   2   4.341   4.556  -0.214   0.035   0.993  -0.002  -1.240
   3   3.942   4.595  -0.653   0.563   0.938  -0.045  -2.110
   4   4.155   4.715  -0.560   0.485   0.980  -0.023  -2.001
   5   4.258   4.774  -0.516   0.510   0.987  -0.049  -1.965
   6   4.661   4.844  -0.183   0.033   1.000  -0.001  -1.214
   7   4.755   4.943  -0.188   0.038   1.006  -0.001  -1.230
   8   4.933   5.193  -0.260   0.029   1.001  -0.001  -1.289
   9   5.032   5.248  -0.216   0.121   0.991  -0.011  -1.316

(D)-timings
 V(i,a)*T(i,a) terms           ...   916.217 sec
 U(i,j,a,b) 3-internal         ...    19.426 sec
 U(i,j,a,b) 3-external         ...   483.560 sec
 U(i,j,a,b) pair terms         ...   437.994 sec
 Total measured time           ...  4266.967 sec

 Time for (ab|v) I/O           ...   126.821 sec


------------------------------------
TD-DFT/TDA EXCITED STATES (SINGLETS)
------------------------------------

the weight of the individual excitations are printed if larger than 1.0e-02

STATE  1:  E=   0.098793 au      2.688 eV    21682.6 cm**-1 <S**2> =   0.000000
    71a ->  73a  :     0.026577 (c= -0.16302389)
    72a ->  73a  :     0.915848 (c=  0.95699946)
    72a ->  74a  :     0.020887 (c=  0.14452432)

STATE  2:  E=   0.145518 au      3.960 eV    31937.6 cm**-1 <S**2> =   0.000000
    70a ->  73a  :     0.030814 (c= -0.17553866)
    70a ->  74a  :     0.011090 (c= -0.10531073)
    71a ->  73a  :     0.038136 (c= -0.19528440)
    71a ->  81a  :     0.022634 (c= -0.15044762)
    72a ->  74a  :     0.418166 (c= -0.64665769)
    72a ->  75a  :     0.022372 (c= -0.14957116)
    72a ->  77a  :     0.025141 (c=  0.15855872)
    72a ->  81a  :     0.330316 (c= -0.57473115)
    72a ->  82a  :     0.024809 (c= -0.15750743)

STATE  3:  E=   0.159543 au      4.341 eV    35015.7 cm**-1 <S**2> =   0.000000
    71a ->  75a  :     0.021372 (c= -0.14619080)
    72a ->  74a  :     0.017902 (c=  0.13379866)
    72a ->  75a  :     0.384017 (c= -0.61969110)
    72a ->  76a  :     0.363340 (c=  0.60277723)
    72a ->  79a  :     0.078616 (c= -0.28038478)
    72a ->  82a  :     0.039449 (c=  0.19861717)
    72a ->  86a  :     0.039060 (c=  0.19763616)

STATE  4:  E=   0.144856 au      3.942 eV    31792.3 cm**-1 <S**2> =   0.000000
    68a ->  73a  :     0.014769 (c= -0.12152888)
    69a ->  73a  :     0.011307 (c= -0.10633244)
    71a ->  73a  :     0.746343 (c= -0.86391119)
    71a ->  74a  :     0.018973 (c= -0.13774116)
    71a ->  77a  :     0.017329 (c= -0.13163802)
    72a ->  73a  :     0.027696 (c= -0.16642027)
    72a ->  74a  :     0.032909 (c=  0.18140901)
    72a ->  77a  :     0.059995 (c=  0.24493920)
    72a ->  81a  :     0.010155 (c=  0.10077142)

STATE  5:  E=   0.152707 au      4.155 eV    33515.2 cm**-1 <S**2> =   0.000000
    68a ->  77a  :     0.012088 (c= -0.10994711)
    69a ->  73a  :     0.164033 (c= -0.40500934)
    69a ->  74a  :     0.020766 (c=  0.14410277)
    71a ->  73a  :     0.109612 (c=  0.33107696)
    71a ->  77a  :     0.128884 (c= -0.35900463)
    72a ->  77a  :     0.517870 (c=  0.71963183)

STATE  6:  E=   0.156485 au      4.258 eV    34344.6 cm**-1 <S**2> =   0.000000
    70a ->  73a  :     0.047577 (c=  0.21812134)
    70a ->  74a  :     0.022467 (c=  0.14988847)
    71a ->  74a  :     0.025185 (c=  0.15869759)
    71a ->  81a  :     0.011143 (c=  0.10556115)
    72a ->  74a  :     0.382755 (c= -0.61867218)
    72a ->  77a  :     0.015428 (c=  0.12420950)
    72a ->  81a  :     0.377710 (c=  0.61458140)
    72a ->  82a  :     0.024112 (c=  0.15528174)

STATE  7:  E=   0.171290 au      4.661 eV    37593.9 cm**-1 <S**2> =   0.000000
    71a ->  76a  :     0.041148 (c=  0.20285001)
    72a ->  75a  :     0.302959 (c= -0.55041712)
    72a ->  76a  :     0.125373 (c= -0.35408034)
    72a ->  78a  :     0.015919 (c= -0.12617168)
    72a ->  79a  :     0.393858 (c=  0.62758119)
    72a ->  82a  :     0.015821 (c=  0.12578250)
    72a ->  87a  :     0.041862 (c=  0.20460166)

STATE  8:  E=   0.174740 au      4.755 eV    38350.9 cm**-1 <S**2> =   0.000000
    71a ->  80a  :     0.012811 (c= -0.11318724)
    72a ->  78a  :     0.866616 (c= -0.93092186)
    72a ->  79a  :     0.014054 (c= -0.11855125)
    72a ->  83a  :     0.017512 (c=  0.13233449)
    72a ->  84a  :     0.040697 (c= -0.20173543)

STATE  9:  E=   0.181291 au      4.933 eV    39788.8 cm**-1 <S**2> =   0.000000
    71a ->  75a  :     0.050894 (c=  0.22559611)
    71a ->  76a  :     0.010890 (c=  0.10435334)
    72a ->  75a  :     0.038049 (c= -0.19506066)
    72a ->  76a  :     0.339497 (c= -0.58266337)
    72a ->  79a  :     0.303975 (c= -0.55133899)
    72a ->  81a  :     0.013468 (c= -0.11605265)
    72a ->  82a  :     0.157573 (c=  0.39695485)
    72a ->  94a  :     0.010980 (c=  0.10478700)

STATE 10:  E=   0.184915 au      5.032 eV    40584.2 cm**-1 <S**2> =   0.000000
    69a ->  73a  :     0.055694 (c=  0.23599661)
    71a ->  74a  :     0.010547 (c= -0.10269908)
    71a ->  85a  :     0.010480 (c=  0.10237364)
    72a ->  77a  :     0.022971 (c=  0.15156280)
    72a ->  80a  :     0.023267 (c=  0.15253401)
    72a ->  81a  :     0.014852 (c=  0.12186882)
    72a ->  83a  :     0.481211 (c= -0.69369375)
    72a ->  84a  :     0.199364 (c= -0.44650163)
    72a ->  89a  :     0.020105 (c= -0.14179084)
    72a ->  90a  :     0.069303 (c=  0.26325431)


-----------------------------
TD-DFT/TDA-EXCITATION SPECTRA
-----------------------------

Center of mass = (  1.7510,  0.2606, -0.3070)
Calculating the Dipole integrals                  ... done
Transforming integrals                            ... done
Calculating the Linear Momentum integrals         ... done
Transforming integrals                            ... done
Calculating angular momentum integrals            ... done
Transforming integrals                            ... done

-----------------------------------------------------------------------------
         ABSORPTION SPECTRUM VIA TRANSITION ELECTRIC DIPOLE MOMENTS
-----------------------------------------------------------------------------
State   Energy    Wavelength  fosc         T2        TX        TY        TZ  
        (cm-1)      (nm)                 (au**2)    (au)      (au)      (au) 
-----------------------------------------------------------------------------
   1   21682.6    461.2   1.780539402  27.03430  -5.12608  -0.80796   0.32378
   2   31937.6    313.1   0.026021035   0.26822  -0.37354  -0.10727  -0.34232
   3   35015.7    285.6   0.017507150   0.16460  -0.03065   0.40447  -0.00793
   4   31792.3    314.5   0.027685620   0.28669  -0.39040  -0.10022   0.35247
   5   33515.2    298.4   0.058604658   0.57566   0.72171   0.11269  -0.20516
   6   34344.6    291.2   0.064755882   0.62072   0.46647   0.06091   0.63199
   7   37593.9    266.0   0.006528947   0.05717   0.02609   0.23658   0.02288
   8   38350.9    260.7   0.000606223   0.00520   0.00868  -0.07126  -0.00711
   9   39788.8    251.3   0.003583063   0.02965   0.02640  -0.16900   0.01969
  10   40584.2    246.4   0.009123925   0.07401   0.12102  -0.00768  -0.24353

-----------------------------------------------------------------------------
         ABSORPTION SPECTRUM VIA TRANSITION VELOCITY DIPOLE MOMENTS
-----------------------------------------------------------------------------
State   Energy    Wavelength   fosc        P2         PX        PY        PZ  
        (cm-1)      (nm)                 (au**2)     (au)      (au)      (au) 
-----------------------------------------------------------------------------
   1   21682.6    461.2   1.438333951   0.21315   0.45567   0.06989  -0.02503
   2   31937.6    313.1   0.014037572   0.00306   0.04688   0.00704  -0.02858
   3   35015.7    285.6   0.012271087   0.00294   0.00403  -0.05388   0.00421
   4   31792.3    314.5   0.024884291   0.00541   0.06678   0.01393  -0.02744
   5   33515.2    298.4   0.050561928   0.01158  -0.10638  -0.01548   0.00497
   6   34344.6    291.2   0.031107182   0.00730  -0.08315  -0.00751  -0.01819
   7   37593.9    266.0   0.004519809   0.00116  -0.00527  -0.03366   0.00069
   8   38350.9    260.7   0.000553340   0.00015  -0.00167   0.01193   0.00002
   9   39788.8    251.3   0.004688636   0.00128  -0.00688   0.03499  -0.00181
  10   40584.2    246.4   0.000328463   0.00009   0.00610   0.00524   0.00514

-------------------------------------------------------------------
                             CD SPECTRUM
-------------------------------------------------------------------
State  Energy     Wavelength     R         MX        MY        MZ   
       (cm-1)       (nm)     (1e40*cgs)   (au)      (au)      (au)  
-------------------------------------------------------------------
   1   21682.6    461.2    -19.88773   0.03201  -0.16229  -0.02849
   2   31937.6    313.1     -1.75608  -0.00737   0.09828  -0.01188
   3   35015.7    285.6     -4.21596  -0.03832  -0.03231  -0.37193
   4   31792.3    314.5      2.01174  -0.00380   0.04521   0.02075
   5   33515.2    298.4     -2.03543  -0.04529   0.27087   0.01049
   6   34344.6    291.2     11.66248   0.00164  -0.08152   0.04579
   7   37593.9    266.0     -4.12158   0.02747  -0.01570  -0.25107
   8   38350.9    260.7     -0.43261   0.05962   0.01774   0.02400
   9   39788.8    251.3     -0.26130  -0.03240   0.01396   0.13508
  10   40584.2    246.4     -3.50296  -0.00236  -0.01823   0.02991

-------------------------------------------------------------------
         CD SPECTRUM VIA TRANSITION VELOCITY DIPOLE MOMENTS        
-------------------------------------------------------------------
State  Energy     Wavelength     R         MX        MY        MZ   
       (cm-1)       (nm)     (1e40*cgs)   (au)      (au)      (au)  
-------------------------------------------------------------------
   1   21682.6    461.2     18.87782   0.03201  -0.16229  -0.02849
   2   31937.6    313.1      2.22429  -0.00737   0.09828  -0.01188
   3   35015.7    285.6      0.06017  -0.03832  -0.03231  -0.37193
   4   31792.3    314.5     -0.62993  -0.00380   0.04521   0.02075
   5   33515.2    298.4      2.09297  -0.04529   0.27087   0.01049
   6   34344.6    291.2     -1.07592   0.00164  -0.08152   0.04579
   7   37593.9    266.0      0.57612   0.02747  -0.01570  -0.25107
   8   38350.9    260.7      0.30344   0.05962   0.01774   0.02400
   9   39788.8    251.3      1.21243  -0.03240   0.01396   0.13508
  10   40584.2    246.4      0.11204  -0.00236  -0.01823   0.02991

Total run time:    10923.441 sec

           *** ORCA-CIS/TD-DFT FINISHED WITHOUT ERROR ***

Maximum memory used throughout the entire CIS-calculation: 1704.7 MB

-----------------------
CIS/TD-DFT TOTAL ENERGY
-----------------------

    E(SCF)  =   -842.781297609 Eh
    DE(CIS) =      0.098793333 Eh (Root  1)
    ----------------------------- ---------
    E(tot)  =   -842.682504276 Eh



-------------------------------------------------------------------------------
                          DFT DISPERSION CORRECTION                            
                                                                               
                              DFTD3 V3.1  Rev 1                                
                          USING Becke-Johnson damping                          
-------------------------------------------------------------------------------
The B2PLYP functional is recognized
Active option DFTDOPT                   ...         4   

molecular C6(AA) [au] = 18070.430472 


            DFT-D V3
 parameters
 s6 scaling factor         :     0.6400 
 a1 scaling factor         :     0.3065 
 s8 scaling factor         :     0.9147 
 a2 scaling factor         :     5.0570 
 ad hoc parameters k1-k3   :    16.0000     1.3333    -4.0000 

 Edisp/kcal,au: -23.321106896518  -0.037164545513 
 E6   /kcal   : -13.136139676 
 E8   /kcal   : -10.184967220 
 % E8         :  43.672743603 

-------------------------   ----------------
Dispersion correction           -0.037164546
-------------------------   ----------------


-------------------------   --------------------
FINAL SINGLE POINT ENERGY      -842.719668821538
-------------------------   --------------------


                            ***************************************
                            *     ORCA property calculations      *
                            ***************************************


  WARNING: The energy has been calculated at the MP2 level but the densities
           used in the property calculations are still SCF densities
           MP2 response densities have not been calculated 
           use %mp2 Density relaxed end
           or  %mp2 Density unrelaxed end

                                    ---------------------
                                    Active property flags
                                    ---------------------
   (+) Dipole Moment


------------------------------------------------------------------------------
                       ORCA ELECTRIC PROPERTIES CALCULATION
------------------------------------------------------------------------------

Dipole Moment Calculation                       ... on
Quadrupole Moment Calculation                   ... off
Polarizability Calculation                      ... off
GBWName                                         ... optpbed3-b2plyp-test-117_job2.gbw
Electron density                                ... optpbed3-b2plyp-test-117_job2.scfp
The origin for moment calculation is the CENTER OF MASS  = ( 1.751035,  0.260649 -0.307007)

-------------
DIPOLE MOMENT
-------------
                                X             Y             Z
Electronic contribution:     31.32796       4.63817      -2.05598
Nuclear contribution   :    -36.64179      -5.43314       2.45419
                        -----------------------------------------
Total Dipole Moment    :     -5.31383      -0.79498       0.39821
                        -----------------------------------------
Magnitude (a.u.)       :      5.38770
Magnitude (Debye)      :     13.69445



--------------------
Rotational spectrum 
--------------------
 
Rotational constants in cm-1:     0.061095     0.002307     0.002226 
Rotational constants in MHz :  1831.586624    69.165430    66.722137 

 Dipole components along the rotational axes: 
x,y,z [a.u.] :    -5.387282     0.063707     0.021522 
x,y,z [Debye]:   -13.693382     0.161930     0.054705 

 

Timings for individual modules:

Sum of individual times         ...    14178.279 sec (= 236.305 min)
GTO integral calculation        ...        5.859 sec (=   0.098 min)   0.0 %
SCF iterations                  ...     1695.593 sec (=  28.260 min)  12.0 %
MP2 module                      ...     1550.333 sec (=  25.839 min)  10.9 %
CIS module                      ...    10926.495 sec (= 182.108 min)  77.1 %



                             ****ORCA TERMINATED NORMALLY****
TOTAL RUN TIME: 0 days 8 hours 42 minutes 17 seconds 979 msec
