
                                 *****************
                                 * O   R   C   A *
                                 *****************

                                            #,                                       
                                            ###                                      
                                            ####                                     
                                            #####                                    
                                            ######                                   
                                           ########,                                 
                                     ,,################,,,,,                         
                               ,,#################################,,                 
                          ,,##########################################,,             
                       ,#########################################, ''#####,          
                    ,#############################################,,   '####,        
                  ,##################################################,,,,####,       
                ,###########''''           ''''###############################       
              ,#####''   ,,,,##########,,,,          '''####'''          '####       
            ,##' ,,,,###########################,,,                        '##       
           ' ,,###''''                  '''############,,,                           
         ,,##''                                '''############,,,,        ,,,,,,###''
      ,#''                                            '''#######################'''  
     '                                                          ''''####''''         
             ,#######,   #######,   ,#######,      ##                                
            ,#'     '#,  ##    ##  ,#'     '#,    #''#        ######   ,####,        
            ##       ##  ##   ,#'  ##            #'  '#       #        #'  '#        
            ##       ##  #######   ##           ,######,      #####,   #    #        
            '#,     ,#'  ##    ##  '#,     ,#' ,#      #,         ##   #,  ,#        
             '#######'   ##     ##  '#######'  #'      '#     #####' # '####'        



                  #######################################################
                  #                        -***-                        #
                  #          Department of theory and spectroscopy      #
                  #    Directorship and core code : Frank Neese         #
                  #        Max Planck Institute fuer Kohlenforschung    #
                  #                Kaiser Wilhelm Platz 1               #
                  #                 D-45470 Muelheim/Ruhr               #
                  #                      Germany                        #
                  #                                                     #
                  #                  All rights reserved                #
                  #                        -***-                        #
                  #######################################################


                         Program Version 5.0.2 -  RELEASE  -


 With contributions from (in alphabetic order):
   Daniel Aravena         : Magnetic Suceptibility
   Michael Atanasov       : Ab Initio Ligand Field Theory (pilot matlab implementation)
   Alexander A. Auer      : GIAO ZORA, VPT2 properties, NMR spectrum
   Ute Becker             : Parallelization
   Giovanni Bistoni       : ED, misc. LED, open-shell LED, HFLD
   Martin Brehm           : Molecular dynamics
   Dmytro Bykov           : SCF Hessian
   Vijay G. Chilkuri      : MRCI spin determinant printing, contributions to CSF-ICE
   Dipayan Datta          : RHF DLPNO-CCSD density
   Achintya Kumar Dutta   : EOM-CC, STEOM-CC
   Dmitry Ganyushin       : Spin-Orbit,Spin-Spin,Magnetic field MRCI
   Miquel Garcia          : C-PCM and meta-GGA Hessian, CC/C-PCM, Gaussian charge scheme
   Yang Guo               : DLPNO-NEVPT2, F12-NEVPT2, CIM, IAO-localization
   Andreas Hansen         : Spin unrestricted coupled pair/coupled cluster methods
   Benjamin Helmich-Paris : MC-RPA, TRAH-SCF, COSX integrals
   Lee Huntington         : MR-EOM, pCC
   Robert Izsak           : Overlap fitted RIJCOSX, COSX-SCS-MP3, EOM
   Marcus Kettner         : VPT2
   Christian Kollmar      : KDIIS, OOCD, Brueckner-CCSD(T), CCSD density, CASPT2, CASPT2-K
   Simone Kossmann        : Meta GGA functionals, TD-DFT gradient, OOMP2, MP2 Hessian
   Martin Krupicka        : Initial AUTO-CI
   Lucas Lang             : DCDCAS
   Marvin Lechner         : AUTO-CI (C++ implementation), FIC-MRCC
   Dagmar Lenk            : GEPOL surface, SMD
   Dimitrios Liakos       : Extrapolation schemes; Compound Job, initial MDCI parallelization
   Dimitrios Manganas     : Further ROCIS development; embedding schemes
   Dimitrios Pantazis     : SARC Basis sets
   Anastasios Papadopoulos: AUTO-CI, single reference methods and gradients
   Taras Petrenko         : DFT Hessian,TD-DFT gradient, ASA, ECA, R-Raman, ABS, FL, XAS/XES, NRVS
   Peter Pinski           : DLPNO-MP2, DLPNO-MP2 Gradient
   Christoph Reimann      : Effective Core Potentials
   Marius Retegan         : Local ZFS, SOC
   Christoph Riplinger    : Optimizer, TS searches, QM/MM, DLPNO-CCSD(T), (RO)-DLPNO pert. Triples
   Tobias Risthaus        : Range-separated hybrids, TD-DFT gradient, RPA, STAB
   Michael Roemelt        : Original ROCIS implementation
   Masaaki Saitow         : Open-shell DLPNO-CCSD energy and density
   Barbara Sandhoefer     : DKH picture change effects
   Avijit Sen             : IP-ROCIS
   Kantharuban Sivalingam : CASSCF convergence, NEVPT2, FIC-MRCI
   Bernardo de Souza      : ESD, SOC TD-DFT
   Georgi Stoychev        : AutoAux, RI-MP2 NMR, DLPNO-MP2 response
   Willem Van den Heuvel  : Paramagnetic NMR
   Boris Wezisla          : Elementary symmetry handling
   Frank Wennmohs         : Technical directorship


 We gratefully acknowledge several colleagues who have allowed us to
 interface, adapt or use parts of their codes:
   Stefan Grimme, W. Hujo, H. Kruse, P. Pracht,  : VdW corrections, initial TS optimization,
                  C. Bannwarth, S. Ehlert          DFT functionals, gCP, sTDA/sTD-DF
   Ed Valeev, F. Pavosevic, A. Kumar             : LibInt (2-el integral package), F12 methods
   Garnet Chan, S. Sharma, J. Yang, R. Olivares  : DMRG
   Ulf Ekstrom                                   : XCFun DFT Library
   Mihaly Kallay                                 : mrcc  (arbitrary order and MRCC methods)
   Jiri Pittner, Ondrej Demel                    : Mk-CCSD
   Frank Weinhold                                : gennbo (NPA and NBO analysis)
   Christopher J. Cramer and Donald G. Truhlar   : smd solvation model
   Lars Goerigk                                  : TD-DFT with DH, B97 family of functionals
   V. Asgeirsson, H. Jonsson                     : NEB implementation
   FAccTs GmbH                                   : IRC, NEB, NEB-TS, DLPNO-Multilevel, CI-OPT
                                                   MM, QMMM, 2- and 3-layer-ONIOM, Crystal-QMMM,
                                                   LR-CPCM, SF, NACMEs, symmetry and pop. for TD-DFT,
                                                   nearIR, NL-DFT gradient (VV10), updates on ESD,
                                                   ML-optimized integration grids
   S Lehtola, MJT Oliveira, MAL Marques          : LibXC Library
   Liviu Ungur et al                             : ANISO software


 Your calculation uses the libint2 library for the computation of 2-el integrals
 For citations please refer to: http://libint.valeyev.net

 Your ORCA version has been built with support for libXC version: 5.1.0
 For citations please refer to: https://tddft.org/programs/libxc/

 This ORCA versions uses:
   CBLAS   interface :  Fast vector & matrix operations
   LAPACKE interface :  Fast linear algebra routines
   SCALAPACK package :  Parallel linear algebra routines
   Shared memory     :  Shared parallel matrices
   BLAS/LAPACK       :  OpenBLAS 0.3.15  USE64BITINT DYNAMIC_ARCH NO_AFFINITY Haswell SINGLE_THREADED
        Core in use  :  Haswell
   Copyright (c) 2011-2014, The OpenBLAS Project


Your calculation utilizes the atom-pairwise dispersion correction
with the Becke-Johnson damping scheme (D3BJ)
Cite in your paper:
S.Grimme, S.Ehrlich, L.Goerigk, J Comput Chem, (2011), 32, 1456–1465 
S.Grimme, J.Antony, S.Ehrlich and H.Krieg, J.Chem.Phys., 132, (2010), 154104 
   

Your calculation utilizes the SMD solvation module
Please cite in your paper:
A.V. Marenich, C.J. Cramer, D.G. Truhlar J. Phys. Chem. B, 113, (2009), 6378 

================================================================================

----- Orbital basis set information -----
Your calculation utilizes the basis: aug-cc-pVTZ 
    H, B-Ne : Obtained from the ccRepo (grant-hill.group.shef.ac.uk/ccrepo) Feb. 2017
              R. A. Kendall, T. H. Dunning, Jr., R. J. Harrison, J. Chem. Phys. 96, 6796 (1992)
         He : Obtained from the ccRepo (grant-hill.group.shef.ac.uk/ccrepo) Feb. 2017
              D. E. Woon, T. H. Dunning, Jr., J. Chem. Phys. 100, 2975 (1994)
  Li-Be, Na : Obtained from the ccRepo (grant-hill.group.shef.ac.uk/ccrepo) Feb. 2017
              B. P. Prascher, D. E. Woon, K. A. Peterson, T. H. Dunning, Jr., A. K. Wilson, Theor. Chem. Acc. 128, 69 (2011)
         Mg : Obtained from the Peterson Research Group Website (tyr0.chem.wsu.edu/~kipeters) Feb. 2017
              B. P. Prascher, D. E. Woon, K. A. Peterson, T. H. Dunning, Jr., A. K. Wilson, Theor. Chem. Acc. 128, 69 (2011)
      Al-Ar : Obtained from the ccRepo (grant-hill.group.shef.ac.uk/ccrepo) Feb. 2017
              D. E. Woon, T. H. Dunning, Jr., J. Chem. Phys. 98, 1358 (1993)
      Sc-Zn : Obtained from the ccRepo (grant-hill.group.shef.ac.uk/ccrepo) Feb. 2017
              N. B. Balabanov, K. A. Peterson, J. Chem. Phys. 123, 064107 (2005)
              N. B. Balabanov, K. A. Peterson, J. Chem. Phys. 125, 074110 (2006)
      Ga-Kr : Obtained from the ccRepo (grant-hill.group.shef.ac.uk/ccrepo) Feb. 2017
              A. K. Wilson, D. E. Woon, K. A. Peterson, T. H. Dunning, Jr., J. Chem. Phys. 110, 7667 (1999)
     Ag, Au : Obtained from the Peterson Research Group Website (tyr0.chem.wsu.edu/~kipeters) Feb. 2017
              K. A. Peterson, C. Puzzarini, Theor. Chem. Acc. 114, 283 (2005)

The basis set includes element-specific modifications.

Your calculation utilizes the basis: cc-pVTZ 
       H, B-Ne : Obtained from the ccRepo (grant-hill.group.shef.ac.uk/ccrepo) Feb. 2017
                 T. H. Dunning, Jr., J. Chem. Phys. 90, 1007 (1989)
            He : Obtained from the ccRepo (grant-hill.group.shef.ac.uk/ccrepo) Feb. 2017
                 D. E. Woon, T. H. Dunning, Jr., J. Chem. Phys. 100, 2975 (1994)
  Li-Be, Na-Mg : Obtained from the ccRepo (grant-hill.group.shef.ac.uk/ccrepo) Feb. 2017
                 B. P. Prascher, D. E. Woon, K. A. Peterson, T. H. Dunning, Jr., A. K. Wilson, Theor. Chem. Acc. 128, 69 (2011)
         Al-Ar : Obtained from the ccRepo (grant-hill.group.shef.ac.uk/ccrepo) Feb. 2017
                 D. E. Woon, T. H. Dunning, Jr., J. Chem. Phys. 98, 1358 (1993)
            Ca : Obtained from the Peterson Research Group Website (tyr0.chem.wsu.edu/~kipeters) Feb. 2017
                 J. Koput, K. A. Peterson, J. Phys. Chem. 106, 9595 (2002)
         Sc-Zn : Obtained from the ccRepo (grant-hill.group.shef.ac.uk/ccrepo) Feb. 2017
                 N. B. Balabanov, K. A. Peterson, J. Chem. Phys. 123, 064107 (2005)
                 N. B. Balabanov, K. A. Peterson, J. Chem. Phys. 125, 074110 (2006)
         Ga-Kr : Obtained from the ccRepo (grant-hill.group.shef.ac.uk/ccrepo) Feb. 2017
                 A. K. Wilson, D. E. Woon, K. A. Peterson, T. H. Dunning, Jr., J. Chem. Phys. 110, 7667 (1999)
             Y : Obtained from the ccRepo (grant-hill.group.shef.ac.uk/ccrepo) Feb. 2017
                 K. A. Peterson, D. Figgen, M. Dolg, H. Stoll, J. Chem. Phys. 126, 124101 (2007)
        Ag, Au : Obtained from the Peterson Research Group Website (tyr0.chem.wsu.edu/~kipeters) Feb. 2017
                 K. A. Peterson, C. Puzzarini, Theor. Chem. Acc. 114, 283 (2005)

----- AuxJ basis set information -----
Your calculation utilizes the auxiliary basis: aug-cc-pVTZ/JK 
  H, B-F, Al-Cl, Ga-Br : Obtained from the TURBOMOLE 7.0 basis set library

The basis set includes element-specific modifications.

Your calculation utilizes the auxiliary basis: cc-pVTZ/JK 
  H, B-F, Al-Cl, Ga-Br : Obtained from the TURBOMOLE 7.0 basis set library

----- AuxC basis set information -----
Your calculation utilizes the auxiliary basis: aug-cc-pVTZ/C 
  H-He, B-F, Al-Ar, Ga-Kr : Obtained from the EMSL Basis Set Exchange (bse.pnl.gov) Feb. 2017
                            F. Weigend, A. Kohn, C. Hattig, J. Chem. Phys. 116, 3175 (2002)
                   Be, Mg : Obtained from the TURBOMOLE 7.0 basis set library
                            C. Haettig, Phys. Chem. Chem. Phys. 7, 59 (2005)
                       Ne : Obtained from the EMSL Basis Set Exchange (bse.pnl.gov) Feb. 2017
                            C. Haettig, Phys. Chem. Chem. Phys. 7, 59 (2005)
                            F. Weigend, A. Kohn, C. Hattig, J. Chem. Phys. 116, 3175 (2002)
                    Sc-Zn : Obtained from the EMSL Basis Set Exchange (bse.pnl.gov) Feb. 2017
                            J. G. Hill, J. A. Platts, J. Chem. Phys. 128, 044104 (2008)

The basis set includes element-specific modifications.

Your calculation utilizes the auxiliary basis: cc-pVTZ/C 
  Obtained from the EMSL Basis Set Exchange (bse.pnl.gov) Feb. 2017
  H-He, B-F, Al-Ar, Ga-Kr : F. Weigend, A. Kohn, C. Hattig, J. Chem. Phys. 116, 3175 (2002)
             Li-Be, Na-Mg : C. Haettig, Phys. Chem. Chem. Phys. 7, 59 (2005)
                       Ne : C. Haettig, Phys. Chem. Chem. Phys. 7, 59 (2005)
                            F. Weigend, A. Kohn, C. Hattig, J. Chem. Phys. 116, 3175 (2002)
                    Sc-Zn : J. G. Hill, J. A. Platts, J. Chem. Phys. 128, 044104 (2008)

================================================================================
                                        WARNINGS
                       Please study these warnings very carefully!
================================================================================


WARNING: Geometry Optimization
  ===> : Switching off AutoStart
         For restart on a previous wavefunction, please use MOREAD

INFO   : the flag for use of the SHARK integral package has been found!



***************************************
The coordinates will be read from file: 
***************************************


Your calculation utilizes the atom-pairwise dispersion correction
with the Becke-Johnson damping scheme (D3BJ)
Cite in your paper:
S.Grimme, S.Ehrlich, L.Goerigk, J Comput Chem, (2011), 32, 1456–1465 
S.Grimme, J.Antony, S.Ehrlich and H.Krieg, J.Chem.Phys., 132, (2010), 154104 
   

Your calculation utilizes the SMD solvation module
Please cite in your paper:
A.V. Marenich, C.J. Cramer, D.G. Truhlar J. Phys. Chem. B, 113, (2009), 6378 

================================================================================

----- Orbital basis set information -----
Your calculation utilizes the basis: aug-cc-pVTZ 
    H, B-Ne : Obtained from the ccRepo (grant-hill.group.shef.ac.uk/ccrepo) Feb. 2017
              R. A. Kendall, T. H. Dunning, Jr., R. J. Harrison, J. Chem. Phys. 96, 6796 (1992)
         He : Obtained from the ccRepo (grant-hill.group.shef.ac.uk/ccrepo) Feb. 2017
              D. E. Woon, T. H. Dunning, Jr., J. Chem. Phys. 100, 2975 (1994)
  Li-Be, Na : Obtained from the ccRepo (grant-hill.group.shef.ac.uk/ccrepo) Feb. 2017
              B. P. Prascher, D. E. Woon, K. A. Peterson, T. H. Dunning, Jr., A. K. Wilson, Theor. Chem. Acc. 128, 69 (2011)
         Mg : Obtained from the Peterson Research Group Website (tyr0.chem.wsu.edu/~kipeters) Feb. 2017
              B. P. Prascher, D. E. Woon, K. A. Peterson, T. H. Dunning, Jr., A. K. Wilson, Theor. Chem. Acc. 128, 69 (2011)
      Al-Ar : Obtained from the ccRepo (grant-hill.group.shef.ac.uk/ccrepo) Feb. 2017
              D. E. Woon, T. H. Dunning, Jr., J. Chem. Phys. 98, 1358 (1993)
      Sc-Zn : Obtained from the ccRepo (grant-hill.group.shef.ac.uk/ccrepo) Feb. 2017
              N. B. Balabanov, K. A. Peterson, J. Chem. Phys. 123, 064107 (2005)
              N. B. Balabanov, K. A. Peterson, J. Chem. Phys. 125, 074110 (2006)
      Ga-Kr : Obtained from the ccRepo (grant-hill.group.shef.ac.uk/ccrepo) Feb. 2017
              A. K. Wilson, D. E. Woon, K. A. Peterson, T. H. Dunning, Jr., J. Chem. Phys. 110, 7667 (1999)
     Ag, Au : Obtained from the Peterson Research Group Website (tyr0.chem.wsu.edu/~kipeters) Feb. 2017
              K. A. Peterson, C. Puzzarini, Theor. Chem. Acc. 114, 283 (2005)

The basis set includes element-specific modifications.

Your calculation utilizes the basis: cc-pVTZ 
       H, B-Ne : Obtained from the ccRepo (grant-hill.group.shef.ac.uk/ccrepo) Feb. 2017
                 T. H. Dunning, Jr., J. Chem. Phys. 90, 1007 (1989)
            He : Obtained from the ccRepo (grant-hill.group.shef.ac.uk/ccrepo) Feb. 2017
                 D. E. Woon, T. H. Dunning, Jr., J. Chem. Phys. 100, 2975 (1994)
  Li-Be, Na-Mg : Obtained from the ccRepo (grant-hill.group.shef.ac.uk/ccrepo) Feb. 2017
                 B. P. Prascher, D. E. Woon, K. A. Peterson, T. H. Dunning, Jr., A. K. Wilson, Theor. Chem. Acc. 128, 69 (2011)
         Al-Ar : Obtained from the ccRepo (grant-hill.group.shef.ac.uk/ccrepo) Feb. 2017
                 D. E. Woon, T. H. Dunning, Jr., J. Chem. Phys. 98, 1358 (1993)
            Ca : Obtained from the Peterson Research Group Website (tyr0.chem.wsu.edu/~kipeters) Feb. 2017
                 J. Koput, K. A. Peterson, J. Phys. Chem. 106, 9595 (2002)
         Sc-Zn : Obtained from the ccRepo (grant-hill.group.shef.ac.uk/ccrepo) Feb. 2017
                 N. B. Balabanov, K. A. Peterson, J. Chem. Phys. 123, 064107 (2005)
                 N. B. Balabanov, K. A. Peterson, J. Chem. Phys. 125, 074110 (2006)
         Ga-Kr : Obtained from the ccRepo (grant-hill.group.shef.ac.uk/ccrepo) Feb. 2017
                 A. K. Wilson, D. E. Woon, K. A. Peterson, T. H. Dunning, Jr., J. Chem. Phys. 110, 7667 (1999)
             Y : Obtained from the ccRepo (grant-hill.group.shef.ac.uk/ccrepo) Feb. 2017
                 K. A. Peterson, D. Figgen, M. Dolg, H. Stoll, J. Chem. Phys. 126, 124101 (2007)
        Ag, Au : Obtained from the Peterson Research Group Website (tyr0.chem.wsu.edu/~kipeters) Feb. 2017
                 K. A. Peterson, C. Puzzarini, Theor. Chem. Acc. 114, 283 (2005)

----- AuxJ basis set information -----
Your calculation utilizes the auxiliary basis: aug-cc-pVTZ/JK 
  H, B-F, Al-Cl, Ga-Br : Obtained from the TURBOMOLE 7.0 basis set library

The basis set includes element-specific modifications.

Your calculation utilizes the auxiliary basis: cc-pVTZ/JK 
  H, B-F, Al-Cl, Ga-Br : Obtained from the TURBOMOLE 7.0 basis set library

----- AuxC basis set information -----
Your calculation utilizes the auxiliary basis: aug-cc-pVTZ/C 
  H-He, B-F, Al-Ar, Ga-Kr : Obtained from the EMSL Basis Set Exchange (bse.pnl.gov) Feb. 2017
                            F. Weigend, A. Kohn, C. Hattig, J. Chem. Phys. 116, 3175 (2002)
                   Be, Mg : Obtained from the TURBOMOLE 7.0 basis set library
                            C. Haettig, Phys. Chem. Chem. Phys. 7, 59 (2005)
                       Ne : Obtained from the EMSL Basis Set Exchange (bse.pnl.gov) Feb. 2017
                            C. Haettig, Phys. Chem. Chem. Phys. 7, 59 (2005)
                            F. Weigend, A. Kohn, C. Hattig, J. Chem. Phys. 116, 3175 (2002)
                    Sc-Zn : Obtained from the EMSL Basis Set Exchange (bse.pnl.gov) Feb. 2017
                            J. G. Hill, J. A. Platts, J. Chem. Phys. 128, 044104 (2008)

The basis set includes element-specific modifications.

Your calculation utilizes the auxiliary basis: cc-pVTZ/C 
  Obtained from the EMSL Basis Set Exchange (bse.pnl.gov) Feb. 2017
  H-He, B-F, Al-Ar, Ga-Kr : F. Weigend, A. Kohn, C. Hattig, J. Chem. Phys. 116, 3175 (2002)
             Li-Be, Na-Mg : C. Haettig, Phys. Chem. Chem. Phys. 7, 59 (2005)
                       Ne : C. Haettig, Phys. Chem. Chem. Phys. 7, 59 (2005)
                            F. Weigend, A. Kohn, C. Hattig, J. Chem. Phys. 116, 3175 (2002)
                    Sc-Zn : J. G. Hill, J. A. Platts, J. Chem. Phys. 128, 044104 (2008)

================================================================================
                                        WARNINGS
                       Please study these warnings very carefully!
================================================================================

INFO   : Checking CIS options ...
  ===> : (D) CORRECTION FOUND - SETTING MODE=3
  ===> : JK MODE FOUND - ACTIVATING RI-MP2 CODE
  ===> : MP2 AND CIS FOUND - CHECKING
WARNING: CIS(D) and MP2 runs must have the same orbital window
  ===> : adjusting orbital windows

WARNING: No MP2 level density has been requested!
         To caclulate MP2 level properties use
         %mp2 Density relaxed end
         or
         %mp2 Density unrelaxed end
         Otherwise for double-hybrid DFT only the energy is correct!

WARNING: The frozen-core approximation is turned on by default for 
         the MP2 part of double-hybrid DFT.

INFO   : the flag for use of the SHARK integral package has been found!

================================================================================
                                       INPUT FILE
================================================================================
NAME = optpbed3-b2plyp-test-31.inp
|  1> ! pbe0 d3bj aug-cc-PVTZ RIJCOSX Opt
|  2> %maxcore 4000
|  3> %basis
|  4>  AuxJ "aug-cc-PVTZ/JK"
|  5>  AuxC "aug-cc-PVTZ/C"
|  6>  newGTO H "cc-PVTZ" end
|  7>  newAuxJGTO H "cc-PVTZ/JK" end
|  8>  newAuxCGTO H "cc-PVTZ/C" end
|  9> end
| 10> %cpcm
| 11>  SMD true
| 12>  SMDsolvent "acetone"
| 13> end
| 14> %pal nprocs 4 end
| 15> * xyz 0 1
| 16> O          3.61680       -0.43140       -0.22020
| 17> C          2.42130       -0.28880       -0.14740
| 18> N          1.46970       -1.27760       -0.00260
| 19> C          0.20540       -0.73030        0.04310
| 20> C         -1.04570       -1.29810        0.17580
| 21> C         -2.13740       -0.44120        0.18500
| 22> C         -1.98080        0.93240        0.06570
| 23> C         -0.72560        1.50940       -0.06800
| 24> C          0.36410        0.66240       -0.07780
| 25> N          1.71760        0.89740       -0.19150
| 26> H          1.69600       -2.25510        0.05850
| 27> H         -1.16980       -2.36550        0.26870
| 28> H         -3.12940       -0.85360        0.28730
| 29> H         -2.85340        1.56720        0.07700
| 30> H         -0.60630        2.57740       -0.16060
| 31> H          2.15770        1.79550       -0.29320
| 32> *
| 33> 
| 34> 
| 35> $new_job
| 36> ! b2plyp aug-cc-PVTZ RIJCOSX SP
| 37> %maxcore 4000
| 38> %basis
| 39>  AuxJ "aug-cc-PVTZ/JK"
| 40>  AuxC "aug-cc-PVTZ/C"
| 41>  newGTO H "cc-PVTZ" end
| 42>  newAuxJGTO H "cc-PVTZ/JK" end
| 43>  newAuxCGTO H "cc-PVTZ/C" end
| 44> end
| 45> %cpcm
| 46>  SMD true
| 47>  SMDsolvent "acetone"
| 48> end
| 49> %pal nprocs 4 end
| 50> %tddft
| 51>  nroots 10
| 52>  maxdim 7
| 53> end
| 54> * xyzfile 0 1
| 55> 
| 56>                          ****END OF INPUT****
================================================================================


                 $$$$$$$$$$$$$$$$$$$$$$$$$$$$$$$$$$$$$$$$$$$$$$ 
                 $ THERE ARE  2 JOBS TO BE PROCESSED THIS RUN $
                 $$$$$$$$$$$$$$$$$$$$$$$$$$$$$$$$$$$$$$$$$$$$$$ 




                 $$$$$$$$$$$$$$$$  JOB NUMBER  1 $$$$$$$$$$$$$$


                       *****************************
                       * Geometry Optimization Run *
                       *****************************

Geometry optimization settings:
Update method            Update   .... BFGS
Choice of coordinates    CoordSys .... Z-matrix Internals
Initial Hessian          InHess   .... Almoef's Model

Convergence Tolerances:
Energy Change            TolE     ....  5.0000e-06 Eh
Max. Gradient            TolMAXG  ....  3.0000e-04 Eh/bohr
RMS Gradient             TolRMSG  ....  1.0000e-04 Eh/bohr
Max. Displacement        TolMAXD  ....  4.0000e-03 bohr
RMS Displacement         TolRMSD  ....  2.0000e-03 bohr
Strict Convergence                ....  False
------------------------------------------------------------------------------
                        ORCA OPTIMIZATION COORDINATE SETUP
------------------------------------------------------------------------------

The optimization will be done in new redundant internal coordinates
Making redundant internal coordinates   ...  (new redundants) done
Evaluating the initial hessian          ...  (Almloef) done
Evaluating the coordinates              ...  done
Calculating the B-matrix                .... done
Calculating the G-matrix                .... done
Diagonalizing the G-matrix              .... done
The first mode is                       ....   42
The number of degrees of freedom        ....   42

    -----------------------------------------------------------------
                    Redundant Internal Coordinates


    -----------------------------------------------------------------
         Definition                    Initial Value    Approx d2E/dq
    -----------------------------------------------------------------
      1. B(C   1,O   0)                  1.2062         1.099407   
      2. B(N   2,C   1)                  1.3799         0.580664   
      3. B(C   3,N   2)                  1.3784         0.583886   
      4. B(C   4,C   3)                  1.3803         0.647437   
      5. B(C   5,C   4)                  1.3879         0.629715   
      6. B(C   6,C   5)                  1.3876         0.630247   
      7. B(C   7,C   6)                  1.3879         0.629581   
      8. B(C   8,C   7)                  1.3802         0.647701   
      9. B(C   8,C   3)                  1.4069         0.587149   
     10. B(N   9,C   8)                  1.3784         0.583859   
     11. B(N   9,C   1)                  1.3799         0.580685   
     12. B(H  10,N   2)                  1.0052         0.440386   
     13. B(H  11,C   4)                  1.0786         0.375504   
     14. B(H  12,C   5)                  1.0792         0.374719   
     15. B(H  13,C   6)                  1.0791         0.374766   
     16. B(H  14,C   7)                  1.0786         0.375467   
     17. B(H  15,N   9)                  1.0053         0.440255   
     18. A(O   0,C   1,N   9)          127.2388         0.469707   
     19. A(N   2,C   1,N   9)          105.5243         0.418490   
     20. A(O   0,C   1,N   2)          127.2369         0.469704   
     21. A(C   1,N   2,C   3)          110.5774         0.418901   
     22. A(C   3,N   2,H  10)          126.1975         0.356092   
     23. A(C   1,N   2,H  10)          123.2252         0.355757   
     24. A(N   2,C   3,C   8)          106.6619         0.422475   
     25. A(N   2,C   3,C   4)          132.1599         0.429935   
     26. A(C   4,C   3,C   8)          121.1782         0.433197   
     27. A(C   5,C   4,H  11)          121.3281         0.356362   
     28. A(C   3,C   4,H  11)          121.3090         0.358047   
     29. A(C   3,C   4,C   5)          117.3630         0.438693   
     30. A(C   6,C   5,H  12)          119.3517         0.356286   
     31. A(C   4,C   5,H  12)          119.1928         0.356235   
     32. A(C   4,C   5,C   6)          121.4555         0.436570   
     33. A(C   5,C   6,C   7)          121.4576         0.436553   
     34. A(C   7,C   6,H  13)          119.1923         0.356230   
     35. A(C   5,C   6,H  13)          119.3501         0.356294   
     36. A(C   8,C   7,H  14)          121.3122         0.358066   
     37. A(C   6,C   7,H  14)          121.3276         0.356343   
     38. A(C   6,C   7,C   8)          117.3602         0.438708   
     39. A(C   7,C   8,N   9)          132.1597         0.429963   
     40. A(C   3,C   8,N   9)          106.6548         0.422472   
     41. A(C   3,C   8,C   7)          121.1854         0.433229   
     42. A(C   1,N   9,C   8)          110.5816         0.418900   
     43. A(C   8,N   9,H  15)          126.1931         0.356071   
     44. A(C   1,N   9,H  15)          123.2254         0.355741   
     45. D(C   3,N   2,C   1,N   9)     -0.0022         0.027047   
     46. D(H  10,N   2,C   1,O   0)     -0.0008         0.027047   
     47. D(C   3,N   2,C   1,O   0)   -179.9978         0.027047   
     48. D(H  10,N   2,C   1,N   9)    179.9948         0.027047   
     49. D(C   8,C   3,N   2,H  10)   -179.9978         0.027368   
     50. D(C   8,C   3,N   2,C   1)     -0.0009         0.027368   
     51. D(C   4,C   3,N   2,H  10)      0.0051         0.027368   
     52. D(C   4,C   3,N   2,C   1)   -179.9979         0.027368   
     53. D(H  11,C   4,C   3,C   8)   -179.9959         0.029170   
     54. D(H  11,C   4,C   3,N   2)      0.0007         0.029170   
     55. D(C   5,C   4,C   3,N   2)    179.9980         0.029170   
     56. D(C   5,C   4,C   3,C   8)      0.0014         0.029170   
     57. D(C   6,C   5,C   4,H  11)    179.9985         0.027493   
     58. D(C   6,C   5,C   4,C   3)      0.0012         0.027493   
     59. D(H  12,C   5,C   4,C   3)   -179.9962         0.027493   
     60. D(H  12,C   5,C   4,H  11)      0.0010         0.027493   
     61. D(H  13,C   6,C   5,H  12)     -0.0029         0.027542   
     62. D(H  13,C   6,C   5,C   4)    179.9997         0.027542   
     63. D(C   7,C   6,C   5,H  12)    179.9955         0.027542   
     64. D(C   7,C   6,C   5,C   4)     -0.0019         0.027542   
     65. D(H  14,C   7,C   6,H  13)     -0.0025         0.027480   
     66. D(H  14,C   7,C   6,C   5)    179.9991         0.027480   
     67. D(C   8,C   7,C   6,H  13)    179.9984         0.027480   
     68. D(C   8,C   7,C   6,C   5)     -0.0000         0.027480   
     69. D(C   3,C   8,C   7,H  14)   -179.9966         0.029195   
     70. D(C   3,C   8,C   7,C   6)      0.0026         0.029195   
     71. D(N   9,C   8,C   3,C   4)   -179.9989         0.023713   
     72. D(N   9,C   8,C   3,N   2)      0.0037         0.023713   
     73. D(C   7,C   8,C   3,C   4)     -0.0033         0.023713   
     74. D(N   9,C   8,C   7,C   6)    179.9969         0.029195   
     75. D(C   7,C   8,C   3,N   2)    179.9993         0.023713   
     76. D(N   9,C   8,C   7,H  14)     -0.0022         0.029195   
     77. D(H  15,N   9,C   8,C   7)      0.0062         0.027365   
     78. D(C   1,N   9,C   8,C   7)    179.9998         0.027365   
     79. D(C   1,N   9,C   8,C   3)     -0.0052         0.027365   
     80. D(H  15,N   9,C   1,N   2)    179.9985         0.027049   
     81. D(H  15,N   9,C   1,O   0)     -0.0059         0.027049   
     82. D(H  15,N   9,C   8,C   3)   -179.9989         0.027365   
     83. D(C   8,N   9,C   1,N   2)      0.0046         0.027049   
     84. D(C   8,N   9,C   1,O   0)   -179.9998         0.027049   
    -----------------------------------------------------------------

Number of atoms                         .... 16
Number of degrees of freedom            .... 84

         *************************************************************
         *                GEOMETRY OPTIMIZATION CYCLE   1            *
         *************************************************************
---------------------------------
CARTESIAN COORDINATES (ANGSTROEM)
---------------------------------
  O      3.616800   -0.431400   -0.220200
  C      2.421300   -0.288800   -0.147400
  N      1.469700   -1.277600   -0.002600
  C      0.205400   -0.730300    0.043100
  C     -1.045700   -1.298100    0.175800
  C     -2.137400   -0.441200    0.185000
  C     -1.980800    0.932400    0.065700
  C     -0.725600    1.509400   -0.068000
  C      0.364100    0.662400   -0.077800
  N      1.717600    0.897400   -0.191500
  H      1.696000   -2.255100    0.058500
  H     -1.169800   -2.365500    0.268700
  H     -3.129400   -0.853600    0.287300
  H     -2.853400    1.567200    0.077000
  H     -0.606300    2.577400   -0.160600
  H      2.157700    1.795500   -0.293200

----------------------------
CARTESIAN COORDINATES (A.U.)
----------------------------
  NO LB      ZA    FRAG     MASS         X           Y           Z
   0 O     8.0000    0    15.999    6.834761   -0.815228   -0.416118
   1 C     6.0000    0    12.011    4.575594   -0.545753   -0.278546
   2 N     7.0000    0    14.007    2.777330   -2.414314   -0.004913
   3 C     6.0000    0    12.011    0.388150   -1.380067    0.081447
   4 C     6.0000    0    12.011   -1.976087   -2.453053    0.332214
   5 C     6.0000    0    12.011   -4.039101   -0.833747    0.349599
   6 C     6.0000    0    12.011   -3.743170    1.761981    0.124155
   7 C     6.0000    0    12.011   -1.371185    2.852353   -0.128501
   8 C     6.0000    0    12.011    0.688049    1.251755   -0.147021
   9 N     7.0000    0    14.007    3.245794    1.695840   -0.361883
  10 H     1.0000    0     1.008    3.204976   -4.261521    0.110549
  11 H     1.0000    0     1.008   -2.210602   -4.470147    0.507769
  12 H     1.0000    0     1.008   -5.913709   -1.613070    0.542918
  13 H     1.0000    0     1.008   -5.392145    2.961579    0.145509
  14 H     1.0000    0     1.008   -1.145741    4.870580   -0.303490
  15 H     1.0000    0     1.008    4.077462    3.393003   -0.554068

--------------------------------
INTERNAL COORDINATES (ANGSTROEM)
--------------------------------
 O      0   0   0     0.000000000000     0.00000000     0.00000000
 C      1   0   0     1.206173640070     0.00000000     0.00000000
 N      2   1   0     1.379940230590   127.23686653     0.00000000
 C      3   2   1     1.378433991891   110.57738350   180.00217757
 C      4   3   2     1.380310595482   132.15987337   180.00210047
 C      5   4   3     1.387865677939   117.36297439   179.99801472
 C      6   5   4     1.387635762727   121.45552694     0.00000000
 C      7   6   5     1.387923531755   121.45761864     0.00000000
 C      8   7   6     1.380199670338   117.36020837     0.00000000
 N      9   8   7     1.378446567699   132.15971122   179.99689890
 H      3   2   1     1.005211992567   123.22515278     0.00000000
 H      5   4   3     1.078598155014   121.30895279     0.00000000
 H      6   5   4     1.079167758043   119.19277487   180.00375294
 H      7   6   5     1.079133675686   119.35007315   179.99968786
 H      8   7   6     1.078624703036   121.32762325   179.99908285
 H     10   9   8     1.005293245775   126.19305538     0.00000000

---------------------------
INTERNAL COORDINATES (A.U.)
---------------------------
 O      0   0   0     0.000000000000     0.00000000     0.00000000
 C      1   0   0     2.279337849687     0.00000000     0.00000000
 N      2   1   0     2.607709116995   127.23686653     0.00000000
 C      3   2   1     2.604862738361   110.57738350   180.00217757
 C      4   3   2     2.608409005211   132.15987337   180.00210047
 C      5   4   3     2.622686041973   117.36297439   179.99801472
 C      6   5   4     2.622251565190   121.45552694     0.00000000
 C      7   6   5     2.622795369842   121.45761864     0.00000000
 C      8   7   6     2.608199387066   117.36020837     0.00000000
 N      9   8   7     2.604886503194   132.15971122   179.99689890
 H      3   2   1     1.899575372484   123.22515278     0.00000000
 H      5   4   3     2.038255121530   121.30895279     0.00000000
 H      6   5   4     2.039331515259   119.19277487   180.00375294
 H      7   6   5     2.039267108939   119.35007315   179.99968786
 H      8   7   6     2.038305290021   121.32762325   179.99908285
 H     10   9   8     1.899728918795   126.19305538     0.00000000

---------------------
BASIS SET INFORMATION
---------------------
There are 4 groups of distinct atoms

 Group   1 Type O   : 19s6p3d2f contracted to 5s4p3d2f pattern {88111/3111/111/11}
 Group   2 Type C   : 19s6p3d2f contracted to 5s4p3d2f pattern {88111/3111/111/11}
 Group   3 Type N   : 19s6p3d2f contracted to 5s4p3d2f pattern {88111/3111/111/11}
 Group   4 Type H   : 5s2p1d contracted to 3s2p1d pattern {311/11/1}

Atom   0O    basis set group =>   1
Atom   1C    basis set group =>   2
Atom   2N    basis set group =>   3
Atom   3C    basis set group =>   2
Atom   4C    basis set group =>   2
Atom   5C    basis set group =>   2
Atom   6C    basis set group =>   2
Atom   7C    basis set group =>   2
Atom   8C    basis set group =>   2
Atom   9N    basis set group =>   3
Atom  10H    basis set group =>   4
Atom  11H    basis set group =>   4
Atom  12H    basis set group =>   4
Atom  13H    basis set group =>   4
Atom  14H    basis set group =>   4
Atom  15H    basis set group =>   4
---------------------------------
AUXILIARY/J BASIS SET INFORMATION
---------------------------------
There are 4 groups of distinct atoms

 Group   1 Type O   : 10s7p5d2f1g contracted to 10s7p5d2f1g pattern {1111111111/1111111/11111/11/1}
 Group   2 Type C   : 10s7p5d2f1g contracted to 10s7p5d2f1g pattern {1111111111/1111111/11111/11/1}
 Group   3 Type N   : 10s7p5d2f1g contracted to 10s7p5d2f1g pattern {1111111111/1111111/11111/11/1}
 Group   4 Type H   : 4s3p2d1f contracted to 4s3p2d1f pattern {1111/111/11/1}

Atom   0O    basis set group =>   1
Atom   1C    basis set group =>   2
Atom   2N    basis set group =>   3
Atom   3C    basis set group =>   2
Atom   4C    basis set group =>   2
Atom   5C    basis set group =>   2
Atom   6C    basis set group =>   2
Atom   7C    basis set group =>   2
Atom   8C    basis set group =>   2
Atom   9N    basis set group =>   3
Atom  10H    basis set group =>   4
Atom  11H    basis set group =>   4
Atom  12H    basis set group =>   4
Atom  13H    basis set group =>   4
Atom  14H    basis set group =>   4
Atom  15H    basis set group =>   4
---------------------------------
AUXILIARY/C BASIS SET INFORMATION
---------------------------------
There are 4 groups of distinct atoms

 Group   1 Type O   : 9s7p6d4f2g contracted to 9s7p6d4f2g pattern {111111111/1111111/111111/1111/11}
 Group   2 Type C   : 9s7p6d4f2g contracted to 9s7p6d4f2g pattern {111111111/1111111/111111/1111/11}
 Group   3 Type N   : 9s7p6d4f2g contracted to 9s7p6d4f2g pattern {111111111/1111111/111111/1111/11}
 Group   4 Type H   : 4s3p2d1f contracted to 4s3p2d1f pattern {1111/111/11/1}

Atom   0O    basis set group =>   1
Atom   1C    basis set group =>   2
Atom   2N    basis set group =>   3
Atom   3C    basis set group =>   2
Atom   4C    basis set group =>   2
Atom   5C    basis set group =>   2
Atom   6C    basis set group =>   2
Atom   7C    basis set group =>   2
Atom   8C    basis set group =>   2
Atom   9N    basis set group =>   3
Atom  10H    basis set group =>   4
Atom  11H    basis set group =>   4
Atom  12H    basis set group =>   4
Atom  13H    basis set group =>   4
Atom  14H    basis set group =>   4
Atom  15H    basis set group =>   4


           ************************************************************
           *        Program running with 4 parallel MPI-processes     *
           *              working on a common directory               *
           ************************************************************
------------------------------------------------------------------------------
                           ORCA GTO INTEGRAL CALCULATION
                           -- RI-GTO INTEGRALS CHOSEN --
------------------------------------------------------------------------------
------------------------------------------------------------------------------
                   ___                                                        
                  /   \      - P O W E R E D   B Y -                         
                 /     \                                                     
                 |  |  |   _    _      __       _____    __    __             
                 |  |  |  | |  | |    /  \     |  _  \  |  |  /  |          
                  \  \/   | |  | |   /    \    | | | |  |  | /  /          
                 / \  \   | |__| |  /  /\  \   | |_| |  |  |/  /          
                |  |  |   |  __  | /  /__\  \  |    /   |      \           
                |  |  |   | |  | | |   __   |  |    \   |  |\   \          
                \     /   | |  | | |  |  |  |  | |\  \  |  | \   \       
                 \___/    |_|  |_| |__|  |__|  |_| \__\ |__|  \__/        
                                                                              
                      - O R C A' S   B I G   F R I E N D -                    
                                      &                                       
                       - I N T E G R A L  F E E D E R -                       
                                                                              
 v1 FN, 2020, v2 2021                                                         
------------------------------------------------------------------------------


Reading SHARK input file optpbed3-b2plyp-test-31.SHARKINP.tmp ... ok
----------------------
SHARK INTEGRAL PACKAGE
----------------------

Number of atoms                             ...     16
Number of basis functions                   ...    604
Number of shells                            ...    236
Maximum angular momentum                    ...      3
Integral batch strategy                     ... SHARK/LIBINT Hybrid
RI-J (if used) integral strategy            ... SPLIT-RIJ (Revised 2003 algorithm where possible)
Printlevel                                  ...      1
Contraction scheme used                     ... PARTIAL GENERAL contraction
Coulomb Range Separation                    ... NOT USED
Exchange Range Separation                   ... NOT USED
Finite Nucleus Model                        ... NOT USED
Auxiliary Coulomb fitting basis             ... AVAILABLE
   # of basis functions in Aux-J            ...    970
   # of shells in Aux-J                     ...    310
   Maximum angular momentum in Aux-J        ...      4
Auxiliary J/K fitting basis                 ... NOT available
Auxiliary Correlation fitting basis         ... AVAILABLE
   # of basis functions in Aux-C            ...   1240
   # of shells in Aux-C                     ...    340
   Maximum angular momentum in Aux-C        ...      4
Auxiliary 'external' fitting basis          ... NOT available
Integral threshold                          ...     2.500000e-11
Primitive cut-off                           ...     2.500000e-12
Primitive pair pre-selection threshold      ...     2.500000e-12

Calculating pre-screening integrals         ... done (  0.1 sec) Dimension = 236
Calculating pre-screening integrals (ORCA)  ... done (  0.2 sec) Dimension = 176
Organizing shell pair data                  ... done (  0.5 sec)
Shell pair information
Total number of shell pairs                 ...     27966
Shell pairs after pre-screening             ...     22714
Total number of primitive shell pairs       ...     36094
Primitive shell pairs kept                  ...     27259
          la=0 lb=0:   5332 shell pairs
          la=1 lb=0:   5670 shell pairs
          la=1 lb=1:   1296 shell pairs
          la=2 lb=0:   3883 shell pairs
          la=2 lb=1:   1749 shell pairs
          la=2 lb=2:    623 shell pairs
          la=3 lb=0:   2268 shell pairs
          la=3 lb=1:    996 shell pairs
          la=3 lb=2:    692 shell pairs
          la=3 lb=3:    205 shell pairs

Calculating one electron integrals          ... done (  0.1 sec)
Calculating RI/J V-Matrix + Cholesky decomp.... done (  0.9 sec)
Calculating RI/C V-Matrix + Cholesky decomp.... done (  0.1 sec)
Calculating Nuclear repulsion               ... done (  0.0 sec) ENN=    492.743351225882 Eh

SHARK setup successfully completed in   3.2 seconds

Maximum memory used throughout the entire GTOINT-calculation: 35.3 MB


           ************************************************************
           *        Program running with 4 parallel MPI-processes     *
           *              working on a common directory               *
           ************************************************************
-------------------------------------------------------------------------------
                                 ORCA SCF
-------------------------------------------------------------------------------

------------
SCF SETTINGS
------------
Hamiltonian:
 Density Functional     Method          .... DFT(GTOs)
 Exchange Functional    Exchange        .... PBE
   PBE kappa parameter   XKappa         ....  0.804000
   PBE mue parameter    XMuePBE         ....  0.219520
 Correlation Functional Correlation     .... PBE
   PBE beta parameter  CBetaPBE         ....  0.066725
 LDA part of GGA corr.  LDAOpt          .... PW91-LDA
 Gradients option       PostSCFGGA      .... off
 Hybrid DFT is turned on
   Fraction HF Exchange ScalHFX         ....  0.250000
   Scaling of DF-GGA-X  ScalDFX         ....  0.750000
   Scaling of DF-GGA-C  ScalDFC         ....  1.000000
   Scaling of DF-LDA-C  ScalLDAC        ....  1.000000
   Perturbative correction              ....  0.000000
   Density functional embedding theory  .... OFF
   NL short-range parameter             ....  6.900000
 RI-approximation to the Coulomb term is turned on
   Number of AuxJ basis functions       .... 970
   RIJ-COSX (HFX calculated with COS-X)).... on


General Settings:
 Integral files         IntName         .... optpbed3-b2plyp-test-31
 Hartree-Fock type      HFTyp           .... RHF
 Total Charge           Charge          ....    0
 Multiplicity           Mult            ....    1
 Number of Electrons    NEL             ....   70
 Basis Dimension        Dim             ....  544
 Nuclear Repulsion      ENuc            ....    492.7433512259 Eh

Convergence Acceleration:
 DIIS                   CNVDIIS         .... on
   Start iteration      DIISMaxIt       ....    12
   Startup error        DIISStart       ....  0.200000
   # of expansion vecs  DIISMaxEq       ....     5
   Bias factor          DIISBfac        ....   1.050
   Max. coefficient     DIISMaxC        ....  10.000
 Trust-Rad. Augm. Hess. CNVTRAH         .... auto
   Auto Start mean grad. ratio tolernc. ....  1.125000
   Auto Start start iteration           ....    20
   Auto Start num. interpolation iter.  ....    10
   Max. Number of Micro iterations      ....    16
   Max. Number of Macro iterations      .... Maxiter - #DIIS iter
   Number of Davidson start vectors     ....     2
   Converg. threshold I  (grad. norm)   ....   1.000e-05
   Converg. threshold II (energy diff.) ....   1.000e-08
   Grad. Scal. Fac. for Micro threshold ....   0.100
   Minimum threshold for Micro iter.    ....   0.010
   NR start threshold (gradient norm)   ....   0.001
   Initial trust radius                 ....   0.400
   Minimum AH scaling param. (alpha)    ....   1.000
   Maximum AH scaling param. (alpha)    .... 1000.000
   Orbital update algorithm             .... Taylor
   White noise on init. David. guess    .... on
   Maximum white noise                  ....   0.010
   Quad. conv. algorithm                .... NR
 SOSCF                  CNVSOSCF        .... on
   Start iteration      SOSCFMaxIt      ....   150
   Startup grad/error   SOSCFStart      ....  0.003300
 Level Shifting         CNVShift        .... on
   Level shift para.    LevelShift      ....    0.2500
   Turn off err/grad.   ShiftErr        ....    0.0010
 Zerner damping         CNVZerner       .... off
 Static damping         CNVDamp         .... on
   Fraction old density DampFac         ....    0.7000
   Max. Damping (<1)    DampMax         ....    0.9800
   Min. Damping (>=0)   DampMin         ....    0.0000
   Turn off err/grad.   DampErr         ....    0.1000
 Fernandez-Rico         CNVRico         .... off

SCF Procedure:
 Maximum # iterations   MaxIter         ....   125
 SCF integral mode      SCFMode         .... Direct
   Integral package                     .... SHARK and LIBINT hybrid scheme
 Reset frequency        DirectResetFreq ....    20
 Integral Threshold     Thresh          ....  2.500e-11 Eh
 Primitive CutOff       TCut            ....  2.500e-12 Eh

Convergence Tolerance:
 Convergence Check Mode ConvCheckMode   .... Total+1el-Energy
 Convergence forced     ConvForced      .... 0
 Energy Change          TolE            ....  1.000e-08 Eh
 1-El. energy change                    ....  1.000e-05 Eh
 Orbital Gradient       TolG            ....  1.000e-05
 Orbital Rotation angle TolX            ....  1.000e-05
 DIIS Error             TolErr          ....  5.000e-07


Diagonalization of the overlap matrix:
Smallest eigenvalue                        ... 1.349e-06
Time for diagonalization                   ...    0.071 sec
Threshold for overlap eigenvalues          ... 1.000e-08
Number of eigenvalues below threshold      ... 0
Time for construction of square roots      ...    0.036 sec
Total time needed                          ...    0.109 sec

Time for model grid setup =    0.243 sec

------------------------------
INITIAL GUESS: MODEL POTENTIAL
------------------------------
Loading Hartree-Fock densities                     ... done
Calculating cut-offs                               ... done
Initializing the effective Hamiltonian             ... done
Setting up the integral package (SHARK)            ... done
Starting the Coulomb interaction                   ... done (   0.6 sec)
Reading the grid                                   ... done
Mapping shells                                     ... done
Starting the XC term evaluation                    ... done (   0.6 sec)
  promolecular density results
     # of electrons  =     69.998555444
     EX              =    -58.907368379
     EC              =     -2.366129475
     EX+EC           =    -61.273497854
Transforming the Hamiltonian                       ... done (   0.0 sec)
Diagonalizing the Hamiltonian                      ... done (   0.1 sec)
Back transforming the eigenvectors                 ... done (   0.0 sec)
Now organizing SCF variables                       ... done
                      ------------------
                      INITIAL GUESS DONE (   1.6 sec)
                      ------------------
-------------------
DFT GRID GENERATION
-------------------

General Integration Accuracy     IntAcc      ... 4.388
Radial Grid Type                 RadialGrid  ... OptM3 with GC (2021)
Angular Grid (max. ang.)         AngularGrid ... 4 (Lebedev-302)
Angular grid pruning method      GridPruning ... 4 (adaptive)
Weight generation scheme         WeightScheme... Becke
Basis function cutoff            BFCut       ... 1.0000e-11
Integration weight cutoff        WCut        ... 1.0000e-14
Angular grids for H and He will be reduced by one unit
Partially contracted basis set               ... off
Rotationally invariant grid construction     ... off

Total number of grid points                  ...    81996
Total number of batches                      ...     1288
Average number of points per batch           ...       63
Average number of grid points per atom       ...     5125
Time for grid setup =    0.782 sec

--------------------
COSX GRID GENERATION
--------------------

GRIDX 1
-------
General Integration Accuracy     IntAcc      ... 3.816
Radial Grid Type                 RadialGrid  ... OptM3 with GC (2021)
Angular Grid (max. ang.)         AngularGrid ... 1 (Lebedev-50)
Angular grid pruning method      GridPruning ... 4 (adaptive)
Weight generation scheme         WeightScheme... Becke
Basis function cutoff            BFCut       ... 1.0000e-11
Integration weight cutoff        WCut        ... 1.0000e-14
Angular grids for H and He will be reduced by one unit
Partially contracted basis set               ... on
Rotationally invariant grid construction     ... off

Total number of grid points                  ...    10475
Total number of batches                      ...      174
Average number of points per batch           ...       60
Average number of grid points per atom       ...      655
UseSFitting                                  ... on

GRIDX 2
-------
General Integration Accuracy     IntAcc      ... 4.020
Radial Grid Type                 RadialGrid  ... OptM3 with GC (2021)
Angular Grid (max. ang.)         AngularGrid ... 2 (Lebedev-110)
Angular grid pruning method      GridPruning ... 4 (adaptive)
Weight generation scheme         WeightScheme... Becke
Basis function cutoff            BFCut       ... 1.0000e-11
Integration weight cutoff        WCut        ... 1.0000e-14
Angular grids for H and He will be reduced by one unit
Partially contracted basis set               ... on
Rotationally invariant grid construction     ... off

Total number of grid points                  ...    25602
Total number of batches                      ...      408
Average number of points per batch           ...       62
Average number of grid points per atom       ...     1600
UseSFitting                                  ... on

GRIDX 3
-------
General Integration Accuracy     IntAcc      ... 4.338
Radial Grid Type                 RadialGrid  ... OptM3 with GC (2021)
Angular Grid (max. ang.)         AngularGrid ... 3 (Lebedev-194)
Angular grid pruning method      GridPruning ... 4 (adaptive)
Weight generation scheme         WeightScheme... Becke
Basis function cutoff            BFCut       ... 1.0000e-11
Integration weight cutoff        WCut        ... 1.0000e-14
Angular grids for H and He will be reduced by one unit
Partially contracted basis set               ... on
Rotationally invariant grid construction     ... off

Total number of grid points                  ...    55257
Total number of batches                      ...      871
Average number of points per batch           ...       63
Average number of grid points per atom       ...     3454
UseSFitting                                  ... on

Time for X-Grid setup             =    1.365 sec


--------------------
CPCM SOLVATION MODEL
--------------------
CPCM parameters:
  Epsilon                                         ...      20.4930
  Refrac                                          ...       1.3588
  Rsolv                                           ...       1.3000
  Surface type                                    ... GAUSSIAN VDW
  Epsilon function type                           ...         CPCM
Solvent:                                     ... ACETONE
SMD-CDS solvent descriptors:
  Soln                                       ...    1.3588
  Soln25                                     ...    1.3559
  Sola                                       ...    0.0400
  Solb                                       ...    0.4900
  Solg                                       ...   33.7700
  Solc                                       ...    0.0000
  Solh                                       ...    0.0000
Radii:
 Radius for O  used is    4.1990 Bohr (=   2.2220 Ang.)
 Radius for C  used is    3.4960 Bohr (=   1.8500 Ang.)
 Radius for N  used is    3.5716 Bohr (=   1.8900 Ang.)
 Radius for H  used is    2.2677 Bohr (=   1.2000 Ang.)
Calculating surface                               ...        done! (  0.0s)
GEPOL surface points                              ...          932
GEPOL Volume                                      ...    1019.4231
GEPOL Surface-area                                ...     589.9515
Calculating surface distance matrix               ...        done! (  0.0s)
Performing Cholesky decomposition & store         ...        done! (  0.0s)
Overall time for CPCM initialization              ...                 0.0s
 re-compute Schwartz prescreening matrix in partically contracted basis (1) ...done (   0.135 sec)
--------------
SCF ITERATIONS
--------------
ITER       Energy         Delta-E        Max-DP      RMS-DP      [F,P]     Damp
               ***  Starting incremental Fock matrix formation  ***
  0   -454.5307719736   0.000000000000 0.03506201  0.00075206  0.3152338 0.7000
  1   -454.6483207935  -0.117548819966 0.02630782  0.00055941  0.1312892 0.7000
                               ***Turning on DIIS***
  2   -454.6969684224  -0.048647628874 0.05880749  0.00112056  0.0469653 0.0000
  3   -454.7731668813  -0.076198458855 0.01570668  0.00029637  0.0666225 0.0000
  4   -454.7888365011  -0.015669619793 0.00703570  0.00009610  0.0161310 0.0000
  5   -454.7896460342  -0.000809533114 0.00390132  0.00004287  0.0092544 0.0000
                      *** Initiating the SOSCF procedure ***
                           *** Shutting down DIIS ***
                      *** Re-Reading the Fockian *** 
                      *** Removing any level shift *** 
ITER      Energy       Delta-E        Grad      Rot      Max-DP    RMS-DP
  6   -454.78974389  -0.0000978559  0.000319  0.000319  0.001749  0.000021
               *** Restarting incremental Fock matrix formation ***
  7   -454.78973830   0.0000055931  0.000205  0.000963  0.002507  0.000049
  8   -454.78973633   0.0000019719  0.000316  0.000545  0.000200  0.000005
  9   -454.78974031  -0.0000039820  0.000028  0.000060  0.000411  0.000004
 10   -454.78974027   0.0000000376  0.000043  0.000034  0.000255  0.000002
 11   -454.78974034  -0.0000000736  0.000004  0.000015  0.000920  0.000007
 12   -454.78974035  -0.0000000076  0.000006  0.000009  0.000371  0.000004
                  ***Gradient check signals convergence***
              ***Rediagonalizing the Fockian in SOSCF/NRSCF***

               *****************************************************
               *                     SUCCESS                       *
               *           SCF CONVERGED AFTER  13 CYCLES          *
               *****************************************************

Old exchange energy                            =    -14.997885275 Eh
New exchange energy                            =    -14.997901906 Eh
Exchange energy change after final integration =     -0.000016630 Eh
Total energy after final integration           =   -454.789756984 Eh
Final COS-X integration done in                =    24.723 sec

SMD CDS free energy correction energy :                -3.45331     Kcal/mol
Total Energy after SMD CDS correction =              -454.795260181 Eh

----------------
TOTAL SCF ENERGY
----------------

Total Energy       :         -454.79526018 Eh          -12375.60819 eV

Components:
Nuclear Repulsion  :          492.74335123 Eh           13408.22825 eV
Electronic Energy  :         -947.53861141 Eh          -25783.83644 eV
One Electron Energy:        -1593.25637516 Eh          -43354.71008 eV
Two Electron Energy:          645.71776376 Eh           17570.87364 eV
Max COSX asymmetry :            0.00001916 Eh               0.00052 eV
CPCM Dielectric    :           -0.02116476 Eh              -0.57592 eV
SMD CDS (Gcds)     :           -0.00550320 Eh              -0.14975 eV

Virial components:
Potential Energy   :         -907.07873783 Eh          -24682.86731 eV
Kinetic Energy     :          452.28347765 Eh           12307.25912 eV
Virial Ratio       :            2.00555356


DFT components:
N(Alpha)           :       35.000035612979 electrons
N(Beta)            :       35.000035612979 electrons
N(Total)           :       70.000071225957 electrons
E(X)               :      -44.907060326845 Eh       
E(C)               :       -2.375719874903 Eh       
E(XC)              :      -47.282780201748 Eh       
DFET-embed. en.    :        0.000000000000 Eh       
CPCM Solvation Model Properties:
Surface-charge          :           -0.03215709
Charge-correction       :            0.00045162 Eh               0.01229 eV
Free-energy (cav+disp)  :           -0.00550320 Eh              -0.14975 eV

---------------
SCF CONVERGENCE
---------------

  Last Energy change         ...   -3.3885e-09  Tolerance :   1.0000e-08
  Last MAX-Density change    ...    6.4393e-15  Tolerance :   1.0000e-07
  Last RMS-Density change    ...    2.0922e-17  Tolerance :   5.0000e-09
  Last Orbital Gradient      ...    7.5659e-07  Tolerance :   1.0000e-05
  Last Orbital Rotation      ...    1.0399e-06  Tolerance :   1.0000e-05

             **** THE GBW FILE WAS UPDATED (optpbed3-b2plyp-test-31.gbw) ****
             **** DENSITY optpbed3-b2plyp-test-31.scfp WAS UPDATED ****
             **** ENERGY FILE WAS UPDATED (optpbed3-b2plyp-test-31.en.tmp) ****
             **** THE GBW FILE WAS UPDATED (optpbed3-b2plyp-test-31.gbw) ****
             **** DENSITY optpbed3-b2plyp-test-31.scfp WAS UPDATED ****
----------------
ORBITAL ENERGIES
----------------

  NO   OCC          E(Eh)            E(eV) 
   0   2.0000     -19.175948      -521.8041 
   1   2.0000     -14.427757      -392.5992 
   2   2.0000     -14.427734      -392.5986 
   3   2.0000     -10.351717      -281.6845 
   4   2.0000     -10.271590      -279.5042 
   5   2.0000     -10.270999      -279.4881 
   6   2.0000     -10.229935      -278.3707 
   7   2.0000     -10.229906      -278.3699 
   8   2.0000     -10.223469      -278.1947 
   9   2.0000     -10.222814      -278.1769 
  10   2.0000      -1.099811       -29.9274 
  11   2.0000      -1.023495       -27.8507 
  12   2.0000      -0.936213       -25.4757 
  13   2.0000      -0.878254       -23.8985 
  14   2.0000      -0.774689       -21.0804 
  15   2.0000      -0.761043       -20.7090 
  16   2.0000      -0.678758       -18.4700 
  17   2.0000      -0.640169       -17.4199 
  18   2.0000      -0.632724       -17.2173 
  19   2.0000      -0.562994       -15.3199 
  20   2.0000      -0.538074       -14.6417 
  21   2.0000      -0.517984       -14.0950 
  22   2.0000      -0.492668       -13.4062 
  23   2.0000      -0.479187       -13.0393 
  24   2.0000      -0.453767       -12.3476 
  25   2.0000      -0.453663       -12.3448 
  26   2.0000      -0.441029       -12.0010 
  27   2.0000      -0.396771       -10.7967 
  28   2.0000      -0.383113       -10.4250 
  29   2.0000      -0.363392        -9.8884 
  30   2.0000      -0.349408        -9.5079 
  31   2.0000      -0.328648        -8.9430 
  32   2.0000      -0.294962        -8.0263 
  33   2.0000      -0.254235        -6.9181 
  34   2.0000      -0.223048        -6.0695 
  35   0.0000      -0.009938        -0.2704 
  36   0.0000       0.008162         0.2221 
  37   0.0000       0.010085         0.2744 
  38   0.0000       0.017614         0.4793 
  39   0.0000       0.023649         0.6435 
  40   0.0000       0.037867         1.0304 
  41   0.0000       0.043065         1.1719 
  42   0.0000       0.043318         1.1788 
  43   0.0000       0.049189         1.3385 
  44   0.0000       0.061833         1.6826 
  45   0.0000       0.067358         1.8329 
  46   0.0000       0.068959         1.8765 
  47   0.0000       0.070969         1.9312 
  48   0.0000       0.072898         1.9836 
  49   0.0000       0.089367         2.4318 
  50   0.0000       0.097081         2.6417 
  51   0.0000       0.105095         2.8598 
  52   0.0000       0.105821         2.8795 
  53   0.0000       0.107251         2.9184 
  54   0.0000       0.113135         3.0786 
  55   0.0000       0.128413         3.4943 
  56   0.0000       0.133484         3.6323 
  57   0.0000       0.135380         3.6839 
  58   0.0000       0.141366         3.8468 
  59   0.0000       0.142338         3.8732 
  60   0.0000       0.143016         3.8917 
  61   0.0000       0.149453         4.0668 
  62   0.0000       0.154788         4.2120 
  63   0.0000       0.157309         4.2806 
  64   0.0000       0.160042         4.3550 
  65   0.0000       0.163418         4.4468 
  66   0.0000       0.168191         4.5767 
  67   0.0000       0.168955         4.5975 
  68   0.0000       0.178061         4.8453 
  69   0.0000       0.187586         5.1045 
  70   0.0000       0.188617         5.1325 
  71   0.0000       0.192338         5.2338 
  72   0.0000       0.197629         5.3778 
  73   0.0000       0.198855         5.4111 
  74   0.0000       0.202779         5.5179 
  75   0.0000       0.217011         5.9052 
  76   0.0000       0.219820         5.9816 
  77   0.0000       0.230687         6.2773 
  78   0.0000       0.239031         6.5044 
  79   0.0000       0.245827         6.6893 
  80   0.0000       0.249824         6.7981 
  81   0.0000       0.255686         6.9576 
  82   0.0000       0.264145         7.1878 
  83   0.0000       0.266717         7.2577 
  84   0.0000       0.267123         7.2688 
  85   0.0000       0.276809         7.5324 
  86   0.0000       0.287029         7.8104 
  87   0.0000       0.287554         7.8247 
  88   0.0000       0.291730         7.9384 
  89   0.0000       0.300297         8.1715 
  90   0.0000       0.305596         8.3157 
  91   0.0000       0.313340         8.5264 
  92   0.0000       0.313635         8.5345 
  93   0.0000       0.320455         8.7200 
  94   0.0000       0.328403         8.9363 
  95   0.0000       0.329030         8.9534 
  96   0.0000       0.346262         9.4223 
  97   0.0000       0.352033         9.5793 
  98   0.0000       0.358950         9.7675 
  99   0.0000       0.366069         9.9612 
 100   0.0000       0.367080         9.9888 
 101   0.0000       0.378488        10.2992 
 102   0.0000       0.378650        10.3036 
 103   0.0000       0.383478        10.4350 
 104   0.0000       0.391289        10.6475 
 105   0.0000       0.402362        10.9488 
 106   0.0000       0.405487        11.0339 
 107   0.0000       0.415893        11.3170 
 108   0.0000       0.416504        11.3336 
 109   0.0000       0.417201        11.3526 
 110   0.0000       0.421042        11.4571 
 111   0.0000       0.432315        11.7639 
 112   0.0000       0.433477        11.7955 
 113   0.0000       0.437012        11.8917 
 114   0.0000       0.439100        11.9485 
 115   0.0000       0.471418        12.8279 
 116   0.0000       0.473739        12.8911 
 117   0.0000       0.480074        13.0635 
 118   0.0000       0.481914        13.1135 
 119   0.0000       0.486564        13.2401 
 120   0.0000       0.487228        13.2581 
 121   0.0000       0.497886        13.5482 
 122   0.0000       0.503335        13.6964 
 123   0.0000       0.514946        14.0124 
 124   0.0000       0.518046        14.0967 
 125   0.0000       0.519598        14.1390 
 126   0.0000       0.527989        14.3673 
 127   0.0000       0.541004        14.7215 
 128   0.0000       0.545360        14.8400 
 129   0.0000       0.547679        14.9031 
 130   0.0000       0.555384        15.1128 
 131   0.0000       0.572252        15.5718 
 132   0.0000       0.601821        16.3764 
 133   0.0000       0.603758        16.4291 
 134   0.0000       0.607701        16.5364 
 135   0.0000       0.622198        16.9309 
 136   0.0000       0.634727        17.2718 
 137   0.0000       0.639761        17.4088 
 138   0.0000       0.645136        17.5551 
 139   0.0000       0.647319        17.6145 
 140   0.0000       0.649694        17.6791 
 141   0.0000       0.663051        18.0425 
 142   0.0000       0.672956        18.3121 
 143   0.0000       0.676778        18.4161 
 144   0.0000       0.683893        18.6097 
 145   0.0000       0.687745        18.7145 
 146   0.0000       0.691389        18.8137 
 147   0.0000       0.699160        19.0251 
 148   0.0000       0.709394        19.3036 
 149   0.0000       0.718568        19.5532 
 150   0.0000       0.721853        19.6426 
 151   0.0000       0.732907        19.9434 
 152   0.0000       0.737501        20.0684 
 153   0.0000       0.744408        20.2564 
 154   0.0000       0.747573        20.3425 
 155   0.0000       0.762845        20.7581 
 156   0.0000       0.763491        20.7756 
 157   0.0000       0.779044        21.1989 
 158   0.0000       0.781017        21.2526 
 159   0.0000       0.788652        21.4603 
 160   0.0000       0.790289        21.5049 
 161   0.0000       0.795574        21.6487 
 162   0.0000       0.803824        21.8732 
 163   0.0000       0.809232        22.0203 
 164   0.0000       0.811403        22.0794 
 165   0.0000       0.829996        22.5853 
 166   0.0000       0.831834        22.6354 
 167   0.0000       0.848713        23.0946 
 168   0.0000       0.856775        23.3140 
 169   0.0000       0.860507        23.4156 
 170   0.0000       0.879446        23.9310 
 171   0.0000       0.892933        24.2979 
 172   0.0000       0.893828        24.3223 
 173   0.0000       0.899076        24.4651 
 174   0.0000       0.900413        24.5015 
 175   0.0000       0.914156        24.8755 
 176   0.0000       0.920825        25.0569 
 177   0.0000       0.934163        25.4199 
 178   0.0000       0.939728        25.5713 
 179   0.0000       0.957539        26.0560 
 180   0.0000       0.962102        26.1801 
 181   0.0000       0.976381        26.5687 
 182   0.0000       0.980001        26.6672 
 183   0.0000       0.991212        26.9723 
 184   0.0000       1.003804        27.3149 
 185   0.0000       1.016397        27.6576 
 186   0.0000       1.017251        27.6808 
 187   0.0000       1.020773        27.7766 
 188   0.0000       1.036675        28.2094 
 189   0.0000       1.051422        28.6107 
 190   0.0000       1.065227        28.9863 
 191   0.0000       1.090057        29.6620 
 192   0.0000       1.096559        29.8389 
 193   0.0000       1.109326        30.1863 
 194   0.0000       1.110590        30.2207 
 195   0.0000       1.111595        30.2480 
 196   0.0000       1.136383        30.9226 
 197   0.0000       1.143986        31.1294 
 198   0.0000       1.148827        31.2612 
 199   0.0000       1.159563        31.5533 
 200   0.0000       1.161986        31.6192 
 201   0.0000       1.175433        31.9852 
 202   0.0000       1.184037        32.2193 
 203   0.0000       1.189893        32.3786 
 204   0.0000       1.206872        32.8407 
 205   0.0000       1.222654        33.2701 
 206   0.0000       1.234161        33.5832 
 207   0.0000       1.236010        33.6335 
 208   0.0000       1.243579        33.8395 
 209   0.0000       1.253812        34.1179 
 210   0.0000       1.255777        34.1714 
 211   0.0000       1.291265        35.1371 
 212   0.0000       1.291278        35.1375 
 213   0.0000       1.300427        35.3864 
 214   0.0000       1.305705        35.5301 
 215   0.0000       1.312395        35.7121 
 216   0.0000       1.325861        36.0785 
 217   0.0000       1.330192        36.1964 
 218   0.0000       1.349936        36.7336 
 219   0.0000       1.350302        36.7436 
 220   0.0000       1.352945        36.8155 
 221   0.0000       1.359621        36.9972 
 222   0.0000       1.367152        37.2021 
 223   0.0000       1.371721        37.3264 
 224   0.0000       1.388003        37.7695 
 225   0.0000       1.411912        38.4201 
 226   0.0000       1.418424        38.5973 
 227   0.0000       1.434199        39.0265 
 228   0.0000       1.454994        39.5924 
 229   0.0000       1.456876        39.6436 
 230   0.0000       1.468054        39.9478 
 231   0.0000       1.476177        40.1688 
 232   0.0000       1.478161        40.2228 
 233   0.0000       1.492247        40.6061 
 234   0.0000       1.509612        41.0786 
 235   0.0000       1.511132        41.1200 
 236   0.0000       1.517723        41.2993 
 237   0.0000       1.518046        41.3081 
 238   0.0000       1.535989        41.7964 
 239   0.0000       1.546307        42.0772 
 240   0.0000       1.551745        42.2251 
 241   0.0000       1.554345        42.2959 
 242   0.0000       1.564135        42.5623 
 243   0.0000       1.569220        42.7006 
 244   0.0000       1.596787        43.4508 
 245   0.0000       1.619896        44.0796 
 246   0.0000       1.620059        44.0840 
 247   0.0000       1.629845        44.3503 
 248   0.0000       1.641991        44.6808 
 249   0.0000       1.646056        44.7915 
 250   0.0000       1.675365        45.5890 
 251   0.0000       1.682031        45.7704 
 252   0.0000       1.698867        46.2285 
 253   0.0000       1.706668        46.4408 
 254   0.0000       1.726018        46.9673 
 255   0.0000       1.726420        46.9783 
 256   0.0000       1.726663        46.9849 
 257   0.0000       1.739125        47.3240 
 258   0.0000       1.740018        47.3483 
 259   0.0000       1.751417        47.6585 
 260   0.0000       1.754279        47.7364 
 261   0.0000       1.794730        48.8371 
 262   0.0000       1.808908        49.2229 
 263   0.0000       1.830044        49.7980 
 264   0.0000       1.833877        49.9023 
 265   0.0000       1.837950        50.0132 
 266   0.0000       1.860072        50.6151 
 267   0.0000       1.862971        50.6940 
 268   0.0000       1.867544        50.8185 
 269   0.0000       1.889368        51.4123 
 270   0.0000       1.892606        51.5004 
 271   0.0000       1.896242        51.5994 
 272   0.0000       1.905823        51.8601 
 273   0.0000       1.912663        52.0462 
 274   0.0000       1.951043        53.0906 
 275   0.0000       1.960738        53.3544 
 276   0.0000       1.961717        53.3810 
 277   0.0000       1.994120        54.2628 
 278   0.0000       2.008029        54.6412 
 279   0.0000       2.013913        54.8014 
 280   0.0000       2.035654        55.3930 
 281   0.0000       2.048887        55.7531 
 282   0.0000       2.055308        55.9278 
 283   0.0000       2.071958        56.3808 
 284   0.0000       2.074940        56.4620 
 285   0.0000       2.091119        56.9022 
 286   0.0000       2.095800        57.0296 
 287   0.0000       2.098847        57.1125 
 288   0.0000       2.137131        58.1543 
 289   0.0000       2.165765        58.9335 
 290   0.0000       2.173578        59.1461 
 291   0.0000       2.205340        60.0103 
 292   0.0000       2.210579        60.1529 
 293   0.0000       2.213968        60.2451 
 294   0.0000       2.225325        60.5542 
 295   0.0000       2.227761        60.6205 
 296   0.0000       2.241652        60.9984 
 297   0.0000       2.247488        61.1572 
 298   0.0000       2.279567        62.0302 
 299   0.0000       2.284179        62.1557 
 300   0.0000       2.288854        62.2829 
 301   0.0000       2.339405        63.6584 
 302   0.0000       2.339768        63.6683 
 303   0.0000       2.359660        64.2096 
 304   0.0000       2.405006        65.4435 
 305   0.0000       2.406475        65.4835 
 306   0.0000       2.424916        65.9853 
 307   0.0000       2.433146        66.2093 
 308   0.0000       2.463789        67.0431 
 309   0.0000       2.470322        67.2209 
 310   0.0000       2.482725        67.5584 
 311   0.0000       2.492012        67.8111 
 312   0.0000       2.510598        68.3168 
 313   0.0000       2.537778        69.0564 
 314   0.0000       2.547461        69.3199 
 315   0.0000       2.550261        69.3961 
 316   0.0000       2.607173        70.9448 
 317   0.0000       2.629455        71.5511 
 318   0.0000       2.662334        72.4458 
 319   0.0000       2.680176        72.9313 
 320   0.0000       2.680677        72.9449 
 321   0.0000       2.706292        73.6420 
 322   0.0000       2.725293        74.1590 
 323   0.0000       2.725374        74.1612 
 324   0.0000       2.743930        74.6661 
 325   0.0000       2.831811        77.0575 
 326   0.0000       2.852081        77.6091 
 327   0.0000       2.855435        77.7003 
 328   0.0000       2.888102        78.5893 
 329   0.0000       2.931544        79.7714 
 330   0.0000       2.937767        79.9407 
 331   0.0000       2.956759        80.4575 
 332   0.0000       2.962999        80.6273 
 333   0.0000       2.968369        80.7734 
 334   0.0000       2.972534        80.8868 
 335   0.0000       3.000735        81.6541 
 336   0.0000       3.000794        81.6558 
 337   0.0000       3.005019        81.7707 
 338   0.0000       3.019060        82.1528 
 339   0.0000       3.023625        82.2770 
 340   0.0000       3.029943        82.4490 
 341   0.0000       3.049257        82.9745 
 342   0.0000       3.072526        83.6077 
 343   0.0000       3.126197        85.0682 
 344   0.0000       3.129625        85.1614 
 345   0.0000       3.146453        85.6193 
 346   0.0000       3.168334        86.2147 
 347   0.0000       3.184462        86.6536 
 348   0.0000       3.194575        86.9288 
 349   0.0000       3.203286        87.1659 
 350   0.0000       3.215324        87.4934 
 351   0.0000       3.223922        87.7274 
 352   0.0000       3.238471        88.1233 
 353   0.0000       3.242604        88.2357 
 354   0.0000       3.243595        88.2627 
 355   0.0000       3.259905        88.7065 
 356   0.0000       3.268118        88.9300 
 357   0.0000       3.295323        89.6703 
 358   0.0000       3.313135        90.1550 
 359   0.0000       3.330030        90.6147 
 360   0.0000       3.342382        90.9508 
 361   0.0000       3.355134        91.2978 
 362   0.0000       3.357967        91.3749 
 363   0.0000       3.364438        91.5510 
 364   0.0000       3.369980        91.7018 
 365   0.0000       3.389610        92.2360 
 366   0.0000       3.393940        92.3538 
 367   0.0000       3.418551        93.0235 
 368   0.0000       3.418694        93.0274 
 369   0.0000       3.431720        93.3819 
 370   0.0000       3.442365        93.6715 
 371   0.0000       3.467160        94.3462 
 372   0.0000       3.477736        94.6340 
 373   0.0000       3.482991        94.7770 
 374   0.0000       3.486714        94.8783 
 375   0.0000       3.495815        95.1259 
 376   0.0000       3.507018        95.4308 
 377   0.0000       3.523732        95.8856 
 378   0.0000       3.551403        96.6386 
 379   0.0000       3.568377        97.1005 
 380   0.0000       3.588908        97.6592 
 381   0.0000       3.591361        97.7259 
 382   0.0000       3.630041        98.7784 
 383   0.0000       3.630607        98.7938 
 384   0.0000       3.633794        98.8806 
 385   0.0000       3.646707        99.2320 
 386   0.0000       3.658786        99.5606 
 387   0.0000       3.667690        99.8029 
 388   0.0000       3.670570        99.8813 
 389   0.0000       3.684013       100.2471 
 390   0.0000       3.708341       100.9091 
 391   0.0000       3.768844       102.5555 
 392   0.0000       3.777879       102.8013 
 393   0.0000       3.792366       103.1955 
 394   0.0000       3.808970       103.6473 
 395   0.0000       3.812331       103.7388 
 396   0.0000       3.819580       103.9361 
 397   0.0000       3.826948       104.1366 
 398   0.0000       3.843534       104.5879 
 399   0.0000       3.843933       104.5987 
 400   0.0000       3.885959       105.7423 
 401   0.0000       3.895776       106.0095 
 402   0.0000       3.898954       106.0959 
 403   0.0000       3.911313       106.4322 
 404   0.0000       3.930052       106.9422 
 405   0.0000       3.935036       107.0778 
 406   0.0000       3.941397       107.2509 
 407   0.0000       3.941855       107.2633 
 408   0.0000       3.950789       107.5064 
 409   0.0000       3.968388       107.9853 
 410   0.0000       3.973398       108.1216 
 411   0.0000       3.982199       108.3612 
 412   0.0000       3.996471       108.7495 
 413   0.0000       3.999970       108.8447 
 414   0.0000       4.036381       109.8355 
 415   0.0000       4.045618       110.0869 
 416   0.0000       4.055799       110.3639 
 417   0.0000       4.058513       110.4378 
 418   0.0000       4.083744       111.1243 
 419   0.0000       4.095138       111.4344 
 420   0.0000       4.099047       111.5407 
[...]
   GGA exch. scaling (TD-DFT)           ...  0.470
   GGA corr. scaling (TD-DFT)           ...  0.730

Building densities             ... done
Calculating rho(r) on the grid ... done
Building xc-kernel on the grid ... done
                    *** TD-DFT CALCULATION INITIALIZED ***

---------------------------------
    LR-CPCM (non-equilibrium)
---------------------------------

Setting up LR-CPCM             ... done

------------------------
DAVIDSON-DIAGONALIZATION
------------------------

Dimension of the eigenvalue problem            ...  12725
Number of roots to be determined               ...     10
Maximum size of the expansion space            ...     70
Maximum number of iterations                   ...    100
Convergence tolerance for the residual         ...    1.000e-06
Convergence tolerance for the energies         ...    1.000e-06
Orthogonality tolerance                        ...    1.000e-14
Level Shift                                    ...    0.000e+00
Constructing the preconditioner                ... o.k.
Building the initial guess                     ... o.k.
Number of trial vectors determined             ...     70


                       ****Iteration    0****
              <<< Entering MO-section for Build Sigma(Double) >>>
   Forming the XC and CPCM contribution:

   Memory handling for XC-terms:
   Memory per vector needed      ...     9 MB
   Memory needed                 ...   270 MB
   Memory available              ...  4000 MB
   Number of vectors per batch   ...   442
   Number of batches             ...     1
   Time for densities:            0.099
   Time for XC-Integration:      11.193
   Time for LR-CPCM terms:        4.698
   Time for Sigma-Completion:     0.085
   Time for building 30 sigma-vectors
   Data Preparation Phase         ...     0.01 sec
   Transformed RI Coulomb         ...     0.10 sec
   Transformed RI-exchange        ...     2.30 sec
   (ab|v) reading and digestion   ...     0.68 sec
   Final sigma-completion         ...     0.01 sec
   Done building sigma-vectors             Size of expansion space: 30
   Lowest Energy          :     0.201578393277
   Maximum Energy change  :     0.247868712987 (vector 9)
   Maximum residual norm  :     0.018070939058

                       ****Iteration    1****
              <<< Entering MO-section for Build Sigma(Double) >>>
   Forming the XC and CPCM contribution:
   Time for densities:            0.035
   Time for XC-Integration:       3.928
   Time for LR-CPCM terms:        2.168
   Time for Sigma-Completion:     0.025
   Time for building 10 sigma-vectors
   Data Preparation Phase         ...     0.00 sec
   Transformed RI Coulomb         ...     0.05 sec
   Transformed RI-exchange        ...     9.79 sec
   (ab|v) reading and digestion   ...     9.25 sec
   Final sigma-completion         ...     0.00 sec
   Done building sigma-vectors             Size of expansion space: 40
   Lowest Energy          :     0.193039321252
   Maximum Energy change  :     0.008637906766 (vector 4)
   Maximum residual norm  :     0.000806611525

                       ****Iteration    2****
              <<< Entering MO-section for Build Sigma(Double) >>>
   Forming the XC and CPCM contribution:
   Time for densities:            0.037
   Time for XC-Integration:       3.959
   Time for LR-CPCM terms:        2.152
   Time for Sigma-Completion:     0.025
   Time for building 10 sigma-vectors
   Data Preparation Phase         ...     0.00 sec
   Transformed RI Coulomb         ...     0.05 sec
   Transformed RI-exchange        ...     9.74 sec
   (ab|v) reading and digestion   ...     9.21 sec
   Final sigma-completion         ...     0.00 sec
   Done building sigma-vectors             Size of expansion space: 50
   Lowest Energy          :     0.192132868153
   Maximum Energy change  :     0.001743766380 (vector 2)
   Maximum residual norm  :     0.000133967466

                       ****Iteration    3****
              <<< Entering MO-section for Build Sigma(Double) >>>
   Forming the XC and CPCM contribution:
   Time for densities:            0.034
   Time for XC-Integration:       4.056
   Time for LR-CPCM terms:        2.094
   Time for Sigma-Completion:     0.022
   Time for building 10 sigma-vectors
   Data Preparation Phase         ...     0.00 sec
   Transformed RI Coulomb         ...     0.05 sec
   Transformed RI-exchange        ...     9.74 sec
   (ab|v) reading and digestion   ...     9.21 sec
   Final sigma-completion         ...     0.00 sec
   Done building sigma-vectors             Size of expansion space: 60
   Lowest Energy          :     0.192063724857
   Maximum Energy change  :     0.000127853724 (vector 2)
   Maximum residual norm  :     0.000007799799

                       ****Iteration    4****
              <<< Entering MO-section for Build Sigma(Double) >>>
   Forming the XC and CPCM contribution:
   Time for densities:            0.032
   Time for XC-Integration:       3.672
   Time for LR-CPCM terms:        1.953
   Time for Sigma-Completion:     0.023
   Time for building 10 sigma-vectors
   Data Preparation Phase         ...     0.00 sec
   Transformed RI Coulomb         ...     0.04 sec
   Transformed RI-exchange        ...     9.09 sec
   (ab|v) reading and digestion   ...     8.62 sec
   Final sigma-completion         ...     0.00 sec
   Done building sigma-vectors             Size of expansion space: 70
   Lowest Energy          :     0.192058509644
   Maximum Energy change  :     0.000012875806 (vector 2)
   Maximum residual norm  :     0.000000659704

      *** CONVERGENCE OF RESIDUAL NORM REACHED ***

Storing the converged CI vectors               ... optpbed3-b2plyp-test-31_job2.cis1

                 *** DAVIDSON DONE ***

Total time for solving the CIS problem:    81.867sec

------------------
DOUBLES CORRECTION (Double precision version)
------------------

The (D) correction will be scaled by  0.2700
Doing v(i,a)*T(i,a) terms (RI)                    ... ok
Doing u(i,j,a,b) terms for state   0              ... ok
Doing u(i,j,a,b) terms for state   1              ... ok
Doing u(i,j,a,b) terms for state   2              ... ok
Doing u(i,j,a,b) terms for state   3              ... ok
Doing u(i,j,a,b) terms for state   4              ... ok
Doing u(i,j,a,b) terms for state   5              ... ok
Doing u(i,j,a,b) terms for state   6              ... ok
Doing u(i,j,a,b) terms for state   7              ... ok
Doing u(i,j,a,b) terms for state   8              ... ok
Doing u(i,j,a,b) terms for state   9              ... ok

Contributions to the (D) correction(s) (in eV)

STATE  Final   Init.   Total   v(ext)   v(int)  v(3)    u
       omega   omega     (D)                             
-----------------------------------------------------------------------------
   0   4.810   5.226  -0.416   0.491   0.958  -0.050  -1.816
   1   5.185   5.405  -0.220   0.039   0.978  -0.002  -1.235
   2   5.620   5.778  -0.157   0.490   0.937  -0.055  -1.528
   3   5.632   5.861  -0.229   0.037   0.975  -0.002  -1.240
   4   5.785   6.000  -0.216   0.038   0.966  -0.002  -1.218
   5   6.028   6.267  -0.239   0.034   0.900  -0.002  -1.172
   6   6.063   6.274  -0.211   0.040   0.978  -0.003  -1.226
   7   6.307   6.505  -0.198   0.038   0.976  -0.002  -1.209
   8   6.383   6.616  -0.232   0.034   0.967  -0.001  -1.232
   9   6.413   6.625  -0.212   0.032   0.959  -0.002  -1.201

(D)-timings
 V(i,a)*T(i,a) terms           ...    13.540 sec
 U(i,j,a,b) 3-internal         ...     0.915 sec
 U(i,j,a,b) 3-external         ...    12.818 sec
 U(i,j,a,b) pair terms         ...    11.697 sec
 Total measured time           ...    79.539 sec

 Time for (ab|v) I/O           ...     6.888 sec


------------------------------------
TD-DFT/TDA EXCITED STATES (SINGLETS)
------------------------------------

the weight of the individual excitations are printed if larger than 1.0e-02

STATE  1:  E=   0.176764 au      4.810 eV    38795.2 cm**-1 <S**2> =   0.000000
    33a ->  42a  :     0.161383 (c=  0.40172514)
    34a ->  37a  :     0.752432 (c=  0.86742822)
    34a ->  40a  :     0.045483 (c= -0.21326857)

STATE  2:  E=   0.190528 au      5.185 eV    41816.0 cm**-1 <S**2> =   0.000000
    34a ->  35a  :     0.866680 (c=  0.93095623)
    34a ->  36a  :     0.020715 (c=  0.14392650)
    34a ->  43a  :     0.076193 (c=  0.27603055)

STATE  3:  E=   0.206545 au      5.620 eV    45331.4 cm**-1 <S**2> =   0.000000
    33a ->  37a  :     0.364189 (c=  0.60348043)
    33a ->  40a  :     0.021337 (c= -0.14607330)
    34a ->  42a  :     0.572411 (c= -0.75657842)

STATE  4:  E=   0.206969 au      5.632 eV    45424.4 cm**-1 <S**2> =   0.000000
    31a ->  35a  :     0.012991 (c=  0.11397618)
    34a ->  35a  :     0.025899 (c=  0.16093280)
    34a ->  36a  :     0.918861 (c= -0.95857229)
    34a ->  57a  :     0.014043 (c= -0.11850392)

STATE  5:  E=   0.212578 au      5.785 eV    46655.6 cm**-1 <S**2> =   0.000000
    33a ->  35a  :     0.129267 (c= -0.35953757)
    34a ->  38a  :     0.803839 (c=  0.89657083)
    34a ->  39a  :     0.021513 (c=  0.14667417)

STATE  6:  E=   0.221526 au      6.028 eV    48619.4 cm**-1 <S**2> =   0.000000
    33a ->  35a  :     0.727173 (c=  0.85274415)
    33a ->  36a  :     0.033592 (c= -0.18328204)
    33a ->  43a  :     0.046656 (c=  0.21599952)
    34a ->  38a  :     0.142726 (c=  0.37779157)

STATE  7:  E=   0.222828 au      6.063 eV    48905.0 cm**-1 <S**2> =   0.000000
    34a ->  37a  :     0.066732 (c=  0.25832564)
    34a ->  40a  :     0.888301 (c=  0.94249718)

STATE  8:  E=   0.231780 au      6.307 eV    50869.7 cm**-1 <S**2> =   0.000000
    34a ->  35a  :     0.063661 (c= -0.25231091)
    34a ->  41a  :     0.165589 (c=  0.40692598)
    34a ->  43a  :     0.663595 (c=  0.81461320)
    34a ->  46a  :     0.048868 (c=  0.22106178)
    34a ->  66a  :     0.010735 (c= -0.10360746)

STATE  9:  E=   0.234583 au      6.383 eV    51485.0 cm**-1 <S**2> =   0.000000
    33a ->  36a  :     0.096843 (c= -0.31119559)
    34a ->  38a  :     0.020699 (c= -0.14387190)
    34a ->  39a  :     0.830264 (c=  0.91118835)

STATE 10:  E=   0.235664 au      6.413 eV    51722.4 cm**-1 <S**2> =   0.000000
    33a ->  38a  :     0.185844 (c=  0.43109605)
    34a ->  41a  :     0.645152 (c= -0.80321362)
    34a ->  43a  :     0.095309 (c=  0.30872158)
    34a ->  46a  :     0.022400 (c=  0.14966749)


-----------------------------
TD-DFT/TDA-EXCITATION SPECTRA
-----------------------------

Center of mass = (  0.8995, -0.1073, -0.0552)
Calculating the Dipole integrals                  ... done
Transforming integrals                            ... done
Calculating the Linear Momentum integrals         ... done
Transforming integrals                            ... done
Calculating angular momentum integrals            ... done
Transforming integrals                            ... done

-----------------------------------------------------------------------------
         ABSORPTION SPECTRUM VIA TRANSITION ELECTRIC DIPOLE MOMENTS
-----------------------------------------------------------------------------
State   Energy    Wavelength  fosc         T2        TX        TY        TZ  
        (cm-1)      (nm)                 (au**2)    (au)      (au)      (au) 
-----------------------------------------------------------------------------
   1   38795.2    257.8   0.173952075   1.47614   1.20430  -0.14271  -0.07378
   2   41816.0    239.1   0.000167299   0.00132  -0.00521  -0.00182  -0.03587
   3   45331.4    220.6   0.001590884   0.01155  -0.01064  -0.10641   0.01082
   4   45424.4    220.1   0.015268761   0.11066  -0.02378  -0.02590  -0.33079
   5   46655.6    214.3   0.000000071   0.00000   0.00048  -0.00023  -0.00047
   6   48619.4    205.7   0.000051161   0.00035  -0.01821   0.00370   0.00102
   7   48905.0    204.5   0.047253604   0.31810  -0.55877   0.06892   0.03353
   8   50869.7    196.6   0.000654476   0.00424   0.00604   0.01056   0.06393
   9   51485.0    194.2   0.000027358   0.00017  -0.00330   0.00297   0.01246
  10   51722.4    193.3   0.008301354   0.05284  -0.01397  -0.00406  -0.22940

-----------------------------------------------------------------------------
         ABSORPTION SPECTRUM VIA TRANSITION VELOCITY DIPOLE MOMENTS
-----------------------------------------------------------------------------
State   Energy    Wavelength   fosc        P2         PX        PY        PZ  
        (cm-1)      (nm)                 (au**2)     (au)      (au)      (au) 
-----------------------------------------------------------------------------
   1   38795.2    257.8   0.047924646   0.01271  -0.11174   0.01316   0.00688
   2   41816.0    239.1   0.001087991   0.00031   0.00143   0.00141   0.01752
   3   45331.4    220.6   0.002909199   0.00090  -0.00351  -0.02973   0.00230
   4   45424.4    220.1   0.009869921   0.00306   0.00381   0.00418   0.05507
   5   46655.6    214.3   0.000000108   0.00000  -0.00003  -0.00008   0.00016
   6   48619.4    205.7   0.000026777   0.00001   0.00294  -0.00043  -0.00022
   7   48905.0    204.5   0.027705240   0.00926   0.09536  -0.01156  -0.00575
   8   50869.7    196.6   0.000136868   0.00005  -0.00070  -0.00106  -0.00678
   9   51485.0    194.2   0.000017419   0.00001   0.00045  -0.00045  -0.00239
  10   51722.4    193.3   0.005574543   0.00197   0.00294   0.00200   0.04425

-------------------------------------------------------------------
                             CD SPECTRUM
-------------------------------------------------------------------
State  Energy     Wavelength     R         MX        MY        MZ   
       (cm-1)       (nm)     (1e40*cgs)   (au)      (au)      (au)  
-------------------------------------------------------------------
   1   38795.2    257.8     -0.13605  -0.00044  -0.00156  -0.00033
   2   41816.0    239.1     -0.03827  -0.01536  -0.13065   0.01111
   3   45331.4    220.6      0.18152   0.01949   0.02241   0.27521
   4   45424.4    220.1     -0.27042  -0.02394  -0.20631   0.01961
   5   46655.6    214.3      0.00891   0.03554  -0.00460  -0.00181
   6   48619.4    205.7      2.21831  -0.25149   0.02975   0.01481
   7   48905.0    204.5     -1.84499   0.00685  -0.00058  -0.00135
   8   50869.7    196.6     -0.02907   0.00098   0.00840  -0.00244
   9   51485.0    194.2      0.35722  -0.16466   0.03785   0.00821
  10   51722.4    193.3     -1.62668  -0.04847  -0.33835   0.02397

-------------------------------------------------------------------
         CD SPECTRUM VIA TRANSITION VELOCITY DIPOLE MOMENTS        
-------------------------------------------------------------------
State  Energy     Wavelength     R         MX        MY        MZ   
       (cm-1)       (nm)     (1e40*cgs)   (au)      (au)      (au)  
-------------------------------------------------------------------
   1   38795.2    257.8      0.07175  -0.00044  -0.00156  -0.00033
   2   41816.0    239.1     -0.02811  -0.01536  -0.13065   0.01111
   3   45331.4    220.6     -0.23278   0.01949   0.02241   0.27521
   4   45424.4    220.1      0.28686  -0.02394  -0.20631   0.01961
   5   46655.6    214.3     -0.00230   0.03554  -0.00460  -0.00181
   6   48619.4    205.7     -1.60958  -0.25149   0.02975   0.01481
   7   48905.0    204.5      1.41290   0.00685  -0.00058  -0.00135
   8   50869.7    196.6      0.01420   0.00098   0.00840  -0.00244
   9   51485.0    194.2     -0.22172  -0.16466   0.03785   0.00821
  10   51722.4    193.3      0.48160  -0.04847  -0.33835   0.02397

Total run time:      163.109 sec

           *** ORCA-CIS/TD-DFT FINISHED WITHOUT ERROR ***

Maximum memory used throughout the entire CIS-calculation: 261.7 MB

-----------------------
CIS/TD-DFT TOTAL ENERGY
-----------------------

    E(SCF)  =   -454.385617946 Eh
    DE(CIS) =      0.176764055 Eh (Root  1)
    ----------------------------- ---------
    E(tot)  =   -454.208853891 Eh



-------------------------------------------------------------------------------
                          DFT DISPERSION CORRECTION                            
                                                                               
                              DFTD3 V3.1  Rev 1                                
                          USING Becke-Johnson damping                          
-------------------------------------------------------------------------------
The B2PLYP functional is recognized
Active option DFTDOPT                   ...         4   

molecular C6(AA) [au] = 3200.522704 


            DFT-D V3
 parameters
 s6 scaling factor         :     0.6400 
 a1 scaling factor         :     0.3065 
 s8 scaling factor         :     0.9147 
 a2 scaling factor         :     5.0570 
 ad hoc parameters k1-k3   :    16.0000     1.3333    -4.0000 

 Edisp/kcal,au: -8.753696902483  -0.013949902480 
 E6   /kcal   :  -4.877365404 
 E8   /kcal   :  -3.876331498 
 % E8         :  44.282222032 

-------------------------   ----------------
Dispersion correction           -0.013949902
-------------------------   ----------------


-------------------------   --------------------
FINAL SINGLE POINT ENERGY      -454.222803793471
-------------------------   --------------------


                            ***************************************
                            *     ORCA property calculations      *
                            ***************************************


  WARNING: The energy has been calculated at the MP2 level but the densities
           used in the property calculations are still SCF densities
           MP2 response densities have not been calculated 
           use %mp2 Density relaxed end
           or  %mp2 Density unrelaxed end

                                    ---------------------
                                    Active property flags
                                    ---------------------
   (+) Dipole Moment


------------------------------------------------------------------------------
                       ORCA ELECTRIC PROPERTIES CALCULATION
------------------------------------------------------------------------------

Dipole Moment Calculation                       ... on
Quadrupole Moment Calculation                   ... off
Polarizability Calculation                      ... off
GBWName                                         ... optpbed3-b2plyp-test-31_job2.gbw
Electron density                                ... optpbed3-b2plyp-test-31_job2.scfp
The origin for moment calculation is the CENTER OF MASS  = ( 0.899479, -0.107307 -0.055189)

-------------
DIPOLE MOMENT
-------------
                                X             Y             Z
Electronic contribution:      4.79136      -0.57144      -0.29417
Nuclear contribution   :     -6.28607       0.74996       0.38659
                        -----------------------------------------
Total Dipole Moment    :     -1.49471       0.17852       0.09243
                        -----------------------------------------
Magnitude (a.u.)       :      1.50817
Magnitude (Debye)      :      3.83346



--------------------
Rotational spectrum 
--------------------
 
Rotational constants in cm-1:     0.130351     0.035000     0.027591 
Rotational constants in MHz :  3907.829213  1049.270893   827.171614 

 Dipole components along the rotational axes: 
x,y,z [a.u.] :     1.508169    -0.000023    -0.001568 
x,y,z [Debye]:     3.833460    -0.000059    -0.003986 

 

Timings for individual modules:

Sum of individual times         ...      405.021 sec (=   6.750 min)
GTO integral calculation        ...        2.743 sec (=   0.046 min)   0.7 %
SCF iterations                  ...      181.776 sec (=   3.030 min)  44.9 %
MP2 module                      ...       54.405 sec (=   0.907 min)  13.4 %
CIS module                      ...      166.098 sec (=   2.768 min)  41.0 %



                             ****ORCA TERMINATED NORMALLY****
TOTAL RUN TIME: 0 days 0 hours 19 minutes 48 seconds 906 msec
