
                                 *****************
                                 * O   R   C   A *
                                 *****************

                                            #,                                       
                                            ###                                      
                                            ####                                     
                                            #####                                    
                                            ######                                   
                                           ########,                                 
                                     ,,################,,,,,                         
                               ,,#################################,,                 
                          ,,##########################################,,             
                       ,#########################################, ''#####,          
                    ,#############################################,,   '####,        
                  ,##################################################,,,,####,       
                ,###########''''           ''''###############################       
              ,#####''   ,,,,##########,,,,          '''####'''          '####       
            ,##' ,,,,###########################,,,                        '##       
           ' ,,###''''                  '''############,,,                           
         ,,##''                                '''############,,,,        ,,,,,,###''
      ,#''                                            '''#######################'''  
     '                                                          ''''####''''         
             ,#######,   #######,   ,#######,      ##                                
            ,#'     '#,  ##    ##  ,#'     '#,    #''#        ######   ,####,        
            ##       ##  ##   ,#'  ##            #'  '#       #        #'  '#        
            ##       ##  #######   ##           ,######,      #####,   #    #        
            '#,     ,#'  ##    ##  '#,     ,#' ,#      #,         ##   #,  ,#        
             '#######'   ##     ##  '#######'  #'      '#     #####' # '####'        



                  #######################################################
                  #                        -***-                        #
                  #          Department of theory and spectroscopy      #
                  #    Directorship and core code : Frank Neese         #
                  #        Max Planck Institute fuer Kohlenforschung    #
                  #                Kaiser Wilhelm Platz 1               #
                  #                 D-45470 Muelheim/Ruhr               #
                  #                      Germany                        #
                  #                                                     #
                  #                  All rights reserved                #
                  #                        -***-                        #
                  #######################################################


                         Program Version 5.0.2 -  RELEASE  -


 With contributions from (in alphabetic order):
   Daniel Aravena         : Magnetic Suceptibility
   Michael Atanasov       : Ab Initio Ligand Field Theory (pilot matlab implementation)
   Alexander A. Auer      : GIAO ZORA, VPT2 properties, NMR spectrum
   Ute Becker             : Parallelization
   Giovanni Bistoni       : ED, misc. LED, open-shell LED, HFLD
   Martin Brehm           : Molecular dynamics
   Dmytro Bykov           : SCF Hessian
   Vijay G. Chilkuri      : MRCI spin determinant printing, contributions to CSF-ICE
   Dipayan Datta          : RHF DLPNO-CCSD density
   Achintya Kumar Dutta   : EOM-CC, STEOM-CC
   Dmitry Ganyushin       : Spin-Orbit,Spin-Spin,Magnetic field MRCI
   Miquel Garcia          : C-PCM and meta-GGA Hessian, CC/C-PCM, Gaussian charge scheme
   Yang Guo               : DLPNO-NEVPT2, F12-NEVPT2, CIM, IAO-localization
   Andreas Hansen         : Spin unrestricted coupled pair/coupled cluster methods
   Benjamin Helmich-Paris : MC-RPA, TRAH-SCF, COSX integrals
   Lee Huntington         : MR-EOM, pCC
   Robert Izsak           : Overlap fitted RIJCOSX, COSX-SCS-MP3, EOM
   Marcus Kettner         : VPT2
   Christian Kollmar      : KDIIS, OOCD, Brueckner-CCSD(T), CCSD density, CASPT2, CASPT2-K
   Simone Kossmann        : Meta GGA functionals, TD-DFT gradient, OOMP2, MP2 Hessian
   Martin Krupicka        : Initial AUTO-CI
   Lucas Lang             : DCDCAS
   Marvin Lechner         : AUTO-CI (C++ implementation), FIC-MRCC
   Dagmar Lenk            : GEPOL surface, SMD
   Dimitrios Liakos       : Extrapolation schemes; Compound Job, initial MDCI parallelization
   Dimitrios Manganas     : Further ROCIS development; embedding schemes
   Dimitrios Pantazis     : SARC Basis sets
   Anastasios Papadopoulos: AUTO-CI, single reference methods and gradients
   Taras Petrenko         : DFT Hessian,TD-DFT gradient, ASA, ECA, R-Raman, ABS, FL, XAS/XES, NRVS
   Peter Pinski           : DLPNO-MP2, DLPNO-MP2 Gradient
   Christoph Reimann      : Effective Core Potentials
   Marius Retegan         : Local ZFS, SOC
   Christoph Riplinger    : Optimizer, TS searches, QM/MM, DLPNO-CCSD(T), (RO)-DLPNO pert. Triples
   Tobias Risthaus        : Range-separated hybrids, TD-DFT gradient, RPA, STAB
   Michael Roemelt        : Original ROCIS implementation
   Masaaki Saitow         : Open-shell DLPNO-CCSD energy and density
   Barbara Sandhoefer     : DKH picture change effects
   Avijit Sen             : IP-ROCIS
   Kantharuban Sivalingam : CASSCF convergence, NEVPT2, FIC-MRCI
   Bernardo de Souza      : ESD, SOC TD-DFT
   Georgi Stoychev        : AutoAux, RI-MP2 NMR, DLPNO-MP2 response
   Willem Van den Heuvel  : Paramagnetic NMR
   Boris Wezisla          : Elementary symmetry handling
   Frank Wennmohs         : Technical directorship


 We gratefully acknowledge several colleagues who have allowed us to
 interface, adapt or use parts of their codes:
   Stefan Grimme, W. Hujo, H. Kruse, P. Pracht,  : VdW corrections, initial TS optimization,
                  C. Bannwarth, S. Ehlert          DFT functionals, gCP, sTDA/sTD-DF
   Ed Valeev, F. Pavosevic, A. Kumar             : LibInt (2-el integral package), F12 methods
   Garnet Chan, S. Sharma, J. Yang, R. Olivares  : DMRG
   Ulf Ekstrom                                   : XCFun DFT Library
   Mihaly Kallay                                 : mrcc  (arbitrary order and MRCC methods)
   Jiri Pittner, Ondrej Demel                    : Mk-CCSD
   Frank Weinhold                                : gennbo (NPA and NBO analysis)
   Christopher J. Cramer and Donald G. Truhlar   : smd solvation model
   Lars Goerigk                                  : TD-DFT with DH, B97 family of functionals
   V. Asgeirsson, H. Jonsson                     : NEB implementation
   FAccTs GmbH                                   : IRC, NEB, NEB-TS, DLPNO-Multilevel, CI-OPT
                                                   MM, QMMM, 2- and 3-layer-ONIOM, Crystal-QMMM,
                                                   LR-CPCM, SF, NACMEs, symmetry and pop. for TD-DFT,
                                                   nearIR, NL-DFT gradient (VV10), updates on ESD,
                                                   ML-optimized integration grids
   S Lehtola, MJT Oliveira, MAL Marques          : LibXC Library
   Liviu Ungur et al                             : ANISO software


 Your calculation uses the libint2 library for the computation of 2-el integrals
 For citations please refer to: http://libint.valeyev.net

 Your ORCA version has been built with support for libXC version: 5.1.0
 For citations please refer to: https://tddft.org/programs/libxc/

 This ORCA versions uses:
   CBLAS   interface :  Fast vector & matrix operations
   LAPACKE interface :  Fast linear algebra routines
   SCALAPACK package :  Parallel linear algebra routines
   Shared memory     :  Shared parallel matrices
   BLAS/LAPACK       :  OpenBLAS 0.3.15  USE64BITINT DYNAMIC_ARCH NO_AFFINITY Haswell SINGLE_THREADED
        Core in use  :  Haswell
   Copyright (c) 2011-2014, The OpenBLAS Project


Your calculation utilizes the atom-pairwise dispersion correction
with the Becke-Johnson damping scheme (D3BJ)
Cite in your paper:
S.Grimme, S.Ehrlich, L.Goerigk, J Comput Chem, (2011), 32, 1456–1465 
S.Grimme, J.Antony, S.Ehrlich and H.Krieg, J.Chem.Phys., 132, (2010), 154104 
   

Your calculation utilizes the SMD solvation module
Please cite in your paper:
A.V. Marenich, C.J. Cramer, D.G. Truhlar J. Phys. Chem. B, 113, (2009), 6378 

================================================================================

----- Orbital basis set information -----
Your calculation utilizes the basis: aug-cc-pVTZ 
    H, B-Ne : Obtained from the ccRepo (grant-hill.group.shef.ac.uk/ccrepo) Feb. 2017
              R. A. Kendall, T. H. Dunning, Jr., R. J. Harrison, J. Chem. Phys. 96, 6796 (1992)
         He : Obtained from the ccRepo (grant-hill.group.shef.ac.uk/ccrepo) Feb. 2017
              D. E. Woon, T. H. Dunning, Jr., J. Chem. Phys. 100, 2975 (1994)
  Li-Be, Na : Obtained from the ccRepo (grant-hill.group.shef.ac.uk/ccrepo) Feb. 2017
              B. P. Prascher, D. E. Woon, K. A. Peterson, T. H. Dunning, Jr., A. K. Wilson, Theor. Chem. Acc. 128, 69 (2011)
         Mg : Obtained from the Peterson Research Group Website (tyr0.chem.wsu.edu/~kipeters) Feb. 2017
              B. P. Prascher, D. E. Woon, K. A. Peterson, T. H. Dunning, Jr., A. K. Wilson, Theor. Chem. Acc. 128, 69 (2011)
      Al-Ar : Obtained from the ccRepo (grant-hill.group.shef.ac.uk/ccrepo) Feb. 2017
              D. E. Woon, T. H. Dunning, Jr., J. Chem. Phys. 98, 1358 (1993)
      Sc-Zn : Obtained from the ccRepo (grant-hill.group.shef.ac.uk/ccrepo) Feb. 2017
              N. B. Balabanov, K. A. Peterson, J. Chem. Phys. 123, 064107 (2005)
              N. B. Balabanov, K. A. Peterson, J. Chem. Phys. 125, 074110 (2006)
      Ga-Kr : Obtained from the ccRepo (grant-hill.group.shef.ac.uk/ccrepo) Feb. 2017
              A. K. Wilson, D. E. Woon, K. A. Peterson, T. H. Dunning, Jr., J. Chem. Phys. 110, 7667 (1999)
     Ag, Au : Obtained from the Peterson Research Group Website (tyr0.chem.wsu.edu/~kipeters) Feb. 2017
              K. A. Peterson, C. Puzzarini, Theor. Chem. Acc. 114, 283 (2005)

The basis set includes element-specific modifications.

Your calculation utilizes the basis: cc-pVTZ 
       H, B-Ne : Obtained from the ccRepo (grant-hill.group.shef.ac.uk/ccrepo) Feb. 2017
                 T. H. Dunning, Jr., J. Chem. Phys. 90, 1007 (1989)
            He : Obtained from the ccRepo (grant-hill.group.shef.ac.uk/ccrepo) Feb. 2017
                 D. E. Woon, T. H. Dunning, Jr., J. Chem. Phys. 100, 2975 (1994)
  Li-Be, Na-Mg : Obtained from the ccRepo (grant-hill.group.shef.ac.uk/ccrepo) Feb. 2017
                 B. P. Prascher, D. E. Woon, K. A. Peterson, T. H. Dunning, Jr., A. K. Wilson, Theor. Chem. Acc. 128, 69 (2011)
         Al-Ar : Obtained from the ccRepo (grant-hill.group.shef.ac.uk/ccrepo) Feb. 2017
                 D. E. Woon, T. H. Dunning, Jr., J. Chem. Phys. 98, 1358 (1993)
            Ca : Obtained from the Peterson Research Group Website (tyr0.chem.wsu.edu/~kipeters) Feb. 2017
                 J. Koput, K. A. Peterson, J. Phys. Chem. 106, 9595 (2002)
         Sc-Zn : Obtained from the ccRepo (grant-hill.group.shef.ac.uk/ccrepo) Feb. 2017
                 N. B. Balabanov, K. A. Peterson, J. Chem. Phys. 123, 064107 (2005)
                 N. B. Balabanov, K. A. Peterson, J. Chem. Phys. 125, 074110 (2006)
         Ga-Kr : Obtained from the ccRepo (grant-hill.group.shef.ac.uk/ccrepo) Feb. 2017
                 A. K. Wilson, D. E. Woon, K. A. Peterson, T. H. Dunning, Jr., J. Chem. Phys. 110, 7667 (1999)
             Y : Obtained from the ccRepo (grant-hill.group.shef.ac.uk/ccrepo) Feb. 2017
                 K. A. Peterson, D. Figgen, M. Dolg, H. Stoll, J. Chem. Phys. 126, 124101 (2007)
        Ag, Au : Obtained from the Peterson Research Group Website (tyr0.chem.wsu.edu/~kipeters) Feb. 2017
                 K. A. Peterson, C. Puzzarini, Theor. Chem. Acc. 114, 283 (2005)

----- AuxJ basis set information -----
Your calculation utilizes the auxiliary basis: aug-cc-pVTZ/JK 
  H, B-F, Al-Cl, Ga-Br : Obtained from the TURBOMOLE 7.0 basis set library

The basis set includes element-specific modifications.

Your calculation utilizes the auxiliary basis: cc-pVTZ/JK 
  H, B-F, Al-Cl, Ga-Br : Obtained from the TURBOMOLE 7.0 basis set library

----- AuxC basis set information -----
Your calculation utilizes the auxiliary basis: aug-cc-pVTZ/C 
  H-He, B-F, Al-Ar, Ga-Kr : Obtained from the EMSL Basis Set Exchange (bse.pnl.gov) Feb. 2017
                            F. Weigend, A. Kohn, C. Hattig, J. Chem. Phys. 116, 3175 (2002)
                   Be, Mg : Obtained from the TURBOMOLE 7.0 basis set library
                            C. Haettig, Phys. Chem. Chem. Phys. 7, 59 (2005)
                       Ne : Obtained from the EMSL Basis Set Exchange (bse.pnl.gov) Feb. 2017
                            C. Haettig, Phys. Chem. Chem. Phys. 7, 59 (2005)
                            F. Weigend, A. Kohn, C. Hattig, J. Chem. Phys. 116, 3175 (2002)
                    Sc-Zn : Obtained from the EMSL Basis Set Exchange (bse.pnl.gov) Feb. 2017
                            J. G. Hill, J. A. Platts, J. Chem. Phys. 128, 044104 (2008)

The basis set includes element-specific modifications.

Your calculation utilizes the auxiliary basis: cc-pVTZ/C 
  Obtained from the EMSL Basis Set Exchange (bse.pnl.gov) Feb. 2017
  H-He, B-F, Al-Ar, Ga-Kr : F. Weigend, A. Kohn, C. Hattig, J. Chem. Phys. 116, 3175 (2002)
             Li-Be, Na-Mg : C. Haettig, Phys. Chem. Chem. Phys. 7, 59 (2005)
                       Ne : C. Haettig, Phys. Chem. Chem. Phys. 7, 59 (2005)
                            F. Weigend, A. Kohn, C. Hattig, J. Chem. Phys. 116, 3175 (2002)
                    Sc-Zn : J. G. Hill, J. A. Platts, J. Chem. Phys. 128, 044104 (2008)

================================================================================
                                        WARNINGS
                       Please study these warnings very carefully!
================================================================================


WARNING: Geometry Optimization
  ===> : Switching off AutoStart
         For restart on a previous wavefunction, please use MOREAD

INFO   : the flag for use of the SHARK integral package has been found!



***************************************
The coordinates will be read from file: 
***************************************


Your calculation utilizes the atom-pairwise dispersion correction
with the Becke-Johnson damping scheme (D3BJ)
Cite in your paper:
S.Grimme, S.Ehrlich, L.Goerigk, J Comput Chem, (2011), 32, 1456–1465 
S.Grimme, J.Antony, S.Ehrlich and H.Krieg, J.Chem.Phys., 132, (2010), 154104 
   

Your calculation utilizes the SMD solvation module
Please cite in your paper:
A.V. Marenich, C.J. Cramer, D.G. Truhlar J. Phys. Chem. B, 113, (2009), 6378 

================================================================================

----- Orbital basis set information -----
Your calculation utilizes the basis: aug-cc-pVTZ 
    H, B-Ne : Obtained from the ccRepo (grant-hill.group.shef.ac.uk/ccrepo) Feb. 2017
              R. A. Kendall, T. H. Dunning, Jr., R. J. Harrison, J. Chem. Phys. 96, 6796 (1992)
         He : Obtained from the ccRepo (grant-hill.group.shef.ac.uk/ccrepo) Feb. 2017
              D. E. Woon, T. H. Dunning, Jr., J. Chem. Phys. 100, 2975 (1994)
  Li-Be, Na : Obtained from the ccRepo (grant-hill.group.shef.ac.uk/ccrepo) Feb. 2017
              B. P. Prascher, D. E. Woon, K. A. Peterson, T. H. Dunning, Jr., A. K. Wilson, Theor. Chem. Acc. 128, 69 (2011)
         Mg : Obtained from the Peterson Research Group Website (tyr0.chem.wsu.edu/~kipeters) Feb. 2017
              B. P. Prascher, D. E. Woon, K. A. Peterson, T. H. Dunning, Jr., A. K. Wilson, Theor. Chem. Acc. 128, 69 (2011)
      Al-Ar : Obtained from the ccRepo (grant-hill.group.shef.ac.uk/ccrepo) Feb. 2017
              D. E. Woon, T. H. Dunning, Jr., J. Chem. Phys. 98, 1358 (1993)
      Sc-Zn : Obtained from the ccRepo (grant-hill.group.shef.ac.uk/ccrepo) Feb. 2017
              N. B. Balabanov, K. A. Peterson, J. Chem. Phys. 123, 064107 (2005)
              N. B. Balabanov, K. A. Peterson, J. Chem. Phys. 125, 074110 (2006)
      Ga-Kr : Obtained from the ccRepo (grant-hill.group.shef.ac.uk/ccrepo) Feb. 2017
              A. K. Wilson, D. E. Woon, K. A. Peterson, T. H. Dunning, Jr., J. Chem. Phys. 110, 7667 (1999)
     Ag, Au : Obtained from the Peterson Research Group Website (tyr0.chem.wsu.edu/~kipeters) Feb. 2017
              K. A. Peterson, C. Puzzarini, Theor. Chem. Acc. 114, 283 (2005)

The basis set includes element-specific modifications.

Your calculation utilizes the basis: cc-pVTZ 
       H, B-Ne : Obtained from the ccRepo (grant-hill.group.shef.ac.uk/ccrepo) Feb. 2017
                 T. H. Dunning, Jr., J. Chem. Phys. 90, 1007 (1989)
            He : Obtained from the ccRepo (grant-hill.group.shef.ac.uk/ccrepo) Feb. 2017
                 D. E. Woon, T. H. Dunning, Jr., J. Chem. Phys. 100, 2975 (1994)
  Li-Be, Na-Mg : Obtained from the ccRepo (grant-hill.group.shef.ac.uk/ccrepo) Feb. 2017
                 B. P. Prascher, D. E. Woon, K. A. Peterson, T. H. Dunning, Jr., A. K. Wilson, Theor. Chem. Acc. 128, 69 (2011)
         Al-Ar : Obtained from the ccRepo (grant-hill.group.shef.ac.uk/ccrepo) Feb. 2017
                 D. E. Woon, T. H. Dunning, Jr., J. Chem. Phys. 98, 1358 (1993)
            Ca : Obtained from the Peterson Research Group Website (tyr0.chem.wsu.edu/~kipeters) Feb. 2017
                 J. Koput, K. A. Peterson, J. Phys. Chem. 106, 9595 (2002)
         Sc-Zn : Obtained from the ccRepo (grant-hill.group.shef.ac.uk/ccrepo) Feb. 2017
                 N. B. Balabanov, K. A. Peterson, J. Chem. Phys. 123, 064107 (2005)
                 N. B. Balabanov, K. A. Peterson, J. Chem. Phys. 125, 074110 (2006)
         Ga-Kr : Obtained from the ccRepo (grant-hill.group.shef.ac.uk/ccrepo) Feb. 2017
                 A. K. Wilson, D. E. Woon, K. A. Peterson, T. H. Dunning, Jr., J. Chem. Phys. 110, 7667 (1999)
             Y : Obtained from the ccRepo (grant-hill.group.shef.ac.uk/ccrepo) Feb. 2017
                 K. A. Peterson, D. Figgen, M. Dolg, H. Stoll, J. Chem. Phys. 126, 124101 (2007)
        Ag, Au : Obtained from the Peterson Research Group Website (tyr0.chem.wsu.edu/~kipeters) Feb. 2017
                 K. A. Peterson, C. Puzzarini, Theor. Chem. Acc. 114, 283 (2005)

----- AuxJ basis set information -----
Your calculation utilizes the auxiliary basis: aug-cc-pVTZ/JK 
  H, B-F, Al-Cl, Ga-Br : Obtained from the TURBOMOLE 7.0 basis set library

The basis set includes element-specific modifications.

Your calculation utilizes the auxiliary basis: cc-pVTZ/JK 
  H, B-F, Al-Cl, Ga-Br : Obtained from the TURBOMOLE 7.0 basis set library

----- AuxC basis set information -----
Your calculation utilizes the auxiliary basis: aug-cc-pVTZ/C 
  H-He, B-F, Al-Ar, Ga-Kr : Obtained from the EMSL Basis Set Exchange (bse.pnl.gov) Feb. 2017
                            F. Weigend, A. Kohn, C. Hattig, J. Chem. Phys. 116, 3175 (2002)
                   Be, Mg : Obtained from the TURBOMOLE 7.0 basis set library
                            C. Haettig, Phys. Chem. Chem. Phys. 7, 59 (2005)
                       Ne : Obtained from the EMSL Basis Set Exchange (bse.pnl.gov) Feb. 2017
                            C. Haettig, Phys. Chem. Chem. Phys. 7, 59 (2005)
                            F. Weigend, A. Kohn, C. Hattig, J. Chem. Phys. 116, 3175 (2002)
                    Sc-Zn : Obtained from the EMSL Basis Set Exchange (bse.pnl.gov) Feb. 2017
                            J. G. Hill, J. A. Platts, J. Chem. Phys. 128, 044104 (2008)

The basis set includes element-specific modifications.

Your calculation utilizes the auxiliary basis: cc-pVTZ/C 
  Obtained from the EMSL Basis Set Exchange (bse.pnl.gov) Feb. 2017
  H-He, B-F, Al-Ar, Ga-Kr : F. Weigend, A. Kohn, C. Hattig, J. Chem. Phys. 116, 3175 (2002)
             Li-Be, Na-Mg : C. Haettig, Phys. Chem. Chem. Phys. 7, 59 (2005)
                       Ne : C. Haettig, Phys. Chem. Chem. Phys. 7, 59 (2005)
                            F. Weigend, A. Kohn, C. Hattig, J. Chem. Phys. 116, 3175 (2002)
                    Sc-Zn : J. G. Hill, J. A. Platts, J. Chem. Phys. 128, 044104 (2008)

================================================================================
                                        WARNINGS
                       Please study these warnings very carefully!
================================================================================

INFO   : Checking CIS options ...
  ===> : (D) CORRECTION FOUND - SETTING MODE=3
  ===> : JK MODE FOUND - ACTIVATING RI-MP2 CODE
  ===> : MP2 AND CIS FOUND - CHECKING
WARNING: CIS(D) and MP2 runs must have the same orbital window
  ===> : adjusting orbital windows

WARNING: No MP2 level density has been requested!
         To caclulate MP2 level properties use
         %mp2 Density relaxed end
         or
         %mp2 Density unrelaxed end
         Otherwise for double-hybrid DFT only the energy is correct!

WARNING: The frozen-core approximation is turned on by default for 
         the MP2 part of double-hybrid DFT.

INFO   : the flag for use of the SHARK integral package has been found!

================================================================================
                                       INPUT FILE
================================================================================
NAME = optpbed3-b2plyp-test-80.inp
|  1> ! pbe0 d3bj aug-cc-PVTZ RIJCOSX Opt
|  2> %maxcore 4000
|  3> %basis
|  4>  AuxJ "aug-cc-PVTZ/JK"
|  5>  AuxC "aug-cc-PVTZ/C"
|  6>  newGTO H "cc-PVTZ" end
|  7>  newAuxJGTO H "cc-PVTZ/JK" end
|  8>  newAuxCGTO H "cc-PVTZ/C" end
|  9> end
| 10> %cpcm
| 11>  SMD true
| 12>  SMDsolvent "n-hexane"
| 13> end
| 14> %pal nprocs 4 end
| 15> * xyz 0 1
| 16> C          5.52630       -1.07520       -0.52100
| 17> C          4.52730        0.03070       -0.20940
| 18> C          3.99730        0.70360       -1.46490
| 19> S          3.03530       -0.45300       -2.50050
| 20> C          1.53090       -0.80580       -1.72970
| 21> C          0.92170       -2.05790       -1.98520
| 22> C         -0.27150       -2.07330       -1.31890
| 23> C         -0.41030       -0.81430       -0.68430
| 24> N          0.72730       -0.06350       -0.94790
| 25> B          0.93720        1.35730       -0.36850
| 26> F          1.93550        1.34800        0.59270
| 27> F          1.26570        2.24760       -1.37250
| 28> N         -0.37660        1.79900        0.30670
| 29> C         -0.64840        3.00440        0.82920
| 30> S          0.51750        4.30340        0.71400
| 31> C         -0.35850        5.46760        1.55910
| 32> N         -0.93000        6.28090        2.12990
| 33> C         -1.92220        3.00460        1.41020
| 34> C         -2.43340        1.73540        1.22850
| 35> C         -1.45780        0.98470        0.54470
| 36> C         -1.48000       -0.33050        0.06100
| 37> C         -2.65450       -1.17330        0.31850
| 38> C         -3.35590       -1.76370       -0.73010
| 39> C         -4.46300       -2.55100       -0.47220
| 40> C         -4.87850       -2.76480        0.83170
| 41> C         -4.18670       -2.17950        1.87940
| 42> C         -3.08560       -1.38270        1.62680
| 43> H          5.88130       -1.53330        0.39860
| 44> H          5.06490       -1.84660       -1.13410
| 45> H          6.38300       -0.67610       -1.06010
| 46> H          3.69330       -0.37060        0.36810
| 47> H          5.00290        0.80150        0.40070
| 48> H          4.81350        1.00330       -2.12320
| 49> H          3.38680        1.57030       -1.24080
| 50> H          1.36290       -2.82970       -2.58310
| 51> H         -0.98040       -2.87520       -1.26320
| 52> H         -2.38890        3.84100        1.89060
| 53> H         -3.39670        1.37830        1.53340
| 54> H         -3.04460       -1.57850       -1.74740
| 55> H         -5.00430       -2.99810       -1.29260
| 56> H         -5.74030       -3.38370        1.03060
| 57> H         -4.50630       -2.34380        2.89760
| 58> H         -2.53660       -0.93690        2.44270
| 59> *
| 60> 
| 61> 
| 62> $new_job
| 63> ! b2plyp aug-cc-PVTZ RIJCOSX SP
| 64> %maxcore 4000
| 65> %basis
| 66>  AuxJ "aug-cc-PVTZ/JK"
| 67>  AuxC "aug-cc-PVTZ/C"
| 68>  newGTO H "cc-PVTZ" end
| 69>  newAuxJGTO H "cc-PVTZ/JK" end
| 70>  newAuxCGTO H "cc-PVTZ/C" end
| 71> end
| 72> %cpcm
| 73>  SMD true
| 74>  SMDsolvent "n-hexane"
| 75> end
| 76> %pal nprocs 4 end
| 77> %tddft
| 78>  nroots 10
| 79>  maxdim 7
| 80> end
| 81> * xyzfile 0 1
| 82> 
| 83>                          ****END OF INPUT****
================================================================================


                 $$$$$$$$$$$$$$$$$$$$$$$$$$$$$$$$$$$$$$$$$$$$$$ 
                 $ THERE ARE  2 JOBS TO BE PROCESSED THIS RUN $
                 $$$$$$$$$$$$$$$$$$$$$$$$$$$$$$$$$$$$$$$$$$$$$$ 




                 $$$$$$$$$$$$$$$$  JOB NUMBER  1 $$$$$$$$$$$$$$


                       *****************************
                       * Geometry Optimization Run *
                       *****************************

Geometry optimization settings:
Update method            Update   .... BFGS
Choice of coordinates    CoordSys .... Z-matrix Internals
Initial Hessian          InHess   .... Almoef's Model

Convergence Tolerances:
Energy Change            TolE     ....  5.0000e-06 Eh
Max. Gradient            TolMAXG  ....  3.0000e-04 Eh/bohr
RMS Gradient             TolRMSG  ....  1.0000e-04 Eh/bohr
Max. Displacement        TolMAXD  ....  4.0000e-03 bohr
RMS Displacement         TolRMSD  ....  2.0000e-03 bohr
Strict Convergence                ....  False
------------------------------------------------------------------------------
                        ORCA OPTIMIZATION COORDINATE SETUP
------------------------------------------------------------------------------

The optimization will be done in new redundant internal coordinates
Making redundant internal coordinates   ...  (new redundants) done
Evaluating the initial hessian          ...  (Almloef) done
Evaluating the coordinates              ...  done
Calculating the B-matrix                .... done
Calculating the G-matrix                .... done
Diagonalizing the G-matrix              .... done
Small eigenvalue found = 3.398e-03
Small eigenvalue found = 5.130e-03
Small eigenvalue found = 5.971e-03
Small eigenvalue found = 1.050e-02
Small eigenvalue found = 1.442e-02
Small eigenvalue found = 2.433e-02
Small eigenvalue found = 2.886e-02
The first mode is                       ....  115
The number of degrees of freedom        ....  123

    -----------------------------------------------------------------
                    Redundant Internal Coordinates


    -----------------------------------------------------------------
         Definition                    Initial Value    Approx d2E/dq
    -----------------------------------------------------------------
      1. B(C   1,C   0)                  1.5225         0.383962   
      2. B(C   2,C   1)                  1.5199         0.387753   
      3. B(S   3,C   2)                  1.8264         0.339080   
      4. B(C   4,S   3)                  1.7268         0.488846   
      5. B(C   5,C   4)                  1.4157         0.568542   
      6. B(C   6,C   5)                  1.3667         0.680586   
      7. B(C   7,C   6)                  1.4167         0.566404   
      8. B(N   8,C   7)                  1.3883         0.563146   
      9. B(N   8,C   4)                  1.3446         0.661123   
     10. B(B   9,N   8)                  1.5487         0.361840   
     11. B(F  10,B   9)                  1.3859         0.611501   
     12. B(F  11,B   9)                  1.3815         0.621346   
     13. B(N  12,B   9)                  1.5418         0.371149   
     14. B(C  13,N  12)                  1.3416         0.668508   
     15. B(S  14,C  13)                  1.7493         0.450082   
     16. B(C  15,S  14)                  1.6843         0.571398   
     17. B(N  16,C  15)                  1.1462         1.370150   
     18. B(C  17,C  13)                  1.4000         0.602160   
     19. B(C  18,C  17)                  1.3803         0.647478   
     20. B(C  19,C  18)                  1.4082         0.584464   
     21. B(C  19,N  12)                  1.3743         0.592804   
     22. B(C  20,C  19)                  1.4015         0.598945   
     23. B(C  20,C   7)                  1.3906         0.623401   
     24. B(C  21,C  20)                  1.4684         0.468519   
     25. B(C  22,C  21)                  1.3929         0.618236   
     26. B(C  23,C  22)                  1.3828         0.641638   
     27. B(C  24,C  23)                  1.3851         0.636142   
     28. B(C  25,C  24)                  1.3852         0.635861   
     29. B(C  26,C  25)                  1.3824         0.642411   
     30. B(C  26,C  21)                  1.3933         0.617219   
     31. B(H  27,C   0)                  1.0870         0.364105   
     32. B(H  28,C   0)                  1.0880         0.362697   
     33. B(H  29,C   0)                  1.0880         0.362694   
     34. B(H  30,C   1)                  1.0909         0.358887   
     35. B(H  31,C   1)                  1.0920         0.357412   
     36. B(H  32,C   2)                  1.0906         0.359336   
     37. B(H  33,C   2)                  1.0836         0.368722   
     38. B(H  34,C   5)                  1.0714         0.385619   
     39. B(H  35,C   6)                  1.0718         0.385046   
     40. B(H  36,C  17)                  1.0715         0.385394   
     41. B(H  37,C  18)                  1.0716         0.385213   
     42. B(H  38,C  22)                  1.0799         0.373762   
     43. B(H  39,C  23)                  1.0798         0.373854   
     44. B(H  40,C  24)                  1.0795         0.374276   
     45. B(H  41,C  25)                  1.0798         0.373912   
     46. B(H  42,C  26)                  1.0797         0.373936   
     47. A(C   1,C   0,H  27)          110.3199         0.326378   
     48. A(H  27,C   0,H  29)          108.4582         0.291674   
     49. A(H  27,C   0,H  28)          108.4465         0.291675   
     50. A(C   1,C   0,H  29)          110.5854         0.326169   
     51. A(C   1,C   0,H  28)          110.6125         0.326170   
     52. A(H  28,C   0,H  29)          108.3463         0.291497   
     53. A(C   2,C   1,H  31)          107.5102         0.325909   
     54. A(C   2,C   1,H  30)          109.4853         0.326130   
     55. A(C   0,C   1,H  31)          109.9540         0.325383   
     56. A(C   0,C   1,C   2)          112.4162         0.367397   
     57. A(H  30,C   1,H  31)          107.2682         0.290344   
     58. A(C   0,C   1,H  30)          110.0453         0.325603   
     59. A(S   3,C   2,H  32)          103.0598         0.335258   
     60. A(C   1,C   2,H  32)          111.0583         0.326197   
     61. A(S   3,C   2,H  33)          109.0891         0.336700   
     62. A(C   1,C   2,S   3)          111.8206         0.378676   
     63. A(H  32,C   2,H  33)          109.0687         0.291826   
     64. A(C   1,C   2,H  33)          112.3188         0.327586   
     65. A(C   2,S   3,C   4)          109.5827         0.415702   
     66. A(S   3,C   4,N   8)          131.8681         0.441152   
     67. A(S   3,C   4,C   5)          118.3620         0.432154   
     68. A(C   5,C   4,N   8)          109.6346         0.429494   
     69. A(C   4,C   5,C   6)          107.3176         0.434581   
     70. A(C   4,C   5,H  34)          124.1013         0.351825   
     71. A(C   6,C   5,H  34)          128.5709         0.362747   
     72. A(C   5,C   6,C   7)          107.0916         0.434287   
     73. A(C   5,C   6,H  35)          127.6780         0.362655   
     74. A(C   7,C   6,H  35)          125.2279         0.351513   
     75. A(C   6,C   7,C  20)          128.6539         0.427495   
     76. A(C   6,C   7,N   8)          108.3774         0.417074   
     77. A(N   8,C   7,C  20)          122.9526         0.424272   
     78. A(C   7,N   8,B   9)          122.4238         0.386239   
     79. A(C   4,N   8,B   9)          130.0152         0.397228   
     80. A(C   4,N   8,C   7)          107.5518         0.425964   
     81. A(F  10,B   9,F  11)          109.6997         0.431280   
     82. A(N   8,B   9,F  11)          110.5828         0.394614   
     83. A(N   8,B   9,F  10)          110.5460         0.393511   
     84. A(F  11,B   9,N  12)          109.6496         0.396376   
     85. A(F  10,B   9,N  12)          108.1806         0.395267   
     86. A(N   8,B   9,N  12)          108.1303         0.362458   
     87. A(C  13,N  12,C  19)          107.7903         0.430760   
     88. A(B   9,N  12,C  19)          125.2038         0.391446   
     89. A(B   9,N  12,C  13)          126.9132         0.399786   
     90. A(S  14,C  13,C  17)          129.3180         0.430205   
     91. A(N  12,C  13,C  17)          110.2475         0.434819   
     92. A(N  12,C  13,S  14)          120.4328         0.435498   
     93. A(C  13,S  14,C  15)           97.6773         0.449850   
     94. L(S  14,C  15,N  16,C  13, 2) 179.9738         0.519230   
     95. L(S  14,C  15,N  16,C  13, 1) 181.6336         0.519230   
     96. A(C  13,C  17,C  18)          106.3916         0.435174   
     97. A(C  18,C  17,H  36)          127.9852         0.359639   
     98. A(C  13,C  17,H  36)          125.6223         0.355230   
     99. A(C  17,C  18,C  19)          107.3095         0.432845   
    100. A(C  17,C  18,H  37)          127.0035         0.359610   
    101. A(C  19,C  18,H  37)          125.6819         0.353411   
    102. A(N  12,C  19,C  18)          108.2568         0.423274   
    103. A(C  18,C  19,C  20)          131.0636         0.426835   
    104. A(N  12,C  19,C  20)          120.5788         0.425131   
    105. A(C  19,C  20,C  21)          119.3917         0.410343   
    106. A(C   7,C  20,C  21)          120.6364         0.413267   
    107. A(C   7,C  20,C  19)          119.9517         0.431802   
    108. A(C  22,C  21,C  26)          119.1689         0.433493   
    109. A(C  20,C  21,C  26)          119.8950         0.412536   
    110. A(C  20,C  21,C  22)          120.9345         0.412657   
    111. A(C  21,C  22,C  23)          120.2719         0.436532   
    112. A(C  23,C  22,H  38)          120.2757         0.357217   
    113. A(C  21,C  22,H  38)          119.4296         0.354971   
    114. A(C  22,C  23,C  24)          120.2410         0.438785   
    115. A(C  24,C  23,H  39)          120.0622         0.356710   
    116. A(C  22,C  23,H  39)          119.6967         0.357232   
    117. A(C  23,C  24,C  25)          119.7995         0.438069   
    118. A(C  25,C  24,H  40)          120.1054         0.356752   
    119. A(C  23,C  24,H  40)          120.0949         0.356779   
    120. A(C  24,C  25,C  26)          120.2065         0.438845   
    121. A(C  26,C  25,H  41)          119.7203         0.357315   
    122. A(C  24,C  25,H  41)          120.0732         0.356693   
    123. A(C  21,C  26,C  25)          120.3070         0.436497   
    124. A(C  25,C  26,H  42)          120.3236         0.357318   
    125. A(C  21,C  26,H  42)          119.3516         0.354900   
    126. D(H  31,C   1,C   0,H  27)     60.3605         0.011738   
    127. D(C   2,C   1,C   0,H  29)     60.1151         0.011738   
    128. D(H  31,C   1,C   0,H  29)    -59.6218         0.011738   
    129. D(C   2,C   1,C   0,H  27)   -179.9025         0.011738   
    130. D(C   2,C   1,C   0,H  28)    -59.9174         0.011738   
    131. D(H  30,C   1,C   0,H  29)   -177.5677         0.011738   
    132. D(H  31,C   1,C   0,H  28)   -179.6543         0.011738   
    133. D(H  30,C   1,C   0,H  27)    -57.5853         0.011738   
    134. D(H  30,C   1,C   0,H  28)     62.3998         0.011738   
    135. D(H  32,C   2,C   1,H  31)     70.9289         0.011959   
    136. D(H  32,C   2,C   1,C   0)    -50.2182         0.011959   
    137. D(S   3,C   2,C   1,H  31)   -174.5525         0.011959   
    138. D(S   3,C   2,C   1,H  30)    -58.3331         0.011959   
    139. D(H  33,C   2,C   1,H  31)    -51.5162         0.011959   
    140. D(H  33,C   2,C   1,H  30)     64.7032         0.011959   
    141. D(S   3,C   2,C   1,C   0)     64.3003         0.011959   
    142. D(H  33,C   2,C   1,C   0)   -172.6634         0.011959   
    143. D(H  32,C   2,C   1,H  30)   -172.8516         0.011959   
    144. D(C   4,S   3,C   2,H  32)   -169.3144         0.003333   
    145. D(C   4,S   3,C   2,H  33)    -53.5185         0.003333   
    146. D(C   4,S   3,C   2,C   1)     71.3317         0.003333   
    147. D(N   8,C   4,S   3,C   2)     33.0342         0.005034   
    148. D(C   5,C   4,S   3,C   2)   -151.6866         0.005034   
    149. D(H  34,C   5,C   4,N   8)   -179.9176         0.022169   
    150. D(C   6,C   5,C   4,N   8)     -0.9923         0.022169   
    151. D(C   6,C   5,C   4,S   3)   -177.2613         0.022169   
    152. D(H  34,C   5,C   4,S   3)      3.8134         0.022169   
    153. D(H  35,C   6,C   5,H  34)      0.9998         0.032473   
    154. D(H  35,C   6,C   5,C   4)   -177.8619         0.032473   
    155. D(C   7,C   6,C   5,H  34)   -179.5560         0.032473   
    156. D(C   7,C   6,C   5,C   4)      1.5822         0.032473   
    157. D(C  20,C   7,C   6,H  35)     -3.6239         0.021995   
    158. D(C  20,C   7,C   6,C   5)    176.9147         0.021995   
    159. D(N   8,C   7,C   6,H  35)    177.8212         0.021995   
    160. D(N   8,C   7,C   6,C   5)     -1.6402         0.021995   
    161. D(B   9,N   8,C   7,C  20)      3.3687         0.025344   
    162. D(C   4,N   8,C   7,C  20)   -177.6278         0.025344   
    163. D(C   4,N   8,C   7,C   6)      1.0273         0.025344   
    164. D(B   9,N   8,C   7,C   6)   -177.9762         0.025344   
    165. D(B   9,N   8,C   4,C   5)    178.8616         0.035778   
    166. D(C   7,N   8,C   4,C   5)     -0.0401         0.035778   
    167. D(C   7,N   8,C   4,S   3)    175.5499         0.035778   
    168. D(B   9,N   8,C   4,S   3)     -5.5484         0.035778   
    169. D(N  12,B   9,N   8,C   7)     -8.5256         0.009416   
    170. D(N  12,B   9,N   8,C   4)    172.7150         0.009416   
    171. D(F  11,B   9,N   8,C   7)   -128.5868         0.009416   
    172. D(F  11,B   9,N   8,C   4)     52.6538         0.009416   
    173. D(F  10,B   9,N   8,C   7)    109.7257         0.009416   
    174. D(F  10,B   9,N   8,C   4)    -69.0337         0.009416   
    175. D(C  19,N  12,B   9,F  10)   -109.7834         0.009865   
    176. D(C  19,N  12,B   9,N   8)      9.9677         0.009865   
    177. D(C  13,N  12,B   9,F  11)    -53.3221         0.009865   
    178. D(C  13,N  12,B   9,F  10)     66.2820         0.009865   
    179. D(C  19,N  12,B   9,F  11)    130.6126         0.009865   
    180. D(C  13,N  12,B   9,N   8)   -173.9670         0.009865   
    181. D(C  17,C  13,N  12,C  19)     -0.5393         0.036656   
    182. D(C  17,C  13,N  12,B   9)   -177.1635         0.036656   
    183. D(S  14,C  13,N  12,C  19)    179.8898         0.036656   
    184. D(S  14,C  13,N  12,B   9)      3.2656         0.036656   
    185. D(C  15,S  14,C  13,C  17)      2.1676         0.004473   
    186. D(C  15,S  14,C  13,N  12)   -178.3527         0.004473   
    187. D(C  18,C  17,C  13,S  14)    179.7026         0.025006   
    188. D(C  18,C  17,C  13,N  12)      0.1808         0.025006   
    189. D(H  36,C  17,C  13,S  14)      0.0367         0.025006   
    190. D(H  36,C  17,C  13,N  12)   -179.4851         0.025006   
    191. D(H  37,C  18,C  17,H  36)      0.6894         0.029174   
    192. D(H  37,C  18,C  17,C  13)   -178.9660         0.029174   
    193. D(C  19,C  18,C  17,H  36)    179.8972         0.029174   
    194. D(C  19,C  18,C  17,C  13)      0.2417         0.029174   
    195. D(C  20,C  19,C  18,H  37)      2.3759         0.023486   
    196. D(C  20,C  19,C  18,C  17)   -176.8452         0.023486   
    197. D(N  12,C  19,C  18,H  37)    178.6497         0.023486   
    198. D(N  12,C  19,C  18,C  17)     -0.5714         0.023486   
    199. D(C  20,C  19,N  12,C  13)    177.4200         0.028268   
    200. D(C  20,C  19,N  12,B   9)     -5.8832         0.028268   
    201. D(C  18,C  19,N  12,C  13)      0.6829         0.028268   
    202. D(C  18,C  19,N  12,B   9)    177.3797         0.028268   
    203. D(C  21,C  20,C  19,C  18)     -3.4757         0.024726   
    204. D(C  21,C  20,C  19,N  12)   -179.3647         0.024726   
    205. D(C   7,C  20,C  19,C  18)    174.8968         0.024726   
    206. D(C   7,C  20,C  19,N  12)     -0.9923         0.024726   
    207. D(C  21,C  20,C   7,N   8)   -179.4835         0.026910   
    208. D(C  21,C  20,C   7,C   6)      2.1509         0.026910   
    209. D(C  19,C  20,C   7,N   8)      2.1647         0.026910   
    210. D(C  19,C  20,C   7,C   6)   -176.2009         0.026910   
    211. D(C  26,C  21,C  20,C  19)    -55.9674         0.014948   
    212. D(C  26,C  21,C  20,C   7)    125.6716         0.014948   
    213. D(C  22,C  21,C  20,C  19)    123.5730         0.014948   
    214. D(C  22,C  21,C  20,C   7)    -54.7880         0.014948   
    215. D(H  38,C  22,C  21,C  26)    178.0451         0.026439   
    216. D(H  38,C  22,C  21,C  20)     -1.4986         0.026439   
    217. D(C  23,C  22,C  21,C  26)     -0.2232         0.026439   
    218. D(C  23,C  22,C  21,C  20)   -179.7669         0.026439   
    219. D(H  39,C  23,C  22,H  38)      1.2843         0.028614   
    220. D(H  39,C  23,C  22,C  21)    179.5378         0.028614   
    221. D(C  24,C  23,C  22,H  38)   -178.6228         0.028614   
    222. D(C  24,C  23,C  22,C  21)     -0.3693         0.028614   
    223. D(H  40,C  24,C  23,H  39)      0.3863         0.028094   
    224. D(H  40,C  24,C  23,C  22)   -179.7069         0.028094   
    225. D(C  25,C  24,C  23,H  39)   -179.4626         0.028094   
    226. D(C  25,C  24,C  23,C  22)      0.4443         0.028094   
    227. D(H  41,C  25,C  24,H  40)      0.1971         0.028067   
    228. D(H  41,C  25,C  24,C  23)   -179.9541         0.028067   
    229. D(C  26,C  25,C  24,H  40)   -179.7711         0.028067   
    230. D(C  26,C  25,C  24,C  23)      0.0778         0.028067   
    231. D(H  42,C  26,C  25,H  41)      0.8999         0.028688   
    232. D(H  42,C  26,C  25,C  24)   -179.1319         0.028688   
    233. D(C  21,C  26,C  25,H  41)    179.3564         0.028688   
    234. D(C  21,C  26,C  25,C  24)     -0.6754         0.028688   
    235. D(H  42,C  26,C  21,C  22)    179.2158         0.026347   
    236. D(H  42,C  26,C  21,C  20)     -1.2356         0.026347   
    237. D(C  25,C  26,C  21,C  22)      0.7444         0.026347   
    238. D(C  25,C  26,C  21,C  20)   -179.7071         0.026347   
    -----------------------------------------------------------------

Number of atoms                         .... 43
Number of degrees of freedom            .... 238

         *************************************************************
         *                GEOMETRY OPTIMIZATION CYCLE   1            *
         *************************************************************
---------------------------------
CARTESIAN COORDINATES (ANGSTROEM)
---------------------------------
  C      5.526300   -1.075200   -0.521000
  C      4.527300    0.030700   -0.209400
  C      3.997300    0.703600   -1.464900
  S      3.035300   -0.453000   -2.500500
  C      1.530900   -0.805800   -1.729700
  C      0.921700   -2.057900   -1.985200
  C     -0.271500   -2.073300   -1.318900
  C     -0.410300   -0.814300   -0.684300
  N      0.727300   -0.063500   -0.947900
  B      0.937200    1.357300   -0.368500
  F      1.935500    1.348000    0.592700
  F      1.265700    2.247600   -1.372500
  N     -0.376600    1.799000    0.306700
  C     -0.648400    3.004400    0.829200
  S      0.517500    4.303400    0.714000
  C     -0.358500    5.467600    1.559100
  N     -0.930000    6.280900    2.129900
  C     -1.922200    3.004600    1.410200
  C     -2.433400    1.735400    1.228500
  C     -1.457800    0.984700    0.544700
  C     -1.480000   -0.330500    0.061000
  C     -2.654500   -1.173300    0.318500
  C     -3.355900   -1.763700   -0.730100
  C     -4.463000   -2.551000   -0.472200
  C     -4.878500   -2.764800    0.831700
  C     -4.186700   -2.179500    1.879400
  C     -3.085600   -1.382700    1.626800
  H      5.881300   -1.533300    0.398600
  H      5.064900   -1.846600   -1.134100
  H      6.383000   -0.676100   -1.060100
  H      3.693300   -0.370600    0.368100
  H      5.002900    0.801500    0.400700
  H      4.813500    1.003300   -2.123200
  H      3.386800    1.570300   -1.240800
  H      1.362900   -2.829700   -2.583100
  H     -0.980400   -2.875200   -1.263200
  H     -2.388900    3.841000    1.890600
  H     -3.396700    1.378300    1.533400
  H     -3.044600   -1.578500   -1.747400
  H     -5.004300   -2.998100   -1.292600
  H     -5.740300   -3.383700    1.030600
  H     -4.506300   -2.343800    2.897600
  H     -2.536600   -0.936900    2.442700

----------------------------
CARTESIAN COORDINATES (A.U.)
----------------------------
  NO LB      ZA    FRAG     MASS         X           Y           Z
   0 C     6.0000    0    12.011   10.443194   -2.031834   -0.984547
   1 C     6.0000    0    12.011    8.555357    0.058015   -0.395709
   2 C     6.0000    0    12.011    7.553802    1.329611   -2.768260
   3 S    16.0000    0    32.060    5.735886   -0.856046   -4.725260
   4 C     6.0000    0    12.011    2.892982   -1.522741   -3.268659
   5 C     6.0000    0    12.011    1.741761   -3.888867   -3.751484
   6 C     6.0000    0    12.011   -0.513061   -3.917969   -2.492360
   7 C     6.0000    0    12.011   -0.775355   -1.538804   -1.293140
   8 N     7.0000    0    14.007    1.374398   -0.119998   -1.791271
   9 B     5.0000    0    10.810    1.771051    2.564925   -0.696364
  10 F     9.0000    0    18.998    3.657565    2.547351    1.120041
  11 F     9.0000    0    18.998    2.391826    4.247348   -2.593649
  12 N     7.0000    0    14.007   -0.711671    3.399617    0.579579
  13 C     6.0000    0    12.011   -1.225298    5.677493    1.566961
  14 S    16.0000    0    32.060    0.977933    8.132247    1.349264
  15 C     6.0000    0    12.011   -0.677467   10.332267    2.946272
  16 N     7.0000    0    14.007   -1.757445   11.869181    4.024928
  17 C     6.0000    0    12.011   -3.632432    5.677871    2.664892
  18 C     6.0000    0    12.011   -4.598460    3.279431    2.321529
  19 C     6.0000    0    12.011   -2.754843    1.860813    1.029334
  20 C     6.0000    0    12.011   -2.796795   -0.624554    0.115273
  21 C     6.0000    0    12.011   -5.016278   -2.217216    0.601878
  22 C     6.0000    0    12.011   -6.341732   -3.332910   -1.379689
  23 C     6.0000    0    12.011   -8.433848   -4.820691   -0.892329
  24 C     6.0000    0    12.011   -9.219029   -5.224715    1.571685
  25 C     6.0000    0    12.011   -7.911716   -4.118658    3.551551
  26 C     6.0000    0    12.011   -5.830939   -2.612924    3.074206
  27 H     1.0000    0     1.008   11.114046   -2.897517    0.753245
  28 H     1.0000    0     1.008    9.571274   -3.489568   -2.143138
  29 H     1.0000    0     1.008   12.062122   -1.277644   -2.003299
  30 H     1.0000    0     1.008    6.979326   -0.700333    0.695608
  31 H     1.0000    0     1.008    9.454111    1.514615    0.757213
  32 H     1.0000    0     1.008    9.096197    1.895962   -4.012267
  33 H     1.0000    0     1.008    6.400124    2.967437   -2.344772
  34 H     1.0000    0     1.008    2.575508   -5.347358   -4.881352
  35 H     1.0000    0     1.008   -1.852688   -5.433341   -2.387102
  36 H     1.0000    0     1.008   -4.514367    7.258438    3.572716
  37 H     1.0000    0     1.008   -6.418833    2.604610    2.897706
  38 H     1.0000    0     1.008   -5.753460   -2.982933   -3.302107
  39 H     1.0000    0     1.008   -9.456756   -5.665588   -2.442660
  40 H     1.0000    0     1.008  -10.847595   -6.394266    1.947552
  41 H     1.0000    0     1.008   -8.515673   -4.429140    5.475670
  42 H     1.0000    0     1.008   -4.793479   -1.770484    4.616034

--------------------------------
INTERNAL COORDINATES (ANGSTROEM)
--------------------------------
 C      0   0   0     0.000000000000     0.00000000     0.00000000
 C      1   0   0     1.522534193376     0.00000000     0.00000000
 C      2   1   0     1.519860079086   112.41619316     0.00000000
 S      3   2   1     1.826372065051   111.82058015    64.30031475
 C      4   3   2     1.726794672218   109.58271891    71.33169625
 C      5   4   3     1.415683333235   118.36200289   208.31335886
 C      6   5   4     1.366718365282   107.31759320   182.73865049
 C      7   6   5     1.416708720944   107.09159036     1.58221347
 N      5   4   3     1.344616484355   131.86814977    33.03418753
 B      9   5   4     1.548688157764   130.01521579   354.45161754
 F     10   9   5     1.385855266613   110.54599945   290.96630620
 F     10   9   5     1.381507271063   110.58281146    52.65378658
 N     10   9   5     1.541773125333   108.13033472   172.71498216
 C     13  10   9     1.341592579735   126.91316325   186.03299524
 S     14  13  10     1.749284096423   120.43276949     3.26562799
 C     15  14  13     1.684319343236    97.67726263   181.64726311
 N     16  15  14     1.146246823333   178.36631411   179.40312983
 C     14  13  10     1.400045527831   110.24752811   182.83653521
 C     18  14  13     1.380293073952   106.39158551     0.18081832
 C     13  10   9     1.374307800313   125.20384629     9.96768440
 C      8   7   6     1.390608722826   128.65392511   176.91466846
 C     21   8   7     1.468355658551   120.63635305     2.15094896
 C     22  21   8     1.392873318001   120.93452160   305.21202604
 C     23  22  21     1.382759599497   120.27186106   180.23310874
 C     24  23  22     1.385101404230   120.24104184   359.63067727
 C     25  24  23     1.385221505753   119.79951274     0.44425071
 C     26  25  24     1.382431991094   120.20652985     0.07781393
 H      1   2   3     1.086988854589   110.31992187   180.09745131
 H      1   2   3     1.088043900769   110.61253960   300.08263164
 H      1   2   3     1.088046189277   110.58543103    60.11512521
 H      2   1   3     1.090918851244   110.04534720   122.31721157
 H      2   1   3     1.092039381158   109.95397535   240.26309322
 H      3   2   1     1.090578479524   111.05826625   309.78176609
 H      3   2   1     1.083558927793   112.31878353   187.33661868
 H      6   5   4     1.071362258996   124.10130439     3.81337253
 H      7   6   5     1.071767376813   127.67796959   182.13807957
 H     18  14  13     1.071521353030   125.62225222   180.51491857
 H     19  18  14     1.071648874399   127.00346670   181.03395029
 H     23  22  21     1.079863889571   119.42964326   358.50137303
 H     24  23  22     1.079796397475   119.69669294   179.53782372
 H     25  24  23     1.079489536772   120.09487706   180.29314045
 H     26  25  24     1.079754550812   120.07320887   180.04594301
 H     27  26  25     1.079736750324   120.32363111   180.86813736

---------------------------
INTERNAL COORDINATES (A.U.)
---------------------------
 C      0   0   0     0.000000000000     0.00000000     0.00000000
 C      1   0   0     2.877172655012     0.00000000     0.00000000
 C      2   1   0     2.872119311353   112.41619316     0.00000000
 S      3   2   1     3.451343021591   111.82058015    64.30031475
 C      4   3   2     3.263169020006   109.58271891    71.33169625
 C      5   4   3     2.675253792171   118.36200289   208.31335886
 C      6   5   4     2.582723412584   107.31759320   182.73865049
 C      7   6   5     2.677191494123   107.09159036     1.58221347
 N      5   4   3     2.540956910588   131.86814977    33.03418753
 B      9   5   4     2.926596485022   130.01521579   354.45161754
 F     10   9   5     2.618886915152   110.54599945   290.96630620
 F     10   9   5     2.610670394330   110.58281146    52.65378658
 N     10   9   5     2.913528967520   108.13033472   172.71498216
 C     13  10   9     2.535242559000   126.91316325   186.03299524
 S     14  13  10     3.305667872664   120.43276949     3.26562799
 C     15  14  13     3.182902280783    97.67726263   181.64726311
 N     16  15  14     2.166092577976   178.36631411   179.40312983
 C     14  13  10     2.645702622622   110.24752811   182.83653521
 C     18  14  13     2.608375894318   106.39158551     0.18081832
 C     13  10   9     2.597065366303   125.20384629     9.96768440
 C      8   7   6     2.627869645583   128.65392511   176.91466846
 C     21   8   7     2.774790061856   120.63635305     2.15094896
 C     22  21   8     2.632149110269   120.93452160   305.21202604
 C     23  22  21     2.613036952099   120.27186106   180.23310874
 C     24  23  22     2.617462321705   120.24104184   359.63067727
 C     25  24  23     2.617689280691   119.79951274     0.44425071
 C     26  25  24     2.612417861939   120.20652985     0.07781393
 H      1   2   3     2.054111245797   110.31992187   180.09745131
 H      1   2   3     2.056104994136   110.61253960   300.08263164
 H      1   2   3     2.056109318790   110.58543103    60.11512521
 H      2   1   3     2.061537863184   110.04534720   122.31721157
 H      2   1   3     2.063655357846   109.95397535   240.26309322
 H      3   2   1     2.060894653848   111.05826625   309.78176609
 H      3   2   1     2.047629623494   112.31878353   187.33661868
 H      6   5   4     2.024581259721   124.10130439     3.81337253
 H      7   6   5     2.025346821447   127.67796959   182.13807957
 H     18  14  13     2.024881903876   125.62225222   180.51491857
 H     19  18  14     2.025122884339   127.00346670   181.03395029
 H     23  22  21     2.040647013201   119.42964326   358.50137303
 H     24  23  22     2.040519471623   119.69669294   179.53782372
 H     25  24  23     2.039939588932   120.09487706   180.29314045
 H     26  25  24     2.040440392891   120.07320887   180.04594301
 H     27  26  25     2.040406754842   120.32363111   180.86813736

---------------------
BASIS SET INFORMATION
---------------------
There are 6 groups of distinct atoms

 Group   1 Type C   : 19s6p3d2f contracted to 5s4p3d2f pattern {88111/3111/111/11}
 Group   2 Type S   : 42s17p3d2f contracted to 6s5p3d2f pattern {131313111/77111/111/11}
 Group   3 Type N   : 19s6p3d2f contracted to 5s4p3d2f pattern {88111/3111/111/11}
 Group   4 Type B   : 19s6p3d2f contracted to 5s4p3d2f pattern {88111/3111/111/11}
 Group   5 Type F   : 19s6p3d2f contracted to 5s4p3d2f pattern {88111/3111/111/11}
 Group   6 Type H   : 5s2p1d contracted to 3s2p1d pattern {311/11/1}

Atom   0C    basis set group =>   1
Atom   1C    basis set group =>   1
Atom   2C    basis set group =>   1
Atom   3S    basis set group =>   2
Atom   4C    basis set group =>   1
Atom   5C    basis set group =>   1
Atom   6C    basis set group =>   1
Atom   7C    basis set group =>   1
Atom   8N    basis set group =>   3
Atom   9B    basis set group =>   4
Atom  10F    basis set group =>   5
Atom  11F    basis set group =>   5
Atom  12N    basis set group =>   3
Atom  13C    basis set group =>   1
Atom  14S    basis set group =>   2
Atom  15C    basis set group =>   1
Atom  16N    basis set group =>   3
Atom  17C    basis set group =>   1
Atom  18C    basis set group =>   1
Atom  19C    basis set group =>   1
Atom  20C    basis set group =>   1
Atom  21C    basis set group =>   1
Atom  22C    basis set group =>   1
Atom  23C    basis set group =>   1
Atom  24C    basis set group =>   1
Atom  25C    basis set group =>   1
Atom  26C    basis set group =>   1
Atom  27H    basis set group =>   6
Atom  28H    basis set group =>   6
Atom  29H    basis set group =>   6
Atom  30H    basis set group =>   6
Atom  31H    basis set group =>   6
Atom  32H    basis set group =>   6
Atom  33H    basis set group =>   6
Atom  34H    basis set group =>   6
Atom  35H    basis set group =>   6
Atom  36H    basis set group =>   6
Atom  37H    basis set group =>   6
Atom  38H    basis set group =>   6
Atom  39H    basis set group =>   6
Atom  40H    basis set group =>   6
Atom  41H    basis set group =>   6
Atom  42H    basis set group =>   6
---------------------------------
AUXILIARY/J BASIS SET INFORMATION
---------------------------------
There are 6 groups of distinct atoms

 Group   1 Type C   : 10s7p5d2f1g contracted to 10s7p5d2f1g pattern {1111111111/1111111/11111/11/1}
 Group   2 Type S   : 13s11p9d3f1g contracted to 13s11p9d3f1g pattern {1111111111111/11111111111/111111111/111/1}
 Group   3 Type N   : 10s7p5d2f1g contracted to 10s7p5d2f1g pattern {1111111111/1111111/11111/11/1}
 Group   4 Type B   : 10s7p5d2f1g contracted to 10s7p5d2f1g pattern {1111111111/1111111/11111/11/1}
 Group   5 Type F   : 10s7p5d2f1g contracted to 10s7p5d2f1g pattern {1111111111/1111111/11111/11/1}
 Group   6 Type H   : 4s3p2d1f contracted to 4s3p2d1f pattern {1111/111/11/1}

Atom   0C    basis set group =>   1
Atom   1C    basis set group =>   1
Atom   2C    basis set group =>   1
Atom   3S    basis set group =>   2
Atom   4C    basis set group =>   1
Atom   5C    basis set group =>   1
Atom   6C    basis set group =>   1
Atom   7C    basis set group =>   1
Atom   8N    basis set group =>   3
Atom   9B    basis set group =>   4
Atom  10F    basis set group =>   5
Atom  11F    basis set group =>   5
Atom  12N    basis set group =>   3
Atom  13C    basis set group =>   1
Atom  14S    basis set group =>   2
Atom  15C    basis set group =>   1
Atom  16N    basis set group =>   3
Atom  17C    basis set group =>   1
Atom  18C    basis set group =>   1
Atom  19C    basis set group =>   1
Atom  20C    basis set group =>   1
Atom  21C    basis set group =>   1
Atom  22C    basis set group =>   1
Atom  23C    basis set group =>   1
Atom  24C    basis set group =>   1
Atom  25C    basis set group =>   1
Atom  26C    basis set group =>   1
Atom  27H    basis set group =>   6
Atom  28H    basis set group =>   6
Atom  29H    basis set group =>   6
Atom  30H    basis set group =>   6
Atom  31H    basis set group =>   6
Atom  32H    basis set group =>   6
Atom  33H    basis set group =>   6
Atom  34H    basis set group =>   6
Atom  35H    basis set group =>   6
Atom  36H    basis set group =>   6
Atom  37H    basis set group =>   6
Atom  38H    basis set group =>   6
Atom  39H    basis set group =>   6
Atom  40H    basis set group =>   6
Atom  41H    basis set group =>   6
Atom  42H    basis set group =>   6
---------------------------------
AUXILIARY/C BASIS SET INFORMATION
---------------------------------
There are 6 groups of distinct atoms

 Group   1 Type C   : 9s7p6d4f2g contracted to 9s7p6d4f2g pattern {111111111/1111111/111111/1111/11}
 Group   2 Type S   : 11s9p8d6f3g contracted to 11s9p8d6f3g pattern {11111111111/111111111/11111111/111111/111}
 Group   3 Type N   : 9s7p6d4f2g contracted to 9s7p6d4f2g pattern {111111111/1111111/111111/1111/11}
 Group   4 Type B   : 9s7p6d4f2g contracted to 9s7p6d4f2g pattern {111111111/1111111/111111/1111/11}
 Group   5 Type F   : 9s7p6d4f2g contracted to 9s7p6d4f2g pattern {111111111/1111111/111111/1111/11}
 Group   6 Type H   : 4s3p2d1f contracted to 4s3p2d1f pattern {1111/111/11/1}

Atom   0C    basis set group =>   1
Atom   1C    basis set group =>   1
Atom   2C    basis set group =>   1
Atom   3S    basis set group =>   2
Atom   4C    basis set group =>   1
Atom   5C    basis set group =>   1
Atom   6C    basis set group =>   1
Atom   7C    basis set group =>   1
Atom   8N    basis set group =>   3
Atom   9B    basis set group =>   4
Atom  10F    basis set group =>   5
Atom  11F    basis set group =>   5
Atom  12N    basis set group =>   3
Atom  13C    basis set group =>   1
Atom  14S    basis set group =>   2
Atom  15C    basis set group =>   1
Atom  16N    basis set group =>   3
Atom  17C    basis set group =>   1
Atom  18C    basis set group =>   1
Atom  19C    basis set group =>   1
Atom  20C    basis set group =>   1
Atom  21C    basis set group =>   1
Atom  22C    basis set group =>   1
Atom  23C    basis set group =>   1
Atom  24C    basis set group =>   1
Atom  25C    basis set group =>   1
Atom  26C    basis set group =>   1
Atom  27H    basis set group =>   6
Atom  28H    basis set group =>   6
Atom  29H    basis set group =>   6
Atom  30H    basis set group =>   6
Atom  31H    basis set group =>   6
Atom  32H    basis set group =>   6
Atom  33H    basis set group =>   6
Atom  34H    basis set group =>   6
Atom  35H    basis set group =>   6
Atom  36H    basis set group =>   6
Atom  37H    basis set group =>   6
Atom  38H    basis set group =>   6
Atom  39H    basis set group =>   6
Atom  40H    basis set group =>   6
Atom  41H    basis set group =>   6
Atom  42H    basis set group =>   6


           ************************************************************
           *        Program running with 4 parallel MPI-processes     *
           *              working on a common directory               *
           ************************************************************
------------------------------------------------------------------------------
                           ORCA GTO INTEGRAL CALCULATION
                           -- RI-GTO INTEGRALS CHOSEN --
------------------------------------------------------------------------------
------------------------------------------------------------------------------
                   ___                                                        
                  /   \      - P O W E R E D   B Y -                         
                 /     \                                                     
                 |  |  |   _    _      __       _____    __    __             
                 |  |  |  | |  | |    /  \     |  _  \  |  |  /  |          
                  \  \/   | |  | |   /    \    | | | |  |  | /  /          
                 / \  \   | |__| |  /  /\  \   | |_| |  |  |/  /          
                |  |  |   |  __  | /  /__\  \  |    /   |      \           
                |  |  |   | |  | | |   __   |  |    \   |  |\   \          
                \     /   | |  | | |  |  |  |  | |\  \  |  | \   \       
                 \___/    |_|  |_| |__|  |__|  |_| \__\ |__|  \__/        
                                                                              
                      - O R C A' S   B I G   F R I E N D -                    
                                      &                                       
                       - I N T E G R A L  F E E D E R -                       
                                                                              
 v1 FN, 2020, v2 2021                                                         
------------------------------------------------------------------------------


Reading SHARK input file optpbed3-b2plyp-test-80.SHARKINP.tmp ... ok
----------------------
SHARK INTEGRAL PACKAGE
----------------------

Number of atoms                             ...     43
Number of basis functions                   ...   1674
Number of shells                            ...    658
Maximum angular momentum                    ...      3
Integral batch strategy                     ... SHARK/LIBINT Hybrid
RI-J (if used) integral strategy            ... SPLIT-RIJ (Revised 2003 algorithm where possible)
Printlevel                                  ...      1
Contraction scheme used                     ... PARTIAL GENERAL contraction
Coulomb Range Separation                    ... NOT USED
Exchange Range Separation                   ... NOT USED
Finite Nucleus Model                        ... NOT USED
Auxiliary Coulomb fitting basis             ... AVAILABLE
   # of basis functions in Aux-J            ...   2697
   # of shells in Aux-J                     ...    859
   Maximum angular momentum in Aux-J        ...      4
Auxiliary J/K fitting basis                 ... NOT available
Auxiliary Correlation fitting basis         ... AVAILABLE
   # of basis functions in Aux-C            ...   3424
   # of shells in Aux-C                     ...    934
   Maximum angular momentum in Aux-C        ...      4
Auxiliary 'external' fitting basis          ... NOT available
Integral threshold                          ...     2.500000e-11
Primitive cut-off                           ...     2.500000e-12
Primitive pair pre-selection threshold      ...     2.500000e-12

Calculating pre-screening integrals         ... done (  0.4 sec) Dimension = 658
Calculating pre-screening integrals (ORCA)  ... done (  1.1 sec) Dimension = 478
Organizing shell pair data                  ... done (  2.5 sec)
Shell pair information
Total number of shell pairs                 ...    216811
Shell pairs after pre-screening             ...    127595
Total number of primitive shell pairs       ...    274293
Primitive shell pairs kept                  ...    145986
          la=0 lb=0:  27984 shell pairs
          la=1 lb=0:  33079 shell pairs
          la=1 lb=1:   8591 shell pairs
          la=2 lb=0:  21018 shell pairs
          la=2 lb=1:  10880 shell pairs
          la=2 lb=2:   3563 shell pairs
          la=3 lb=0:  11424 shell pairs
          la=3 lb=1:   6000 shell pairs
          la=3 lb=2:   3914 shell pairs
          la=3 lb=3:   1142 shell pairs

Calculating one electron integrals          ... done (  0.5 sec)
Calculating RI/J V-Matrix + Cholesky decomp.... done (  0.7 sec)
Calculating RI/C V-Matrix + Cholesky decomp.... done (  0.9 sec)
Calculating Nuclear repulsion               ... done (  0.0 sec) ENN=   2750.903614549249 Eh

SHARK setup successfully completed in   9.9 seconds

Maximum memory used throughout the entire GTOINT-calculation: 202.5 MB


           ************************************************************
           *        Program running with 4 parallel MPI-processes     *
           *              working on a common directory               *
           ************************************************************
-------------------------------------------------------------------------------
                                 ORCA SCF
-------------------------------------------------------------------------------

------------
SCF SETTINGS
------------
Hamiltonian:
 Density Functional     Method          .... DFT(GTOs)
 Exchange Functional    Exchange        .... PBE
   PBE kappa parameter   XKappa         ....  0.804000
   PBE mue parameter    XMuePBE         ....  0.219520
 Correlation Functional Correlation     .... PBE
   PBE beta parameter  CBetaPBE         ....  0.066725
 LDA part of GGA corr.  LDAOpt          .... PW91-LDA
 Gradients option       PostSCFGGA      .... off
 Hybrid DFT is turned on
   Fraction HF Exchange ScalHFX         ....  0.250000
   Scaling of DF-GGA-X  ScalDFX         ....  0.750000
   Scaling of DF-GGA-C  ScalDFC         ....  1.000000
   Scaling of DF-LDA-C  ScalLDAC        ....  1.000000
   Perturbative correction              ....  0.000000
   Density functional embedding theory  .... OFF
   NL short-range parameter             ....  6.900000
 RI-approximation to the Coulomb term is turned on
   Number of AuxJ basis functions       .... 2697
   RIJ-COSX (HFX calculated with COS-X)).... on


General Settings:
 Integral files         IntName         .... optpbed3-b2plyp-test-80
 Hartree-Fock type      HFTyp           .... RHF
 Total Charge           Charge          ....    0
 Multiplicity           Mult            ....    1
 Number of Electrons    NEL             ....  206
 Basis Dimension        Dim             .... 1474
 Nuclear Repulsion      ENuc            ....   2750.9036145492 Eh

Convergence Acceleration:
 DIIS                   CNVDIIS         .... on
   Start iteration      DIISMaxIt       ....    12
   Startup error        DIISStart       ....  0.200000
   # of expansion vecs  DIISMaxEq       ....     5
   Bias factor          DIISBfac        ....   1.050
   Max. coefficient     DIISMaxC        ....  10.000
 Trust-Rad. Augm. Hess. CNVTRAH         .... auto
   Auto Start mean grad. ratio tolernc. ....  1.125000
   Auto Start start iteration           ....    20
   Auto Start num. interpolation iter.  ....    10
   Max. Number of Micro iterations      ....    16
   Max. Number of Macro iterations      .... Maxiter - #DIIS iter
   Number of Davidson start vectors     ....     2
   Converg. threshold I  (grad. norm)   ....   1.000e-05
   Converg. threshold II (energy diff.) ....   1.000e-08
   Grad. Scal. Fac. for Micro threshold ....   0.100
   Minimum threshold for Micro iter.    ....   0.010
   NR start threshold (gradient norm)   ....   0.001
   Initial trust radius                 ....   0.400
   Minimum AH scaling param. (alpha)    ....   1.000
   Maximum AH scaling param. (alpha)    .... 1000.000
   Orbital update algorithm             .... Taylor
   White noise on init. David. guess    .... on
   Maximum white noise                  ....   0.010
   Quad. conv. algorithm                .... NR
 SOSCF                  CNVSOSCF        .... on
   Start iteration      SOSCFMaxIt      ....   150
   Startup grad/error   SOSCFStart      ....  0.003300
 Level Shifting         CNVShift        .... on
   Level shift para.    LevelShift      ....    0.2500
   Turn off err/grad.   ShiftErr        ....    0.0010
 Zerner damping         CNVZerner       .... off
 Static damping         CNVDamp         .... on
   Fraction old density DampFac         ....    0.7000
   Max. Damping (<1)    DampMax         ....    0.9800
   Min. Damping (>=0)   DampMin         ....    0.0000
   Turn off err/grad.   DampErr         ....    0.1000
 Fernandez-Rico         CNVRico         .... off

SCF Procedure:
 Maximum # iterations   MaxIter         ....   125
 SCF integral mode      SCFMode         .... Direct
   Integral package                     .... SHARK and LIBINT hybrid scheme
 Reset frequency        DirectResetFreq ....    20
 Integral Threshold     Thresh          ....  2.500e-11 Eh
 Primitive CutOff       TCut            ....  2.500e-12 Eh

Convergence Tolerance:
 Convergence Check Mode ConvCheckMode   .... Total+1el-Energy
 Convergence forced     ConvForced      .... 0
 Energy Change          TolE            ....  1.000e-08 Eh
 1-El. energy change                    ....  1.000e-05 Eh
 Orbital Gradient       TolG            ....  1.000e-05
 Orbital Rotation angle TolX            ....  1.000e-05
 DIIS Error             TolErr          ....  5.000e-07


Diagonalization of the overlap matrix:
Smallest eigenvalue                        ... 2.172e-07
Time for diagonalization                   ...    0.546 sec
Threshold for overlap eigenvalues          ... 1.000e-08
Number of eigenvalues below threshold      ... 0
Time for construction of square roots      ...    0.376 sec
Total time needed                          ...    0.934 sec

Time for model grid setup =    1.313 sec

------------------------------
INITIAL GUESS: MODEL POTENTIAL
------------------------------
Loading Hartree-Fock densities                     ... done
Calculating cut-offs                               ... done
Initializing the effective Hamiltonian             ... done
Setting up the integral package (SHARK)            ... done
Starting the Coulomb interaction                   ... done (   6.5 sec)
Reading the grid                                   ... done
Mapping shells                                     ... done
Starting the XC term evaluation                    ... done (   4.2 sec)
  promolecular density results
     # of electrons  =    206.003190811
     EX              =   -195.282190721
     EC              =     -7.132048062
     EX+EC           =   -202.414238783
Transforming the Hamiltonian                       ... done (   0.3 sec)
Diagonalizing the Hamiltonian                      ... done (   0.5 sec)
Back transforming the eigenvectors                 ... done (   0.1 sec)
Now organizing SCF variables                       ... done
                      ------------------
                      INITIAL GUESS DONE (  13.2 sec)
                      ------------------
-------------------
DFT GRID GENERATION
-------------------

General Integration Accuracy     IntAcc      ... 4.388
Radial Grid Type                 RadialGrid  ... OptM3 with GC (2021)
Angular Grid (max. ang.)         AngularGrid ... 4 (Lebedev-302)
Angular grid pruning method      GridPruning ... 4 (adaptive)
Weight generation scheme         WeightScheme... Becke
Basis function cutoff            BFCut       ... 1.0000e-11
Integration weight cutoff        WCut        ... 1.0000e-14
Angular grids for H and He will be reduced by one unit
Partially contracted basis set               ... off
Rotationally invariant grid construction     ... off

Total number of grid points                  ...   221013
Total number of batches                      ...     3476
Average number of points per batch           ...       63
Average number of grid points per atom       ...     5140
Time for grid setup =    4.062 sec

--------------------
COSX GRID GENERATION
--------------------

GRIDX 1
-------
General Integration Accuracy     IntAcc      ... 3.816
Radial Grid Type                 RadialGrid  ... OptM3 with GC (2021)
Angular Grid (max. ang.)         AngularGrid ... 1 (Lebedev-50)
Angular grid pruning method      GridPruning ... 4 (adaptive)
Weight generation scheme         WeightScheme... Becke
Basis function cutoff            BFCut       ... 1.0000e-11
Integration weight cutoff        WCut        ... 1.0000e-14
Angular grids for H and He will be reduced by one unit
Partially contracted basis set               ... on
Rotationally invariant grid construction     ... off

Total number of grid points                  ...    27870
Total number of batches                      ...      455
Average number of points per batch           ...       61
Average number of grid points per atom       ...      648
UseSFitting                                  ... on

GRIDX 2
-------
General Integration Accuracy     IntAcc      ... 4.020
Radial Grid Type                 RadialGrid  ... OptM3 with GC (2021)
Angular Grid (max. ang.)         AngularGrid ... 2 (Lebedev-110)
Angular grid pruning method      GridPruning ... 4 (adaptive)
Weight generation scheme         WeightScheme... Becke
Basis function cutoff            BFCut       ... 1.0000e-11
Integration weight cutoff        WCut        ... 1.0000e-14
Angular grids for H and He will be reduced by one unit
Partially contracted basis set               ... on
Rotationally invariant grid construction     ... off

Total number of grid points                  ...    65903
Total number of batches                      ...     1052
Average number of points per batch           ...       62
Average number of grid points per atom       ...     1533
UseSFitting                                  ... on

GRIDX 3
-------
General Integration Accuracy     IntAcc      ... 4.338
Radial Grid Type                 RadialGrid  ... OptM3 with GC (2021)
Angular Grid (max. ang.)         AngularGrid ... 3 (Lebedev-194)
Angular grid pruning method      GridPruning ... 4 (adaptive)
Weight generation scheme         WeightScheme... Becke
Basis function cutoff            BFCut       ... 1.0000e-11
Integration weight cutoff        WCut        ... 1.0000e-14
Angular grids for H and He will be reduced by one unit
Partially contracted basis set               ... on
Rotationally invariant grid construction     ... off

Total number of grid points                  ...   143447
Total number of batches                      ...     2265
Average number of points per batch           ...       63
Average number of grid points per atom       ...     3336
UseSFitting                                  ... on

Time for X-Grid setup             =   13.451 sec


--------------------
CPCM SOLVATION MODEL
--------------------
CPCM parameters:
  Epsilon                                         ...       1.8819
  Refrac                                          ...       1.3749
  Rsolv                                           ...       1.3000
  Surface type                                    ... GAUSSIAN VDW
  Epsilon function type                           ...         CPCM
Solvent:                                     ... N-HEXANE
SMD-CDS solvent descriptors:
  Soln                                       ...    1.3749
  Soln25                                     ...    1.3722
  Sola                                       ...    0.0000
  Solb                                       ...    0.0000
  Solg                                       ...   25.7500
  Solc                                       ...    0.0000
  Solh                                       ...    0.0000
Radii:
 Radius for C  used is    3.4960 Bohr (=   1.8500 Ang.)
 Radius for S  used is    4.7054 Bohr (=   2.4900 Ang.)
 Radius for N  used is    3.5716 Bohr (=   1.8900 Ang.)
 Radius for B  used is    3.6283 Bohr (=   1.9200 Ang.)
 Radius for F  used is    3.2692 Bohr (=   1.7300 Ang.)
 Radius for H  used is    2.2677 Bohr (=   1.2000 Ang.)
Calculating surface                               ...        done! (  0.0s)
GEPOL surface points                              ...         2329
GEPOL Volume                                      ...    2768.0052
GEPOL Surface-area                                ...    1403.5578
Calculating surface distance matrix               ...        done! (  0.1s)
Performing Cholesky decomposition & store         ...        done! (  0.4s)
Overall time for CPCM initialization              ...                 0.5s
 re-compute Schwartz prescreening matrix in partically contracted basis (1) ...done (   0.364 sec)
--------------
SCF ITERATIONS
--------------
ITER       Energy         Delta-E        Max-DP      RMS-DP      [F,P]     Damp
               ***  Starting incremental Fock matrix formation  ***
  0  -1917.2347073012   0.000000000000 0.68816375  0.00140320  0.2501176 0.7000
  1  -1917.5289960180  -0.294288716806 0.61760056  0.00111747  0.1037853 0.7000
                               ***Turning on DIIS***
  2  -1917.6440500355  -0.115054017532 1.53557674  0.00256256  0.0411277 0.0000
  3  -1917.8222294216  -0.178179386015 0.10134964  0.00055316  0.0541345 0.0000
  4  -1917.8651693944  -0.042939972829 0.04475907  0.00023174  0.0218343 0.0000
  5  -1917.8678962507  -0.002726856289 0.05606594  0.00014213  0.0122969 0.0000
                      *** Initiating the SOSCF procedure ***
                           *** Shutting down DIIS ***
                      *** Re-Reading the Fockian *** 
                      *** Removing any level shift *** 
ITER      Energy       Delta-E        Grad      Rot      Max-DP    RMS-DP
  6  -1917.86829962  -0.0004033720  0.000555  0.000555  0.334470  0.000423
               *** Restarting incremental Fock matrix formation ***
  7  -1917.86828867   0.0000109541  0.000185  0.000531  0.204073  0.000800
  8  -1917.86828151   0.0000071630  0.000316  0.000734  0.052848  0.000113
[...]
   Forming the XC and CPCM contribution:
   Time for densities:            0.469
   Time for XC-Integration:      36.448
   Time for LR-CPCM terms:       22.522
   Time for Sigma-Completion:     0.340
   Time for building 10 sigma-vectors
   Data Preparation Phase         ...     0.01 sec
   Transformed RI Coulomb         ...     1.83 sec
   Transformed RI-exchange        ...  1419.96 sec
   (ab|v) reading and digestion   ...  1359.42 sec
   Final sigma-completion         ...     0.01 sec
   Done building sigma-vectors             Size of expansion space: 50
   Lowest Energy          :     0.103302718491
   Maximum Energy change  :     0.002679220588 (vector 6)
   Maximum residual norm  :     0.000612678404

                       ****Iteration    3****
              <<< Entering MO-section for Build Sigma(Double) >>>
   Forming the XC and CPCM contribution:
   Time for densities:            0.475
   Time for XC-Integration:      35.907
   Time for LR-CPCM terms:       21.286
   Time for Sigma-Completion:     0.330
   Time for building 10 sigma-vectors
   Data Preparation Phase         ...     0.02 sec
   Transformed RI Coulomb         ...     1.81 sec
   Transformed RI-exchange        ...  1420.33 sec
   (ab|v) reading and digestion   ...  1351.23 sec
   Final sigma-completion         ...     0.01 sec
   Done building sigma-vectors             Size of expansion space: 60
   Lowest Energy          :     0.103234822462
   Maximum Energy change  :     0.001203957655 (vector 6)
   Maximum residual norm  :     0.000129204127

                       ****Iteration    4****
              <<< Entering MO-section for Build Sigma(Double) >>>
   Forming the XC and CPCM contribution:
   Time for densities:            0.472
   Time for XC-Integration:      37.647
   Time for LR-CPCM terms:       23.039
   Time for Sigma-Completion:     0.351
   Time for building 10 sigma-vectors
   Data Preparation Phase         ...     0.02 sec
   Transformed RI Coulomb         ...     1.84 sec
   Transformed RI-exchange        ...  1423.50 sec
   (ab|v) reading and digestion   ...  1363.67 sec
   Final sigma-completion         ...     0.01 sec
   Done building sigma-vectors             Size of expansion space: 70
   Lowest Energy          :     0.103230372928
   Maximum Energy change  :     0.000245833802 (vector 6)
   Maximum residual norm  :     0.000026470757
   Rebuilding the expansion space

                       ****Iteration    5****
              <<< Entering MO-section for Build Sigma(Double) >>>
   Forming the XC and CPCM contribution:
   Time for densities:            0.940
   Time for XC-Integration:      73.559
   Time for LR-CPCM terms:       36.136
   Time for Sigma-Completion:     0.671
   Time for building 20 sigma-vectors
   Data Preparation Phase         ...     0.03 sec
   Transformed RI Coulomb         ...     3.19 sec
   Transformed RI-exchange        ...  2842.96 sec
   (ab|v) reading and digestion   ...  2717.52 sec
   Final sigma-completion         ...     0.02 sec
   Done building sigma-vectors             Size of expansion space: 20
   Lowest Energy          :     0.103230152153
   Maximum Energy change  :     0.000038338425 (vector 6)
   Maximum residual norm  :     0.000006262781

                       ****Iteration    6****
              <<< Entering MO-section for Build Sigma(Double) >>>
   Forming the XC and CPCM contribution:
   Time for densities:            0.474
   Time for XC-Integration:      37.836
   Time for LR-CPCM terms:       23.037
   Time for Sigma-Completion:     0.347
   Time for building 10 sigma-vectors
   Data Preparation Phase         ...     0.02 sec
   Transformed RI Coulomb         ...     1.82 sec
   Transformed RI-exchange        ...  1417.84 sec
   (ab|v) reading and digestion   ...  1352.74 sec
   Final sigma-completion         ...     0.01 sec
   Done building sigma-vectors             Size of expansion space: 30
   Lowest Energy          :     0.103230123728
   Maximum Energy change  :     0.000013445664 (vector 6)
   Maximum residual norm  :     0.000001929376

                       ****Iteration    7****
              <<< Entering MO-section for Build Sigma(Double) >>>
   Forming the XC and CPCM contribution:
   Time for densities:            0.477
   Time for XC-Integration:      38.584
   Time for LR-CPCM terms:       23.088
   Time for Sigma-Completion:     0.355
   Time for building 10 sigma-vectors
   Data Preparation Phase         ...     0.02 sec
   Transformed RI Coulomb         ...     2.05 sec
   Transformed RI-exchange        ...  1430.50 sec
   (ab|v) reading and digestion   ...  1364.14 sec
   Final sigma-completion         ...     0.01 sec
   Done building sigma-vectors             Size of expansion space: 40
   Lowest Energy          :     0.103230121686
   Maximum Energy change  :     0.000002510042 (vector 6)
   Maximum residual norm  :     0.000000343785

      *** CONVERGENCE OF RESIDUAL NORM REACHED ***

Storing the converged CI vectors               ... optpbed3-b2plyp-test-80_job2.cis1

                 *** DAVIDSON DONE ***

Total time for solving the CIS problem: 12457.530sec

------------------
DOUBLES CORRECTION (Double precision version)
------------------

The (D) correction will be scaled by  0.2700
Doing v(i,a)*T(i,a) terms (RI)                    ... ok
Doing u(i,j,a,b) terms for state   0              ... ok
Doing u(i,j,a,b) terms for state   1              ... ok
Doing u(i,j,a,b) terms for state   2              ... ok
Doing u(i,j,a,b) terms for state   3              ... ok
Doing u(i,j,a,b) terms for state   4              ... ok
Doing u(i,j,a,b) terms for state   5              ... ok
Doing u(i,j,a,b) terms for state   6              ... ok
Doing u(i,j,a,b) terms for state   7              ... ok
Doing u(i,j,a,b) terms for state   8              ... ok
Doing u(i,j,a,b) terms for state   9              ... ok

Contributions to the (D) correction(s) (in eV)

STATE  Final   Init.   Total   v(ext)   v(int)  v(3)    u
       omega   omega     (D)                             
-----------------------------------------------------------------------------
   0   2.483   2.809  -0.326   0.743   1.006  -0.090  -1.984
   1   3.426   4.008  -0.582   0.746   0.887  -0.036  -2.179
   2   3.642   4.328  -0.686   0.753   0.904  -0.036  -2.306
   3   3.883   4.559  -0.676   0.743   0.826  -0.024  -2.222
   4   3.984   4.617  -0.633   0.744   0.865  -0.022  -2.220
   5   3.963   4.709  -0.745   0.753   0.892  -0.044  -2.346
   6   4.525   4.890  -0.365   0.466   0.924  -0.017  -1.738
   7   4.992   5.259  -0.267   0.101   1.027  -0.002  -1.392
   8   4.727   5.364  -0.638   0.500   0.989  -0.012  -2.115
   9   4.655   5.401  -0.746   0.674   0.859  -0.029  -2.250

(D)-timings
 V(i,a)*T(i,a) terms           ...  2561.378 sec
 U(i,j,a,b) 3-internal         ...    50.858 sec
 U(i,j,a,b) 3-external         ...  1406.937 sec
 U(i,j,a,b) pair terms         ...  1171.154 sec
 Total measured time           ... 11676.400 sec

 Time for (ab|v) I/O           ...   590.322 sec


------------------------------------
TD-DFT/TDA EXCITED STATES (SINGLETS)
------------------------------------

the weight of the individual excitations are printed if larger than 1.0e-02

STATE  1:  E=   0.091255 au      2.483 eV    20028.1 cm**-1 <S**2> =   0.000000
   102a -> 103a  :     0.953981 (c= -0.97671940)

STATE  2:  E=   0.125919 au      3.426 eV    27636.1 cm**-1 <S**2> =   0.000000
    98a -> 103a  :     0.014078 (c= -0.11864916)
    99a -> 103a  :     0.014355 (c=  0.11981067)
   101a -> 103a  :     0.920618 (c= -0.95948830)

STATE  3:  E=   0.133850 au      3.642 eV    29376.6 cm**-1 <S**2> =   0.000000
    97a -> 103a  :     0.027322 (c=  0.16529473)
    98a -> 103a  :     0.443000 (c=  0.66558222)
    99a -> 103a  :     0.277254 (c=  0.52654948)
   100a -> 103a  :     0.212735 (c=  0.46123168)

STATE  4:  E=   0.142701 au      3.883 eV    31319.2 cm**-1 <S**2> =   0.000000
    98a -> 103a  :     0.030270 (c= -0.17398156)
    99a -> 103a  :     0.531722 (c=  0.72919292)
   100a -> 103a  :     0.367890 (c= -0.60653950)
   101a -> 103a  :     0.012956 (c=  0.11382315)

STATE  5:  E=   0.146405 au      3.984 eV    32132.3 cm**-1 <S**2> =   0.000000
    98a -> 103a  :     0.459063 (c= -0.67754177)
    99a -> 103a  :     0.104783 (c=  0.32370215)
   100a -> 103a  :     0.380430 (c=  0.61678994)

STATE  6:  E=   0.145655 au      3.963 eV    31967.5 cm**-1 <S**2> =   0.000000
    96a -> 103a  :     0.011499 (c= -0.10723479)
    97a -> 103a  :     0.916600 (c=  0.95739217)
    98a -> 103a  :     0.016751 (c= -0.12942436)
    99a -> 103a  :     0.016373 (c= -0.12795872)

STATE  7:  E=   0.166279 au      4.525 eV    36493.9 cm**-1 <S**2> =   0.000000
    96a -> 109a  :     0.023696 (c= -0.15393423)
    96a -> 110a  :     0.064083 (c=  0.25314568)
   101a -> 105a  :     0.011751 (c=  0.10840332)
   101a -> 109a  :     0.032195 (c=  0.17942903)
   101a -> 110a  :     0.085247 (c= -0.29197020)
   102a -> 105a  :     0.089328 (c=  0.29887841)
   102a -> 106a  :     0.031601 (c=  0.17776621)
   102a -> 109a  :     0.141159 (c=  0.37571194)
   102a -> 110a  :     0.384812 (c= -0.62033218)
   102a -> 112a  :     0.010520 (c=  0.10256534)

STATE  8:  E=   0.183454 au      4.992 eV    40263.5 cm**-1 <S**2> =   0.000000
   102a -> 104a  :     0.672253 (c=  0.81991061)
   102a -> 106a  :     0.149582 (c= -0.38675864)
   102a -> 107a  :     0.032032 (c=  0.17897450)
   102a -> 110a  :     0.014816 (c= -0.12172059)
   102a -> 111a  :     0.025669 (c= -0.16021499)
   102a -> 114a  :     0.012854 (c=  0.11337756)
   102a -> 115a  :     0.013062 (c= -0.11428851)
   102a -> 118a  :     0.011209 (c= -0.10587491)

STATE  9:  E=   0.173702 au      4.727 eV    38123.2 cm**-1 <S**2> =   0.000000
    96a -> 103a  :     0.147887 (c=  0.38456046)
   102a -> 105a  :     0.552537 (c=  0.74332823)
   102a -> 107a  :     0.035368 (c=  0.18806493)
   102a -> 108a  :     0.102066 (c=  0.31947769)
   102a -> 110a  :     0.030179 (c=  0.17372130)
   102a -> 112a  :     0.014108 (c= -0.11877694)

STATE 10:  E=   0.171060 au      4.655 eV    37543.3 cm**-1 <S**2> =   0.000000
    96a -> 103a  :     0.674826 (c= -0.82147794)
   101a -> 103a  :     0.010468 (c=  0.10231272)
   102a -> 105a  :     0.155394 (c=  0.39420061)
   102a -> 107a  :     0.012137 (c=  0.11016662)
   102a -> 108a  :     0.011391 (c=  0.10672934)


-----------------------------
TD-DFT/TDA-EXCITATION SPECTRA
-----------------------------

Center of mass = ( -0.0018,  1.2948, -0.2277)
Calculating the Dipole integrals                  ... done
Transforming integrals                            ... done
Calculating the Linear Momentum integrals         ... done
Transforming integrals                            ... done
Calculating angular momentum integrals            ... done
Transforming integrals                            ... done

-----------------------------------------------------------------------------
         ABSORPTION SPECTRUM VIA TRANSITION ELECTRIC DIPOLE MOMENTS
-----------------------------------------------------------------------------
State   Energy    Wavelength  fosc         T2        TX        TY        TZ  
        (cm-1)      (nm)                 (au**2)    (au)      (au)      (au) 
-----------------------------------------------------------------------------
   1   20028.1    499.3   0.844667405  13.88419   2.12358  -2.43622  -1.85456
   2   27636.1    361.8   0.478201999   5.69653  -1.65571  -1.69031   0.31310
   3   29376.6    340.4   0.036407734   0.40801   0.00198  -0.59208  -0.23969
   4   31319.2    319.3   0.017792039   0.18702  -0.12863   0.30597   0.27723
   5   32132.3    311.2   0.033724233   0.34552  -0.23041   0.53931   0.03972
   6   31967.5    312.8   0.099028985   1.01983  -0.79587  -0.60086   0.15931
   7   36493.9    274.0   0.000356738   0.00322   0.03929   0.04042  -0.00634
   8   40263.5    248.4   0.020848537   0.17047   0.21952   0.34962  -0.00673
   9   38123.2    262.3   0.012642077   0.10917  -0.29129  -0.11788   0.10211
  10   37543.3    266.4   0.084042004   0.73695   0.79686   0.18050  -0.26341

-----------------------------------------------------------------------------
         ABSORPTION SPECTRUM VIA TRANSITION VELOCITY DIPOLE MOMENTS
-----------------------------------------------------------------------------
State   Energy    Wavelength   fosc        P2         PX        PY        PZ  
        (cm-1)      (nm)                 (au**2)     (au)      (au)      (au) 
-----------------------------------------------------------------------------
   1   20028.1    499.3   0.103975864   0.01423  -0.09769   0.06681   0.01498
   2   27636.1    361.8   0.241776809   0.04567   0.15765   0.14425  -0.00223
   3   29376.6    340.4   0.007157251   0.00144   0.01417   0.03477  -0.00520
   4   31319.2    319.3   0.004345698   0.00093   0.02496   0.00025  -0.01752
   5   32132.3    311.2   0.009856052   0.00216   0.02164  -0.02560  -0.03226
   6   31967.5    312.8   0.003313622   0.00072   0.02275   0.01293   0.00625
   7   36493.9    274.0   0.001896704   0.00047   0.01017  -0.00820   0.01739
   8   40263.5    248.4   0.007407085   0.00204  -0.02412  -0.03816  -0.00060
   9   38123.2    262.3   0.009083715   0.00237   0.03609   0.02858  -0.01572
  10   37543.3    266.4   0.041450891   0.01064  -0.09441  -0.04053   0.00896

-------------------------------------------------------------------
                             CD SPECTRUM
-------------------------------------------------------------------
State  Energy     Wavelength     R         MX        MY        MZ   
       (cm-1)       (nm)     (1e40*cgs)   (au)      (au)      (au)  
-------------------------------------------------------------------
   1   20028.1    499.3    215.19842   0.30319  -0.48957   0.74415
   2   27636.1    361.8    -81.08929  -0.01855   0.13718   0.09312
   3   29376.6    340.4     15.05428  -0.21234   0.09530  -0.37040
   4   31319.2    319.3    -10.96169  -0.01108  -0.11583   0.03882
   5   32132.3    311.2    -31.61006   0.04324  -0.10950   0.04958
   6   31967.5    312.8    -12.12751  -0.01729   0.06944   0.01406
   7   36493.9    274.0      1.43294   0.11704  -0.05429  -0.10020
   8   40263.5    248.4      4.16285   0.02828   0.00734  -0.00821
   9   38123.2    262.3      4.59212  -0.06799   0.01957  -0.07596
  10   37543.3    266.4     13.30615   0.05220  -0.03362   0.02773

-------------------------------------------------------------------
         CD SPECTRUM VIA TRANSITION VELOCITY DIPOLE MOMENTS        
-------------------------------------------------------------------
State  Energy     Wavelength     R         MX        MY        MZ   
       (cm-1)       (nm)     (1e40*cgs)   (au)      (au)      (au)  
-------------------------------------------------------------------
   1   20028.1    499.3    -264.40801   0.30319  -0.48957   0.74415
   2   27636.1    361.8     62.35812  -0.01855   0.13718   0.09312
   3   29376.6    340.4      7.85122  -0.21234   0.09530  -0.37040
   4   31319.2    319.3     -3.25724  -0.01108  -0.11583   0.03882
   5   32132.3    311.2      6.89007   0.04324  -0.10950   0.04958
   6   31967.5    312.8      1.91689  -0.01729   0.06944   0.01406
   7   36493.9    274.0     -0.30479   0.11704  -0.05429  -0.10020
   8   40263.5    248.4     -2.46047   0.02828   0.00734  -0.00821
   9   38123.2    262.3     -1.90147  -0.06799   0.01957  -0.07596
  10   37543.3    266.4     -9.14311   0.05220  -0.03362   0.02773

Total run time:    24149.907 sec

           *** ORCA-CIS/TD-DFT FINISHED WITHOUT ERROR ***

Maximum memory used throughout the entire CIS-calculation: 3112.1 MB

-----------------------
CIS/TD-DFT TOTAL ENERGY
-----------------------

    E(SCF)  =  -1916.806131766 Eh
    DE(CIS) =      0.091254953 Eh (Root  1)
    ----------------------------- ---------
    E(tot)  =  -1916.714876814 Eh



-------------------------------------------------------------------------------
                          DFT DISPERSION CORRECTION                            
                                                                               
                              DFTD3 V3.1  Rev 1                                
                          USING Becke-Johnson damping                          
-------------------------------------------------------------------------------
The B2PLYP functional is recognized
Active option DFTDOPT                   ...         4   

molecular C6(AA) [au] = 27282.555059 


            DFT-D V3
 parameters
 s6 scaling factor         :     0.6400 
 a1 scaling factor         :     0.3065 
 s8 scaling factor         :     0.9147 
 a2 scaling factor         :     5.0570 
 ad hoc parameters k1-k3   :    16.0000     1.3333    -4.0000 

 Edisp/kcal,au: -33.132668192509  -0.052800262032 
 E6   /kcal   : -18.150128563 
 E8   /kcal   : -14.982539630 
 % E8         :  45.219840258 

-------------------------   ----------------
Dispersion correction           -0.052800262
-------------------------   ----------------


-------------------------   --------------------
FINAL SINGLE POINT ENERGY     -1916.767677075788
-------------------------   --------------------


                            ***************************************
                            *     ORCA property calculations      *
                            ***************************************


  WARNING: The energy has been calculated at the MP2 level but the densities
           used in the property calculations are still SCF densities
           MP2 response densities have not been calculated 
           use %mp2 Density relaxed end
           or  %mp2 Density unrelaxed end

                                    ---------------------
                                    Active property flags
                                    ---------------------
   (+) Dipole Moment


------------------------------------------------------------------------------
                       ORCA ELECTRIC PROPERTIES CALCULATION
------------------------------------------------------------------------------

Dipole Moment Calculation                       ... on
Quadrupole Moment Calculation                   ... off
Polarizability Calculation                      ... off
GBWName                                         ... optpbed3-b2plyp-test-80_job2.gbw
Electron density                                ... optpbed3-b2plyp-test-80_job2.scfp
The origin for moment calculation is the CENTER OF MASS  = (-0.001811,  1.294770 -0.227725)

-------------
DIPOLE MOMENT
-------------
                                X             Y             Z
Electronic contribution:     -4.99199      22.82953      -1.49214
Nuclear contribution   :      3.78039     -25.79483       1.16397
                        -----------------------------------------
Total Dipole Moment    :     -1.21160      -2.96530      -0.32817
                        -----------------------------------------
Magnitude (a.u.)       :      3.22004
Magnitude (Debye)      :      8.18470



--------------------
Rotational spectrum 
--------------------
 
Rotational constants in cm-1:     0.006145     0.005018     0.003027 
Rotational constants in MHz :   184.211739   150.433831    90.735846 

 Dipole components along the rotational axes: 
x,y,z [a.u.] :    -2.045057    -2.482503     0.153640 
x,y,z [Debye]:    -5.198122    -6.310021     0.390523 

 

Timings for individual modules:

Sum of individual times         ...    30999.526 sec (= 516.659 min)
GTO integral calculation        ...       11.900 sec (=   0.198 min)   0.0 %
SCF iterations                  ...     2466.648 sec (=  41.111 min)   8.0 %
MP2 module                      ...     4367.334 sec (=  72.789 min)  14.1 %
CIS module                      ...    24153.644 sec (= 402.561 min)  77.9 %



                             ****ORCA TERMINATED NORMALLY****
TOTAL RUN TIME: 0 days 19 hours 54 minutes 24 seconds 941 msec
