
                                 *****************
                                 * O   R   C   A *
                                 *****************

                                            #,                                       
                                            ###                                      
                                            ####                                     
                                            #####                                    
                                            ######                                   
                                           ########,                                 
                                     ,,################,,,,,                         
                               ,,#################################,,                 
                          ,,##########################################,,             
                       ,#########################################, ''#####,          
                    ,#############################################,,   '####,        
                  ,##################################################,,,,####,       
                ,###########''''           ''''###############################       
              ,#####''   ,,,,##########,,,,          '''####'''          '####       
            ,##' ,,,,###########################,,,                        '##       
           ' ,,###''''                  '''############,,,                           
         ,,##''                                '''############,,,,        ,,,,,,###''
      ,#''                                            '''#######################'''  
     '                                                          ''''####''''         
             ,#######,   #######,   ,#######,      ##                                
            ,#'     '#,  ##    ##  ,#'     '#,    #''#        ######   ,####,        
            ##       ##  ##   ,#'  ##            #'  '#       #        #'  '#        
            ##       ##  #######   ##           ,######,      #####,   #    #        
            '#,     ,#'  ##    ##  '#,     ,#' ,#      #,         ##   #,  ,#        
             '#######'   ##     ##  '#######'  #'      '#     #####' # '####'        



                  #######################################################
                  #                        -***-                        #
                  #          Department of theory and spectroscopy      #
                  #    Directorship and core code : Frank Neese         #
                  #        Max Planck Institute fuer Kohlenforschung    #
                  #                Kaiser Wilhelm Platz 1               #
                  #                 D-45470 Muelheim/Ruhr               #
                  #                      Germany                        #
                  #                                                     #
                  #                  All rights reserved                #
                  #                        -***-                        #
                  #######################################################


                         Program Version 5.0.2 -  RELEASE  -


 With contributions from (in alphabetic order):
   Daniel Aravena         : Magnetic Suceptibility
   Michael Atanasov       : Ab Initio Ligand Field Theory (pilot matlab implementation)
   Alexander A. Auer      : GIAO ZORA, VPT2 properties, NMR spectrum
   Ute Becker             : Parallelization
   Giovanni Bistoni       : ED, misc. LED, open-shell LED, HFLD
   Martin Brehm           : Molecular dynamics
   Dmytro Bykov           : SCF Hessian
   Vijay G. Chilkuri      : MRCI spin determinant printing, contributions to CSF-ICE
   Dipayan Datta          : RHF DLPNO-CCSD density
   Achintya Kumar Dutta   : EOM-CC, STEOM-CC
   Dmitry Ganyushin       : Spin-Orbit,Spin-Spin,Magnetic field MRCI
   Miquel Garcia          : C-PCM and meta-GGA Hessian, CC/C-PCM, Gaussian charge scheme
   Yang Guo               : DLPNO-NEVPT2, F12-NEVPT2, CIM, IAO-localization
   Andreas Hansen         : Spin unrestricted coupled pair/coupled cluster methods
   Benjamin Helmich-Paris : MC-RPA, TRAH-SCF, COSX integrals
   Lee Huntington         : MR-EOM, pCC
   Robert Izsak           : Overlap fitted RIJCOSX, COSX-SCS-MP3, EOM
   Marcus Kettner         : VPT2
   Christian Kollmar      : KDIIS, OOCD, Brueckner-CCSD(T), CCSD density, CASPT2, CASPT2-K
   Simone Kossmann        : Meta GGA functionals, TD-DFT gradient, OOMP2, MP2 Hessian
   Martin Krupicka        : Initial AUTO-CI
   Lucas Lang             : DCDCAS
   Marvin Lechner         : AUTO-CI (C++ implementation), FIC-MRCC
   Dagmar Lenk            : GEPOL surface, SMD
   Dimitrios Liakos       : Extrapolation schemes; Compound Job, initial MDCI parallelization
   Dimitrios Manganas     : Further ROCIS development; embedding schemes
   Dimitrios Pantazis     : SARC Basis sets
   Anastasios Papadopoulos: AUTO-CI, single reference methods and gradients
   Taras Petrenko         : DFT Hessian,TD-DFT gradient, ASA, ECA, R-Raman, ABS, FL, XAS/XES, NRVS
   Peter Pinski           : DLPNO-MP2, DLPNO-MP2 Gradient
   Christoph Reimann      : Effective Core Potentials
   Marius Retegan         : Local ZFS, SOC
   Christoph Riplinger    : Optimizer, TS searches, QM/MM, DLPNO-CCSD(T), (RO)-DLPNO pert. Triples
   Tobias Risthaus        : Range-separated hybrids, TD-DFT gradient, RPA, STAB
   Michael Roemelt        : Original ROCIS implementation
   Masaaki Saitow         : Open-shell DLPNO-CCSD energy and density
   Barbara Sandhoefer     : DKH picture change effects
   Avijit Sen             : IP-ROCIS
   Kantharuban Sivalingam : CASSCF convergence, NEVPT2, FIC-MRCI
   Bernardo de Souza      : ESD, SOC TD-DFT
   Georgi Stoychev        : AutoAux, RI-MP2 NMR, DLPNO-MP2 response
   Willem Van den Heuvel  : Paramagnetic NMR
   Boris Wezisla          : Elementary symmetry handling
   Frank Wennmohs         : Technical directorship


 We gratefully acknowledge several colleagues who have allowed us to
 interface, adapt or use parts of their codes:
   Stefan Grimme, W. Hujo, H. Kruse, P. Pracht,  : VdW corrections, initial TS optimization,
                  C. Bannwarth, S. Ehlert          DFT functionals, gCP, sTDA/sTD-DF
   Ed Valeev, F. Pavosevic, A. Kumar             : LibInt (2-el integral package), F12 methods
   Garnet Chan, S. Sharma, J. Yang, R. Olivares  : DMRG
   Ulf Ekstrom                                   : XCFun DFT Library
   Mihaly Kallay                                 : mrcc  (arbitrary order and MRCC methods)
   Jiri Pittner, Ondrej Demel                    : Mk-CCSD
   Frank Weinhold                                : gennbo (NPA and NBO analysis)
   Christopher J. Cramer and Donald G. Truhlar   : smd solvation model
   Lars Goerigk                                  : TD-DFT with DH, B97 family of functionals
   V. Asgeirsson, H. Jonsson                     : NEB implementation
   FAccTs GmbH                                   : IRC, NEB, NEB-TS, DLPNO-Multilevel, CI-OPT
                                                   MM, QMMM, 2- and 3-layer-ONIOM, Crystal-QMMM,
                                                   LR-CPCM, SF, NACMEs, symmetry and pop. for TD-DFT,
                                                   nearIR, NL-DFT gradient (VV10), updates on ESD,
                                                   ML-optimized integration grids
   S Lehtola, MJT Oliveira, MAL Marques          : LibXC Library
   Liviu Ungur et al                             : ANISO software


 Your calculation uses the libint2 library for the computation of 2-el integrals
 For citations please refer to: http://libint.valeyev.net

 Your ORCA version has been built with support for libXC version: 5.1.0
 For citations please refer to: https://tddft.org/programs/libxc/

 This ORCA versions uses:
   CBLAS   interface :  Fast vector & matrix operations
   LAPACKE interface :  Fast linear algebra routines
   SCALAPACK package :  Parallel linear algebra routines
   Shared memory     :  Shared parallel matrices
   BLAS/LAPACK       :  OpenBLAS 0.3.15  USE64BITINT DYNAMIC_ARCH NO_AFFINITY Haswell SINGLE_THREADED
        Core in use  :  Haswell
   Copyright (c) 2011-2014, The OpenBLAS Project


Your calculation utilizes the atom-pairwise dispersion correction
with the Becke-Johnson damping scheme (D3BJ)
Cite in your paper:
S.Grimme, S.Ehrlich, L.Goerigk, J Comput Chem, (2011), 32, 1456–1465 
S.Grimme, J.Antony, S.Ehrlich and H.Krieg, J.Chem.Phys., 132, (2010), 154104 
   

Your calculation utilizes the SMD solvation module
Please cite in your paper:
A.V. Marenich, C.J. Cramer, D.G. Truhlar J. Phys. Chem. B, 113, (2009), 6378 

================================================================================

----- Orbital basis set information -----
Your calculation utilizes the basis: aug-cc-pVTZ 
    H, B-Ne : Obtained from the ccRepo (grant-hill.group.shef.ac.uk/ccrepo) Feb. 2017
              R. A. Kendall, T. H. Dunning, Jr., R. J. Harrison, J. Chem. Phys. 96, 6796 (1992)
         He : Obtained from the ccRepo (grant-hill.group.shef.ac.uk/ccrepo) Feb. 2017
              D. E. Woon, T. H. Dunning, Jr., J. Chem. Phys. 100, 2975 (1994)
  Li-Be, Na : Obtained from the ccRepo (grant-hill.group.shef.ac.uk/ccrepo) Feb. 2017
              B. P. Prascher, D. E. Woon, K. A. Peterson, T. H. Dunning, Jr., A. K. Wilson, Theor. Chem. Acc. 128, 69 (2011)
         Mg : Obtained from the Peterson Research Group Website (tyr0.chem.wsu.edu/~kipeters) Feb. 2017
              B. P. Prascher, D. E. Woon, K. A. Peterson, T. H. Dunning, Jr., A. K. Wilson, Theor. Chem. Acc. 128, 69 (2011)
      Al-Ar : Obtained from the ccRepo (grant-hill.group.shef.ac.uk/ccrepo) Feb. 2017
              D. E. Woon, T. H. Dunning, Jr., J. Chem. Phys. 98, 1358 (1993)
      Sc-Zn : Obtained from the ccRepo (grant-hill.group.shef.ac.uk/ccrepo) Feb. 2017
              N. B. Balabanov, K. A. Peterson, J. Chem. Phys. 123, 064107 (2005)
              N. B. Balabanov, K. A. Peterson, J. Chem. Phys. 125, 074110 (2006)
      Ga-Kr : Obtained from the ccRepo (grant-hill.group.shef.ac.uk/ccrepo) Feb. 2017
              A. K. Wilson, D. E. Woon, K. A. Peterson, T. H. Dunning, Jr., J. Chem. Phys. 110, 7667 (1999)
     Ag, Au : Obtained from the Peterson Research Group Website (tyr0.chem.wsu.edu/~kipeters) Feb. 2017
              K. A. Peterson, C. Puzzarini, Theor. Chem. Acc. 114, 283 (2005)

The basis set includes element-specific modifications.

Your calculation utilizes the basis: cc-pVTZ 
       H, B-Ne : Obtained from the ccRepo (grant-hill.group.shef.ac.uk/ccrepo) Feb. 2017
                 T. H. Dunning, Jr., J. Chem. Phys. 90, 1007 (1989)
            He : Obtained from the ccRepo (grant-hill.group.shef.ac.uk/ccrepo) Feb. 2017
                 D. E. Woon, T. H. Dunning, Jr., J. Chem. Phys. 100, 2975 (1994)
  Li-Be, Na-Mg : Obtained from the ccRepo (grant-hill.group.shef.ac.uk/ccrepo) Feb. 2017
                 B. P. Prascher, D. E. Woon, K. A. Peterson, T. H. Dunning, Jr., A. K. Wilson, Theor. Chem. Acc. 128, 69 (2011)
         Al-Ar : Obtained from the ccRepo (grant-hill.group.shef.ac.uk/ccrepo) Feb. 2017
                 D. E. Woon, T. H. Dunning, Jr., J. Chem. Phys. 98, 1358 (1993)
            Ca : Obtained from the Peterson Research Group Website (tyr0.chem.wsu.edu/~kipeters) Feb. 2017
                 J. Koput, K. A. Peterson, J. Phys. Chem. 106, 9595 (2002)
         Sc-Zn : Obtained from the ccRepo (grant-hill.group.shef.ac.uk/ccrepo) Feb. 2017
                 N. B. Balabanov, K. A. Peterson, J. Chem. Phys. 123, 064107 (2005)
                 N. B. Balabanov, K. A. Peterson, J. Chem. Phys. 125, 074110 (2006)
         Ga-Kr : Obtained from the ccRepo (grant-hill.group.shef.ac.uk/ccrepo) Feb. 2017
                 A. K. Wilson, D. E. Woon, K. A. Peterson, T. H. Dunning, Jr., J. Chem. Phys. 110, 7667 (1999)
             Y : Obtained from the ccRepo (grant-hill.group.shef.ac.uk/ccrepo) Feb. 2017
                 K. A. Peterson, D. Figgen, M. Dolg, H. Stoll, J. Chem. Phys. 126, 124101 (2007)
        Ag, Au : Obtained from the Peterson Research Group Website (tyr0.chem.wsu.edu/~kipeters) Feb. 2017
                 K. A. Peterson, C. Puzzarini, Theor. Chem. Acc. 114, 283 (2005)

----- AuxJ basis set information -----
Your calculation utilizes the auxiliary basis: aug-cc-pVTZ/JK 
  H, B-F, Al-Cl, Ga-Br : Obtained from the TURBOMOLE 7.0 basis set library

The basis set includes element-specific modifications.

Your calculation utilizes the auxiliary basis: cc-pVTZ/JK 
  H, B-F, Al-Cl, Ga-Br : Obtained from the TURBOMOLE 7.0 basis set library

----- AuxC basis set information -----
Your calculation utilizes the auxiliary basis: aug-cc-pVTZ/C 
  H-He, B-F, Al-Ar, Ga-Kr : Obtained from the EMSL Basis Set Exchange (bse.pnl.gov) Feb. 2017
                            F. Weigend, A. Kohn, C. Hattig, J. Chem. Phys. 116, 3175 (2002)
                   Be, Mg : Obtained from the TURBOMOLE 7.0 basis set library
                            C. Haettig, Phys. Chem. Chem. Phys. 7, 59 (2005)
                       Ne : Obtained from the EMSL Basis Set Exchange (bse.pnl.gov) Feb. 2017
                            C. Haettig, Phys. Chem. Chem. Phys. 7, 59 (2005)
                            F. Weigend, A. Kohn, C. Hattig, J. Chem. Phys. 116, 3175 (2002)
                    Sc-Zn : Obtained from the EMSL Basis Set Exchange (bse.pnl.gov) Feb. 2017
                            J. G. Hill, J. A. Platts, J. Chem. Phys. 128, 044104 (2008)

The basis set includes element-specific modifications.

Your calculation utilizes the auxiliary basis: cc-pVTZ/C 
  Obtained from the EMSL Basis Set Exchange (bse.pnl.gov) Feb. 2017
  H-He, B-F, Al-Ar, Ga-Kr : F. Weigend, A. Kohn, C. Hattig, J. Chem. Phys. 116, 3175 (2002)
             Li-Be, Na-Mg : C. Haettig, Phys. Chem. Chem. Phys. 7, 59 (2005)
                       Ne : C. Haettig, Phys. Chem. Chem. Phys. 7, 59 (2005)
                            F. Weigend, A. Kohn, C. Hattig, J. Chem. Phys. 116, 3175 (2002)
                    Sc-Zn : J. G. Hill, J. A. Platts, J. Chem. Phys. 128, 044104 (2008)

================================================================================
                                        WARNINGS
                       Please study these warnings very carefully!
================================================================================


WARNING: Geometry Optimization
  ===> : Switching off AutoStart
         For restart on a previous wavefunction, please use MOREAD

INFO   : the flag for use of the SHARK integral package has been found!



***************************************
The coordinates will be read from file: 
***************************************


Your calculation utilizes the atom-pairwise dispersion correction
with the Becke-Johnson damping scheme (D3BJ)
Cite in your paper:
S.Grimme, S.Ehrlich, L.Goerigk, J Comput Chem, (2011), 32, 1456–1465 
S.Grimme, J.Antony, S.Ehrlich and H.Krieg, J.Chem.Phys., 132, (2010), 154104 
   

Your calculation utilizes the SMD solvation module
Please cite in your paper:
A.V. Marenich, C.J. Cramer, D.G. Truhlar J. Phys. Chem. B, 113, (2009), 6378 

================================================================================

----- Orbital basis set information -----
Your calculation utilizes the basis: aug-cc-pVTZ 
    H, B-Ne : Obtained from the ccRepo (grant-hill.group.shef.ac.uk/ccrepo) Feb. 2017
              R. A. Kendall, T. H. Dunning, Jr., R. J. Harrison, J. Chem. Phys. 96, 6796 (1992)
         He : Obtained from the ccRepo (grant-hill.group.shef.ac.uk/ccrepo) Feb. 2017
              D. E. Woon, T. H. Dunning, Jr., J. Chem. Phys. 100, 2975 (1994)
  Li-Be, Na : Obtained from the ccRepo (grant-hill.group.shef.ac.uk/ccrepo) Feb. 2017
              B. P. Prascher, D. E. Woon, K. A. Peterson, T. H. Dunning, Jr., A. K. Wilson, Theor. Chem. Acc. 128, 69 (2011)
         Mg : Obtained from the Peterson Research Group Website (tyr0.chem.wsu.edu/~kipeters) Feb. 2017
              B. P. Prascher, D. E. Woon, K. A. Peterson, T. H. Dunning, Jr., A. K. Wilson, Theor. Chem. Acc. 128, 69 (2011)
      Al-Ar : Obtained from the ccRepo (grant-hill.group.shef.ac.uk/ccrepo) Feb. 2017
              D. E. Woon, T. H. Dunning, Jr., J. Chem. Phys. 98, 1358 (1993)
      Sc-Zn : Obtained from the ccRepo (grant-hill.group.shef.ac.uk/ccrepo) Feb. 2017
              N. B. Balabanov, K. A. Peterson, J. Chem. Phys. 123, 064107 (2005)
              N. B. Balabanov, K. A. Peterson, J. Chem. Phys. 125, 074110 (2006)
      Ga-Kr : Obtained from the ccRepo (grant-hill.group.shef.ac.uk/ccrepo) Feb. 2017
              A. K. Wilson, D. E. Woon, K. A. Peterson, T. H. Dunning, Jr., J. Chem. Phys. 110, 7667 (1999)
     Ag, Au : Obtained from the Peterson Research Group Website (tyr0.chem.wsu.edu/~kipeters) Feb. 2017
              K. A. Peterson, C. Puzzarini, Theor. Chem. Acc. 114, 283 (2005)

The basis set includes element-specific modifications.

Your calculation utilizes the basis: cc-pVTZ 
       H, B-Ne : Obtained from the ccRepo (grant-hill.group.shef.ac.uk/ccrepo) Feb. 2017
                 T. H. Dunning, Jr., J. Chem. Phys. 90, 1007 (1989)
            He : Obtained from the ccRepo (grant-hill.group.shef.ac.uk/ccrepo) Feb. 2017
                 D. E. Woon, T. H. Dunning, Jr., J. Chem. Phys. 100, 2975 (1994)
  Li-Be, Na-Mg : Obtained from the ccRepo (grant-hill.group.shef.ac.uk/ccrepo) Feb. 2017
                 B. P. Prascher, D. E. Woon, K. A. Peterson, T. H. Dunning, Jr., A. K. Wilson, Theor. Chem. Acc. 128, 69 (2011)
         Al-Ar : Obtained from the ccRepo (grant-hill.group.shef.ac.uk/ccrepo) Feb. 2017
                 D. E. Woon, T. H. Dunning, Jr., J. Chem. Phys. 98, 1358 (1993)
            Ca : Obtained from the Peterson Research Group Website (tyr0.chem.wsu.edu/~kipeters) Feb. 2017
                 J. Koput, K. A. Peterson, J. Phys. Chem. 106, 9595 (2002)
         Sc-Zn : Obtained from the ccRepo (grant-hill.group.shef.ac.uk/ccrepo) Feb. 2017
                 N. B. Balabanov, K. A. Peterson, J. Chem. Phys. 123, 064107 (2005)
                 N. B. Balabanov, K. A. Peterson, J. Chem. Phys. 125, 074110 (2006)
         Ga-Kr : Obtained from the ccRepo (grant-hill.group.shef.ac.uk/ccrepo) Feb. 2017
                 A. K. Wilson, D. E. Woon, K. A. Peterson, T. H. Dunning, Jr., J. Chem. Phys. 110, 7667 (1999)
             Y : Obtained from the ccRepo (grant-hill.group.shef.ac.uk/ccrepo) Feb. 2017
                 K. A. Peterson, D. Figgen, M. Dolg, H. Stoll, J. Chem. Phys. 126, 124101 (2007)
        Ag, Au : Obtained from the Peterson Research Group Website (tyr0.chem.wsu.edu/~kipeters) Feb. 2017
                 K. A. Peterson, C. Puzzarini, Theor. Chem. Acc. 114, 283 (2005)

----- AuxJ basis set information -----
Your calculation utilizes the auxiliary basis: aug-cc-pVTZ/JK 
  H, B-F, Al-Cl, Ga-Br : Obtained from the TURBOMOLE 7.0 basis set library

The basis set includes element-specific modifications.

Your calculation utilizes the auxiliary basis: cc-pVTZ/JK 
  H, B-F, Al-Cl, Ga-Br : Obtained from the TURBOMOLE 7.0 basis set library

----- AuxC basis set information -----
Your calculation utilizes the auxiliary basis: aug-cc-pVTZ/C 
  H-He, B-F, Al-Ar, Ga-Kr : Obtained from the EMSL Basis Set Exchange (bse.pnl.gov) Feb. 2017
                            F. Weigend, A. Kohn, C. Hattig, J. Chem. Phys. 116, 3175 (2002)
                   Be, Mg : Obtained from the TURBOMOLE 7.0 basis set library
                            C. Haettig, Phys. Chem. Chem. Phys. 7, 59 (2005)
                       Ne : Obtained from the EMSL Basis Set Exchange (bse.pnl.gov) Feb. 2017
                            C. Haettig, Phys. Chem. Chem. Phys. 7, 59 (2005)
                            F. Weigend, A. Kohn, C. Hattig, J. Chem. Phys. 116, 3175 (2002)
                    Sc-Zn : Obtained from the EMSL Basis Set Exchange (bse.pnl.gov) Feb. 2017
                            J. G. Hill, J. A. Platts, J. Chem. Phys. 128, 044104 (2008)

The basis set includes element-specific modifications.

Your calculation utilizes the auxiliary basis: cc-pVTZ/C 
  Obtained from the EMSL Basis Set Exchange (bse.pnl.gov) Feb. 2017
  H-He, B-F, Al-Ar, Ga-Kr : F. Weigend, A. Kohn, C. Hattig, J. Chem. Phys. 116, 3175 (2002)
             Li-Be, Na-Mg : C. Haettig, Phys. Chem. Chem. Phys. 7, 59 (2005)
                       Ne : C. Haettig, Phys. Chem. Chem. Phys. 7, 59 (2005)
                            F. Weigend, A. Kohn, C. Hattig, J. Chem. Phys. 116, 3175 (2002)
                    Sc-Zn : J. G. Hill, J. A. Platts, J. Chem. Phys. 128, 044104 (2008)

================================================================================
                                        WARNINGS
                       Please study these warnings very carefully!
================================================================================

INFO   : Checking CIS options ...
  ===> : (D) CORRECTION FOUND - SETTING MODE=3
  ===> : JK MODE FOUND - ACTIVATING RI-MP2 CODE
  ===> : MP2 AND CIS FOUND - CHECKING
WARNING: CIS(D) and MP2 runs must have the same orbital window
  ===> : adjusting orbital windows

WARNING: No MP2 level density has been requested!
         To caclulate MP2 level properties use
         %mp2 Density relaxed end
         or
         %mp2 Density unrelaxed end
         Otherwise for double-hybrid DFT only the energy is correct!

WARNING: The frozen-core approximation is turned on by default for 
         the MP2 part of double-hybrid DFT.

INFO   : the flag for use of the SHARK integral package has been found!

================================================================================
                                       INPUT FILE
================================================================================
NAME = optpbed3-b2plyp-test-442.inp
|  1> ! pbe0 d3bj aug-cc-PVTZ RIJCOSX Opt
|  2> %maxcore 4000
|  3> %basis
|  4>  AuxJ "aug-cc-PVTZ/JK"
|  5>  AuxC "aug-cc-PVTZ/C"
|  6>  newGTO H "cc-PVTZ" end
|  7>  newAuxJGTO H "cc-PVTZ/JK" end
|  8>  newAuxCGTO H "cc-PVTZ/C" end
|  9> end
| 10> %cpcm
| 11>  SMD true
| 12>  SMDsolvent "n-hexane"
| 13> end
| 14> %pal nprocs 4 end
| 15> * xyz 0 1
| 16> C         -4.65050       -2.14570        0.52900
| 17> C         -3.68800       -1.01250        0.39400
| 18> C         -4.13970        0.29590        0.38340
| 19> C         -3.21750        1.33210        0.25680
| 20> C         -3.69760        2.76130        0.22330
| 21> F         -4.27850        3.06020       -0.95500
| 22> F         -4.63220        2.99520        1.16250
| 23> F         -2.72530        3.65100        0.41200
| 24> N         -1.91980        1.15220        0.13920
| 25> C         -1.47020       -0.09720        0.14850
| 26> C         -2.29980       -1.24050        0.27370
| 27> C         -1.69850       -2.53500        0.27080
| 28> C         -0.35390       -2.68260        0.14980
| 29> C          0.46690       -1.54280        0.02450
| 30> N          1.76790       -1.44630       -0.10350
| 31> C          2.05210       -0.11700       -0.18460
| 32> C          3.41900        0.34960       -0.33480
| 33> C          3.72670        1.70810       -0.40310
| 34> C          5.03570        2.12470       -0.54650
| 35> C          6.04890        1.18110       -0.62290
| 36> Cl         7.68690        1.70280       -0.80250
| 37> C          5.76390       -0.17450       -0.55680
| 38> C          4.45370       -0.58320       -0.41320
| 39> C          0.88370        0.62110       -0.10340
| 40> N         -0.12330       -0.28080        0.02890
| 41> H         -4.58990       -2.80080       -0.33890
| 42> H         -5.66750       -1.77360        0.61370
| 43> H         -4.42050       -2.73670        1.41430
| 44> H         -5.19030        0.52180        0.47500
| 45> H         -2.33100       -3.40200        0.36670
| 46> H          0.12060       -3.64960        0.14540
| 47> H          2.94090        2.44450       -0.34340
| 48> H          5.27390        3.17560       -0.59910
| 49> H          6.56280       -0.89700       -0.61750
| 50> H          4.20460       -1.63090       -0.35900
| 51> H          0.68560        1.67140       -0.12750
| 52> *
| 53> 
| 54> 
| 55> $new_job
| 56> ! b2plyp aug-cc-PVTZ RIJCOSX SP
| 57> %maxcore 4000
| 58> %basis
| 59>  AuxJ "aug-cc-PVTZ/JK"
| 60>  AuxC "aug-cc-PVTZ/C"
| 61>  newGTO H "cc-PVTZ" end
| 62>  newAuxJGTO H "cc-PVTZ/JK" end
| 63>  newAuxCGTO H "cc-PVTZ/C" end
| 64> end
| 65> %cpcm
| 66>  SMD true
| 67>  SMDsolvent "n-hexane"
| 68> end
| 69> %pal nprocs 4 end
| 70> %tddft
| 71>  nroots 10
| 72>  maxdim 7
| 73> end
| 74> * xyzfile 0 1
| 75> 
| 76>                          ****END OF INPUT****
================================================================================


                 $$$$$$$$$$$$$$$$$$$$$$$$$$$$$$$$$$$$$$$$$$$$$$ 
                 $ THERE ARE  2 JOBS TO BE PROCESSED THIS RUN $
                 $$$$$$$$$$$$$$$$$$$$$$$$$$$$$$$$$$$$$$$$$$$$$$ 




                 $$$$$$$$$$$$$$$$  JOB NUMBER  1 $$$$$$$$$$$$$$


                       *****************************
                       * Geometry Optimization Run *
                       *****************************

Geometry optimization settings:
Update method            Update   .... BFGS
Choice of coordinates    CoordSys .... Z-matrix Internals
Initial Hessian          InHess   .... Almoef's Model

Convergence Tolerances:
Energy Change            TolE     ....  5.0000e-06 Eh
Max. Gradient            TolMAXG  ....  3.0000e-04 Eh/bohr
RMS Gradient             TolRMSG  ....  1.0000e-04 Eh/bohr
Max. Displacement        TolMAXD  ....  4.0000e-03 bohr
RMS Displacement         TolRMSD  ....  2.0000e-03 bohr
Strict Convergence                ....  False
------------------------------------------------------------------------------
                        ORCA OPTIMIZATION COORDINATE SETUP
------------------------------------------------------------------------------

The optimization will be done in new redundant internal coordinates
Making redundant internal coordinates   ...  (new redundants) done
Evaluating the initial hessian          ...  (Almloef) done
Evaluating the coordinates              ...  done
Calculating the B-matrix                .... done
Calculating the G-matrix                .... done
Diagonalizing the G-matrix              .... done
Small eigenvalue found = 3.910e-03
Small eigenvalue found = 1.853e-02
Small eigenvalue found = 2.014e-02
Small eigenvalue found = 2.754e-02
Small eigenvalue found = 2.881e-02
The first mode is                       ....   94
The number of degrees of freedom        ....  102

    -----------------------------------------------------------------
                    Redundant Internal Coordinates


    -----------------------------------------------------------------
         Definition                    Initial Value    Approx d2E/dq
    -----------------------------------------------------------------
      1. B(C   1,C   0)                  1.4929         0.428110   
      2. B(C   2,C   1)                  1.3842         0.638213   
      3. B(C   3,C   2)                  1.3929         0.618159   
      4. B(C   4,C   3)                  1.5081         0.404938   
      5. B(F   5,C   4)                  1.3473         0.608297   
      6. B(F   6,C   4)                  1.3455         0.612372   
      7. B(F   7,C   4)                  1.3314         0.644926   
      8. B(N   8,C   3)                  1.3154         0.736089   
      9. B(C   9,N   8)                  1.3279         0.703084   
     10. B(C  10,C   9)                  1.4181         0.563489   
     11. B(C  10,C   1)                  1.4119         0.576429   
     12. B(C  11,C  10)                  1.4273         0.544709   
     13. B(C  12,C  11)                  1.3581         0.702535   
     14. B(C  13,C  12)                  1.4102         0.580192   
     15. B(N  14,C  13)                  1.3108         0.748467   
     16. B(C  15,N  14)                  1.3618         0.620774   
     17. B(C  16,C  15)                  1.4521         0.497289   
     18. B(C  17,C  16)                  1.3946         0.614361   
     19. B(C  18,C  17)                  1.3812         0.645422   
     20. B(C  19,C  18)                  1.3866         0.632538   
     21. B(Cl 20,C  19)                  1.7284         0.404381   
     22. B(C  21,C  19)                  1.3868         0.632158   
     23. B(C  22,C  21)                  1.3800         0.648279   
     24. B(C  22,C  16)                  1.3953         0.612746   
     25. B(C  23,C  15)                  1.3844         0.637800   
     26. B(N  24,C  23)                  1.3583         0.628713   
     27. B(N  24,C  13)                  1.3932         0.553062   
     28. B(N  24,C   9)                  1.3646         0.614311   
     29. B(H  25,C   0)                  1.0891         0.361329   
     30. B(H  26,C   0)                  1.0862         0.365106   
     31. B(H  27,C   0)                  1.0890         0.361415   
     32. B(H  28,C   2)                  1.0785         0.375627   
     33. B(H  29,C  11)                  1.0775         0.377063   
     34. B(H  30,C  12)                  1.0772         0.377502   
     35. B(H  31,C  17)                  1.0786         0.375531   
     36. B(H  32,C  18)                  1.0788         0.375169   
     37. B(H  33,C  21)                  1.0789         0.375147   
     38. B(H  34,C  22)                  1.0783         0.375958   
     39. B(H  35,C  23)                  1.0691         0.388851   
     40. A(C   1,C   0,H  27)          110.4435         0.331890   
     41. A(C   1,C   0,H  26)          110.5270         0.332449   
     42. A(H  26,C   0,H  27)          108.6783         0.291638   
     43. A(H  25,C   0,H  26)          108.6806         0.291627   
     44. A(H  25,C   0,H  27)          108.0383         0.291162   
     45. A(C   1,C   0,H  25)          110.4048         0.331877   
     46. A(C   0,C   1,C  10)          121.2659         0.401131   
     47. A(C   2,C   1,C  10)          118.2175         0.430653   
     48. A(C   0,C   1,C   2)          120.5166         0.408407   
     49. A(C   1,C   2,H  28)          121.0115         0.357194   
     50. A(C   1,C   2,C   3)          119.1970         0.436101   
     51. A(C   3,C   2,H  28)          119.7911         0.355263   
     52. A(C   4,C   3,N   8)          116.2129         0.412081   
     53. A(C   2,C   3,N   8)          124.0250         0.444543   
     54. A(C   2,C   3,C   4)          119.7527         0.402139   
     55. A(C   3,C   4,F   6)          111.7394         0.397171   
     56. A(F   5,C   4,F   6)          105.8088         0.422251   
     57. A(C   3,C   4,F   5)          111.5273         0.396706   
     58. A(C   3,C   4,F   7)          113.4327         0.400805   
     59. A(F   6,C   4,F   7)          106.9884         0.426691   
     60. A(F   5,C   4,F   7)          106.8927         0.426181   
     61. A(C   3,N   8,C   9)          117.5225         0.452043   
     62. A(C  10,C   9,N  24)          118.4687         0.423205   
     63. A(N   8,C   9,N  24)          117.3984         0.437482   
     64. A(N   8,C   9,C  10)          124.1329         0.433573   
     65. A(C   1,C  10,C   9)          116.9044         0.421158   
     66. A(C   9,C  10,C  11)          118.9832         0.416930   
     67. A(C   1,C  10,C  11)          124.1123         0.418620   
     68. A(C  12,C  11,H  29)          120.1108         0.363324   
     69. A(C  10,C  11,H  29)          118.8355         0.347972   
     70. A(C  10,C  11,C  12)          121.0537         0.433715   
     71. A(C  11,C  12,H  30)          122.2811         0.363396   
     72. A(C  13,C  12,H  30)          117.9597         0.351767   
     73. A(C  11,C  12,C  13)          119.7591         0.438674   
     74. A(C  12,C  13,N  14)          130.2311         0.440804   
     75. A(N  14,C  13,N  24)          110.7367         0.434148   
     76. A(C  12,C  13,N  24)          119.0322         0.417519   
     77. A(C  13,N  14,C  15)          106.5476         0.443289   
     78. A(N  14,C  15,C  16)          121.0826         0.414655   
     79. A(C  16,C  15,C  23)          128.9907         0.419374   
     80. A(N  14,C  15,C  23)          109.9267         0.433523   
     81. A(C  17,C  16,C  22)          119.0034         0.432437   
     82. A(C  15,C  16,C  17)          121.7195         0.416586   
     83. A(C  15,C  16,C  22)          119.2771         0.416390   
     84. A(C  16,C  17,H  31)          120.1077         0.354877   
     85. A(C  16,C  17,C  18)          120.5322         0.436500   
     86. A(C  18,C  17,H  31)          119.3601         0.357862   
     87. A(C  19,C  18,H  32)          119.9240         0.356579   
     88. A(C  17,C  18,H  32)          120.5399         0.357803   
     89. A(C  17,C  18,C  19)          119.5361         0.438800   
     90. A(Cl 20,C  19,C  21)          119.6532         0.421782   
     91. A(C  18,C  19,C  21)          120.8230         0.437160   
     92. A(C  18,C  19,Cl 20)          119.5237         0.421827   
     93. A(C  22,C  21,H  33)          120.7029         0.358068   
     94. A(C  19,C  21,H  33)          119.9839         0.356539   
     95. A(C  19,C  21,C  22)          119.3131         0.439103   
     96. A(C  21,C  22,H  34)          120.8201         0.358200   
     97. A(C  16,C  22,H  34)          118.3879         0.354787   
     98. A(C  16,C  22,C  21)          120.7921         0.436640   
     99. A(C  15,C  23,N  24)          106.1051         0.434516   
    100. A(N  24,C  23,H  35)          121.1408         0.356170   
    101. A(C  15,C  23,H  35)          132.7540         0.359263   
    102. A(C  13,N  24,C  23)          106.6839         0.420793   
    103. A(C   9,N  24,C  23)          130.6132         0.428775   
    104. A(C   9,N  24,C  13)          122.7030         0.419057   
    105. D(C  10,C   1,C   0,H  27)     59.4336         0.013539   
    106. D(C  10,C   1,C   0,H  26)    179.7332         0.013539   
    107. D(C   2,C   1,C   0,H  26)     -0.2875         0.013539   
    108. D(C   2,C   1,C   0,H  25)    119.9898         0.013539   
    109. D(C   2,C   1,C   0,H  27)   -120.5871         0.013539   
    110. D(C  10,C   1,C   0,H  25)    -59.9895         0.013539   
    111. D(C   3,C   2,C   1,C   0)    179.9646         0.028289   
    112. D(C   3,C   2,C   1,C  10)     -0.0555         0.028289   
    113. D(H  28,C   2,C   1,C   0)      0.1870         0.028289   
    114. D(H  28,C   2,C   1,C  10)   -179.8331         0.028289   
    115. D(N   8,C   3,C   2,H  28)   -179.9610         0.026432   
    116. D(N   8,C   3,C   2,C   1)      0.2587         0.026432   
    117. D(C   4,C   3,C   2,H  28)     -1.1207         0.026432   
    118. D(C   4,C   3,C   2,C   1)    179.0990         0.026432   
    119. D(F   5,C   4,C   3,C   2)    -73.9689         0.012156   
    120. D(F   7,C   4,C   3,N   8)    -15.7983         0.012156   
    121. D(F   6,C   4,C   3,N   8)   -136.8390         0.012156   
    122. D(F   7,C   4,C   3,C   2)    165.2731         0.012156   
    123. D(F   6,C   4,C   3,C   2)     44.2324         0.012156   
    124. D(F   5,C   4,C   3,N   8)    104.9598         0.012156   
    125. D(C   9,N   8,C   3,C   2)     -0.2983         0.040987   
    126. D(C   9,N   8,C   3,C   4)   -179.1761         0.040987   
    127. D(N  24,C   9,N   8,C   3)   -179.8782         0.037050   
    128. D(C  10,C   9,N   8,C   3)      0.1469         0.037050   
    129. D(C   1,C  10,C   9,N  24)   -179.9377         0.021760   
    130. D(C   1,C  10,C   9,N   8)      0.0370         0.021760   
    131. D(C  11,C  10,C   1,C   2)    179.9511         0.022815   
    132. D(C  11,C  10,C   1,C   0)     -0.0692         0.022815   
    133. D(C   9,C  10,C   1,C   2)     -0.0783         0.022815   
    134. D(C  11,C  10,C   9,N   8)   -179.9908         0.021760   
    135. D(C   9,C  10,C   1,C   0)    179.9015         0.022815   
    136. D(C  11,C  10,C   9,N  24)      0.0346         0.021760   
    137. D(H  29,C  11,C  10,C   9)    179.9614         0.020285   
    138. D(H  29,C  11,C  10,C   1)     -0.0685         0.020285   
    139. D(C  12,C  11,C  10,C   9)     -0.0419         0.020285   
    140. D(C  12,C  11,C  10,C   1)    179.9283         0.020285   
    141. D(H  30,C  12,C  11,H  29)     -0.0134         0.034782   
    142. D(H  30,C  12,C  11,C  10)    179.9899         0.034782   
    143. D(C  13,C  12,C  11,H  29)    179.9889         0.034782   
    144. D(C  13,C  12,C  11,C  10)     -0.0078         0.034782   
    145. D(N  24,C  13,C  12,H  30)   -179.9343         0.023128   
    146. D(N  24,C  13,C  12,C  11)      0.0635         0.023128   
    147. D(N  14,C  13,C  12,H  30)      0.0543         0.023128   
    148. D(N  14,C  13,C  12,C  11)   -179.9479         0.023128   
    149. D(C  15,N  14,C  13,N  24)      0.0275         0.042528   
    150. D(C  15,N  14,C  13,C  12)   -179.9619         0.042528   
    151. D(C  23,C  15,N  14,C  13)     -0.0111         0.028278   
    152. D(C  16,C  15,N  14,C  13)   -179.9596         0.028278   
    153. D(C  22,C  16,C  15,C  23)   -179.1535         0.016842   
    154. D(C  22,C  16,C  15,N  14)      0.7842         0.016842   
    155. D(C  17,C  16,C  15,C  23)      0.8424         0.016842   
    156. D(C  17,C  16,C  15,N  14)   -179.2199         0.016842   
    157. D(H  31,C  17,C  16,C  22)   -179.9433         0.026089   
    158. D(H  31,C  17,C  16,C  15)      0.0608         0.026089   
    159. D(C  18,C  17,C  16,C  22)      0.0148         0.026089   
    160. D(C  18,C  17,C  16,C  15)   -179.9811         0.026089   
    161. D(H  32,C  18,C  17,H  31)     -0.0261         0.028976   
    162. D(H  32,C  18,C  17,C  16)   -179.9845         0.028976   
    163. D(C  19,C  18,C  17,H  31)    179.9653         0.028976   
    164. D(C  19,C  18,C  17,C  16)      0.0069         0.028976   
    165. D(C  21,C  19,C  18,C  17)     -0.0151         0.027756   
    166. D(Cl 20,C  19,C  18,H  32)     -0.0141         0.027756   
    167. D(Cl 20,C  19,C  18,C  17)    179.9944         0.027756   
    168. D(C  21,C  19,C  18,H  32)    179.9764         0.027756   
    169. D(H  33,C  21,C  19,Cl 20)     -0.0014         0.027720   
    170. D(H  33,C  21,C  19,C  18)   -179.9919         0.027720   
    171. D(C  22,C  21,C  19,Cl 20)    179.9915         0.027720   
    172. D(C  22,C  21,C  19,C  18)      0.0010         0.027720   
    173. D(H  34,C  22,C  21,H  33)      0.0052         0.029251   
    174. D(H  34,C  22,C  21,C  19)   -179.9876         0.029251   
    175. D(C  16,C  22,C  21,H  33)   -179.9859         0.029251   
    176. D(C  16,C  22,C  21,C  19)      0.0213         0.029251   
    177. D(H  34,C  22,C  16,C  17)    179.9796         0.025944   
    178. D(H  34,C  22,C  16,C  15)     -0.0244         0.025944   
    179. D(C  21,C  22,C  16,C  17)     -0.0291         0.025944   
    180. D(C  21,C  22,C  16,C  15)    179.9669         0.025944   
    181. D(H  35,C  23,C  15,C  16)     -0.0385         0.028250   
    182. D(H  35,C  23,C  15,N  14)   -179.9818         0.028250   
    183. D(N  24,C  23,C  15,C  16)    179.9337         0.028250   
    184. D(N  24,C  23,C  15,N  14)     -0.0096         0.028250   
    185. D(C  13,N  24,C  23,H  35)   -179.9986         0.032079   
    186. D(C   9,N  24,C  23,H  35)      0.0334         0.032079   
    187. D(C   9,N  24,C  23,C  15)   -179.9427         0.032079   
    188. D(C  23,N  24,C  13,N  14)     -0.0338         0.024394   
    189. D(C  23,N  24,C  13,C  12)    179.9568         0.024394   
    190. D(C   9,N  24,C  13,N  14)    179.9373         0.024394   
    191. D(C   9,N  24,C  13,C  12)     -0.0720         0.024394   
    192. D(C  23,N  24,C   9,C  10)    179.9858         0.030515   
    193. D(C  23,N  24,C   9,N   8)      0.0094         0.030515   
    194. D(C  13,N  24,C  23,C  15)      0.0252         0.032079   
    195. D(C  13,N  24,C   9,C  10)      0.0222         0.030515   
    196. D(C  13,N  24,C   9,N   8)   -179.9541         0.030515   
    -----------------------------------------------------------------

Number of atoms                         .... 36
Number of degrees of freedom            .... 196

         *************************************************************
         *                GEOMETRY OPTIMIZATION CYCLE   1            *
         *************************************************************
---------------------------------
CARTESIAN COORDINATES (ANGSTROEM)
---------------------------------
  C     -4.650500   -2.145700    0.529000
  C     -3.688000   -1.012500    0.394000
  C     -4.139700    0.295900    0.383400
  C     -3.217500    1.332100    0.256800
  C     -3.697600    2.761300    0.223300
  F     -4.278500    3.060200   -0.955000
  F     -4.632200    2.995200    1.162500
  F     -2.725300    3.651000    0.412000
  N     -1.919800    1.152200    0.139200
  C     -1.470200   -0.097200    0.148500
  C     -2.299800   -1.240500    0.273700
  C     -1.698500   -2.535000    0.270800
  C     -0.353900   -2.682600    0.149800
  C      0.466900   -1.542800    0.024500
  N      1.767900   -1.446300   -0.103500
  C      2.052100   -0.117000   -0.184600
  C      3.419000    0.349600   -0.334800
  C      3.726700    1.708100   -0.403100
  C      5.035700    2.124700   -0.546500
  C      6.048900    1.181100   -0.622900
  Cl     7.686900    1.702800   -0.802500
  C      5.763900   -0.174500   -0.556800
  C      4.453700   -0.583200   -0.413200
  C      0.883700    0.621100   -0.103400
  N     -0.123300   -0.280800    0.028900
  H     -4.589900   -2.800800   -0.338900
  H     -5.667500   -1.773600    0.613700
  H     -4.420500   -2.736700    1.414300
  H     -5.190300    0.521800    0.475000
  H     -2.331000   -3.402000    0.366700
  H      0.120600   -3.649600    0.145400
  H      2.940900    2.444500   -0.343400
  H      5.273900    3.175600   -0.599100
  H      6.562800   -0.897000   -0.617500
  H      4.204600   -1.630900   -0.359000
  H      0.685600    1.671400   -0.127500

----------------------------
CARTESIAN COORDINATES (A.U.)
----------------------------
  NO LB      ZA    FRAG     MASS         X           Y           Z
   0 C     6.0000    0    12.011   -8.788171   -4.054785    0.999665
   1 C     6.0000    0    12.011   -6.969310   -1.913348    0.744552
   2 C     6.0000    0    12.011   -7.822899    0.559170    0.724521
   3 C     6.0000    0    12.011   -6.080194    2.517304    0.485282
   4 C     6.0000    0    12.011   -6.987451    5.218101    0.421976
   5 F     9.0000    0    18.998   -8.085193    5.782940   -1.804688
   6 F     9.0000    0    18.998   -8.753589    5.660108    2.196807
   7 F     9.0000    0    18.998   -5.150071    6.899390    0.778567
   8 N     7.0000    0    14.007   -3.627896    2.177342    0.263050
   9 C     6.0000    0    12.011   -2.778275   -0.183681    0.280624
  10 C     6.0000    0    12.011   -4.345992   -2.344205    0.517218
  11 C     6.0000    0    12.011   -3.209700   -4.790456    0.511738
  12 C     6.0000    0    12.011   -0.668774   -5.069379    0.283081
  13 C     6.0000    0    12.011    0.882313   -2.915469    0.046298
  14 N     7.0000    0    14.007    3.340847   -2.733111   -0.195587
  15 C     6.0000    0    12.011    3.877907   -0.221098   -0.348843
  16 C     6.0000    0    12.011    6.460974    0.660648   -0.632680
  17 C     6.0000    0    12.011    7.042442    3.227841   -0.761749
  18 C     6.0000    0    12.011    9.516094    4.015101   -1.032735
  19 C     6.0000    0    12.011   11.430764    2.231956   -1.177110
  20 Cl   17.0000    0    35.453   14.526136    3.217826   -1.516505
  21 C     6.0000    0    12.011   10.892192   -0.329757   -1.052200
  22 C     6.0000    0    12.011    8.416273   -1.102088   -0.780835
  23 C     6.0000    0    12.011    1.669951    1.173709   -0.195398
  24 N     7.0000    0    14.007   -0.233003   -0.530635    0.054613
  25 H     1.0000    0     1.008   -8.673654   -5.292745   -0.640428
  26 H     1.0000    0     1.008  -10.710023   -3.351618    1.159725
  27 H     1.0000    0     1.008   -8.353534   -5.171614    2.672640
  28 H     1.0000    0     1.008   -9.808246    0.986059    0.897620
  29 H     1.0000    0     1.008   -4.404952   -6.428848    0.692963
  30 H     1.0000    0     1.008    0.227901   -6.896744    0.274766
  31 H     1.0000    0     1.008    5.557496    4.619436   -0.648932
  32 H     1.0000    0     1.008    9.966227    6.001014   -1.132135
  33 H     1.0000    0     1.008   12.401895   -1.695084   -1.166906
  34 H     1.0000    0     1.008    7.945543   -3.081954   -0.678412
  35 H     1.0000    0     1.008    1.295596    3.158488   -0.240940

--------------------------------
INTERNAL COORDINATES (ANGSTROEM)
--------------------------------
 C      0   0   0     0.000000000000     0.00000000     0.00000000
 C      1   0   0     1.492907729902     0.00000000     0.00000000
 C      2   1   0     1.384216677403   120.51662660     0.00000000
 C      3   2   1     1.392907333601   119.19704296   179.96455423
 C      4   3   2     1.508055337181   119.75272679   179.09895898
 F      5   4   3     1.347285014390   111.52731156   286.03112874
 F      5   4   3     1.345467580434   111.73943373    44.23236400
 F      5   4   3     1.331368119642   113.43272269   165.27307561
 N      4   3   2     1.315377915278   124.02496461     0.25867608
 C      9   4   3     1.327865584312   117.52250074   359.70166181
 C      2   1   3     1.411933188929   121.26585181   180.02071126
 C     11   2   1     1.427340306304   124.11231409   359.93080653
 C     12  11   2     1.358078024268   121.05370271   179.92825874
 C     13  12  11     1.410161965875   119.75914334     0.00000000
 N     14  13  12     1.310838376765   130.23105044   180.05211013
 C     15  14  13     1.361758179707   106.54761953   180.03812368
 C     16  15  14     1.452133330655   121.08255650   180.04040808
 C     17  16  15     1.394584680111   121.71946262   180.78013693
 C     18  17  16     1.381158977091   120.53221840   180.01888253
 C     19  18  17     1.386647813974   119.53611572     0.00000000
 Cl    20  19  18     1.728430227114   119.52372192   179.99440947
 C     20  19  18     1.386811295743   120.82303622     0.00000000
 C     22  20  19     1.379956771062   119.31311824     0.00000000
 C     16  15  14     1.384392866928   109.92668022     0.00000000
 N     24  16  15     1.358298899359   106.10511678     0.00000000
 H      1   2   3     1.089072440199   110.40478905   119.98982035
 H      1   2   3     1.086241915965   110.52702315   359.71251124
 H      1   2   3     1.089007387486   110.44353223   239.41286603
 H      3   2   1     1.078509031024   121.01152256     0.18697623
 H     12  11   2     1.077470213045   118.83546867   359.93153654
 H     13  12  11     1.077153011415   122.28113254   179.98991244
 H     18  17  16     1.078578087113   120.10768717     0.06081821
 H     19  18  17     1.078840493308   120.53990169   180.01547724
 H     22  20  19     1.078856779188   119.98394292   180.00811204
 H     23  22  20     1.078268862576   120.82005701   180.01236077
 H     24  16  15     1.069090505991   132.75402951   180.01819010

---------------------------
INTERNAL COORDINATES (A.U.)
---------------------------
 C      0   0   0     0.000000000000     0.00000000     0.00000000
 C      1   0   0     2.821186752728     0.00000000     0.00000000
 C      2   1   0     2.615790430298   120.51662660     0.00000000
 C      3   2   1     2.632213390437   119.19704296   179.96455423
 C      4   3   2     2.849811582070   119.75272679   179.09895898
 F      5   4   3     2.545999701533   111.52731156   286.03112874
 F      5   4   3     2.542565249091   111.73943373    44.23236400
 F      5   4   3     2.515921129558   113.43272269   165.27307561
 N      4   3   2     2.485704022483   124.02496461     0.25867608
 C      9   4   3     2.509302297009   117.52250074   359.70166181
 C      2   1   3     2.668167046470   121.26585181   180.02071126
 C     11   2   1     2.697282278822   124.11231409   359.93080653
 C     12  11   2     2.566395534364   121.05370271   179.92825874
 C     13  12  11     2.664819919975   119.75914334     0.00000000
 N     14  13  12     2.477125537920   130.23105044   180.05211013
 C     15  14  13     2.573350020274   106.54761953   180.03812368
 C     16  15  14     2.744134304877   121.08255650   180.04040808
 C     17  16  15     2.635383115972   121.71946262   180.78013693
 C     18  17  16     2.610012214109   120.53221840   180.01888253
 C     19  18  17     2.620384612612   119.53611572     0.00000000
 Cl    20  19  18     3.266259770836   119.52372192   179.99440947
 C     20  19  18     2.620693548382   120.82303622     0.00000000
 C     22  20  19     2.607740373958   119.31311824     0.00000000
 C     16  15  14     2.616123380247   109.92668022     0.00000000
 N     24  16  15     2.566812927795   106.10511678     0.00000000
 H      1   2   3     2.058048651977   110.40478905   119.98982035
 H      1   2   3     2.052699736360   110.52702315   359.71251124
 H      1   2   3     2.057925720166   110.44353223   239.41286603
 H      3   2   1     2.038086701596   121.01152256     0.18697623
 H     12  11   2     2.036123620114   118.83546867   359.93153654
 H     13  12  11     2.035524195903   122.28113254   179.98991244
 H     18  17  16     2.038217198692   120.10768717     0.06081821
 H     19  18  17     2.038713074536   120.53990169   180.01547724
 H     22  20  19     2.038743850390   119.98394292   180.00811204
 H     23  22  20     2.037632849003   120.82005701   180.01236077
 H     24  16  15     2.020288268698   132.75402951   180.01819010

---------------------
BASIS SET INFORMATION
---------------------
There are 5 groups of distinct atoms

 Group   1 Type C   : 19s6p3d2f contracted to 5s4p3d2f pattern {88111/3111/111/11}
 Group   2 Type F   : 19s6p3d2f contracted to 5s4p3d2f pattern {88111/3111/111/11}
 Group   3 Type N   : 19s6p3d2f contracted to 5s4p3d2f pattern {88111/3111/111/11}
 Group   4 Type Cl  : 42s17p3d2f contracted to 6s5p3d2f pattern {131313111/77111/111/11}
 Group   5 Type H   : 5s2p1d contracted to 3s2p1d pattern {311/11/1}

Atom   0C    basis set group =>   1
Atom   1C    basis set group =>   1
Atom   2C    basis set group =>   1
Atom   3C    basis set group =>   1
Atom   4C    basis set group =>   1
Atom   5F    basis set group =>   2
Atom   6F    basis set group =>   2
Atom   7F    basis set group =>   2
Atom   8N    basis set group =>   3
Atom   9C    basis set group =>   1
Atom  10C    basis set group =>   1
Atom  11C    basis set group =>   1
Atom  12C    basis set group =>   1
Atom  13C    basis set group =>   1
Atom  14N    basis set group =>   3
Atom  15C    basis set group =>   1
Atom  16C    basis set group =>   1
Atom  17C    basis set group =>   1
Atom  18C    basis set group =>   1
Atom  19C    basis set group =>   1
Atom  20Cl   basis set group =>   4
Atom  21C    basis set group =>   1
Atom  22C    basis set group =>   1
Atom  23C    basis set group =>   1
Atom  24N    basis set group =>   3
Atom  25H    basis set group =>   5
Atom  26H    basis set group =>   5
Atom  27H    basis set group =>   5
Atom  28H    basis set group =>   5
Atom  29H    basis set group =>   5
Atom  30H    basis set group =>   5
Atom  31H    basis set group =>   5
Atom  32H    basis set group =>   5
Atom  33H    basis set group =>   5
Atom  34H    basis set group =>   5
Atom  35H    basis set group =>   5
---------------------------------
AUXILIARY/J BASIS SET INFORMATION
---------------------------------
There are 5 groups of distinct atoms

 Group   1 Type C   : 10s7p5d2f1g contracted to 10s7p5d2f1g pattern {1111111111/1111111/11111/11/1}
 Group   2 Type F   : 10s7p5d2f1g contracted to 10s7p5d2f1g pattern {1111111111/1111111/11111/11/1}
 Group   3 Type N   : 10s7p5d2f1g contracted to 10s7p5d2f1g pattern {1111111111/1111111/11111/11/1}
 Group   4 Type Cl  : 13s11p9d3f1g contracted to 13s11p9d3f1g pattern {1111111111111/11111111111/111111111/111/1}
 Group   5 Type H   : 4s3p2d1f contracted to 4s3p2d1f pattern {1111/111/11/1}

Atom   0C    basis set group =>   1
Atom   1C    basis set group =>   1
Atom   2C    basis set group =>   1
Atom   3C    basis set group =>   1
Atom   4C    basis set group =>   1
Atom   5F    basis set group =>   2
Atom   6F    basis set group =>   2
Atom   7F    basis set group =>   2
Atom   8N    basis set group =>   3
Atom   9C    basis set group =>   1
Atom  10C    basis set group =>   1
Atom  11C    basis set group =>   1
Atom  12C    basis set group =>   1
Atom  13C    basis set group =>   1
Atom  14N    basis set group =>   3
Atom  15C    basis set group =>   1
Atom  16C    basis set group =>   1
Atom  17C    basis set group =>   1
Atom  18C    basis set group =>   1
Atom  19C    basis set group =>   1
Atom  20Cl   basis set group =>   4
Atom  21C    basis set group =>   1
Atom  22C    basis set group =>   1
Atom  23C    basis set group =>   1
Atom  24N    basis set group =>   3
Atom  25H    basis set group =>   5
Atom  26H    basis set group =>   5
Atom  27H    basis set group =>   5
Atom  28H    basis set group =>   5
Atom  29H    basis set group =>   5
Atom  30H    basis set group =>   5
Atom  31H    basis set group =>   5
Atom  32H    basis set group =>   5
Atom  33H    basis set group =>   5
Atom  34H    basis set group =>   5
Atom  35H    basis set group =>   5
---------------------------------
AUXILIARY/C BASIS SET INFORMATION
---------------------------------
There are 5 groups of distinct atoms

 Group   1 Type C   : 9s7p6d4f2g contracted to 9s7p6d4f2g pattern {111111111/1111111/111111/1111/11}
 Group   2 Type F   : 9s7p6d4f2g contracted to 9s7p6d4f2g pattern {111111111/1111111/111111/1111/11}
 Group   3 Type N   : 9s7p6d4f2g contracted to 9s7p6d4f2g pattern {111111111/1111111/111111/1111/11}
 Group   4 Type Cl  : 11s9p8d6f3g contracted to 11s9p8d6f3g pattern {11111111111/111111111/11111111/111111/111}
 Group   5 Type H   : 4s3p2d1f contracted to 4s3p2d1f pattern {1111/111/11/1}

Atom   0C    basis set group =>   1
Atom   1C    basis set group =>   1
Atom   2C    basis set group =>   1
Atom   3C    basis set group =>   1
Atom   4C    basis set group =>   1
Atom   5F    basis set group =>   2
Atom   6F    basis set group =>   2
Atom   7F    basis set group =>   2
Atom   8N    basis set group =>   3
Atom   9C    basis set group =>   1
Atom  10C    basis set group =>   1
Atom  11C    basis set group =>   1
Atom  12C    basis set group =>   1
Atom  13C    basis set group =>   1
Atom  14N    basis set group =>   3
Atom  15C    basis set group =>   1
Atom  16C    basis set group =>   1
Atom  17C    basis set group =>   1
Atom  18C    basis set group =>   1
Atom  19C    basis set group =>   1
Atom  20Cl   basis set group =>   4
Atom  21C    basis set group =>   1
Atom  22C    basis set group =>   1
Atom  23C    basis set group =>   1
Atom  24N    basis set group =>   3
Atom  25H    basis set group =>   5
Atom  26H    basis set group =>   5
Atom  27H    basis set group =>   5
Atom  28H    basis set group =>   5
Atom  29H    basis set group =>   5
Atom  30H    basis set group =>   5
Atom  31H    basis set group =>   5
Atom  32H    basis set group =>   5
Atom  33H    basis set group =>   5
Atom  34H    basis set group =>   5
Atom  35H    basis set group =>   5


           ************************************************************
           *        Program running with 4 parallel MPI-processes     *
           *              working on a common directory               *
           ************************************************************
------------------------------------------------------------------------------
                           ORCA GTO INTEGRAL CALCULATION
                           -- RI-GTO INTEGRALS CHOSEN --
------------------------------------------------------------------------------
------------------------------------------------------------------------------
                   ___                                                        
                  /   \      - P O W E R E D   B Y -                         
                 /     \                                                     
                 |  |  |   _    _      __       _____    __    __             
                 |  |  |  | |  | |    /  \     |  _  \  |  |  /  |          
                  \  \/   | |  | |   /    \    | | | |  |  | /  /          
                 / \  \   | |__| |  /  /\  \   | |_| |  |  |/  /          
                |  |  |   |  __  | /  /__\  \  |    /   |      \           
                |  |  |   | |  | | |   __   |  |    \   |  |\   \          
                \     /   | |  | | |  |  |  |  | |\  \  |  | \   \       
                 \___/    |_|  |_| |__|  |__|  |_| \__\ |__|  \__/        
                                                                              
                      - O R C A' S   B I G   F R I E N D -                    
                                      &                                       
                       - I N T E G R A L  F E E D E R -                       
                                                                              
 v1 FN, 2020, v2 2021                                                         
------------------------------------------------------------------------------


Reading SHARK input file optpbed3-b2plyp-test-442.SHARKINP.tmp ... ok
----------------------
SHARK INTEGRAL PACKAGE
----------------------

Number of atoms                             ...     36
Number of basis functions                   ...   1477
Number of shells                            ...    577
Maximum angular momentum                    ...      3
Integral batch strategy                     ... SHARK/LIBINT Hybrid
RI-J (if used) integral strategy            ... SPLIT-RIJ (Revised 2003 algorithm where possible)
Printlevel                                  ...      1
Contraction scheme used                     ... PARTIAL GENERAL contraction
Coulomb Range Separation                    ... NOT USED
Exchange Range Separation                   ... NOT USED
Finite Nucleus Model                        ... NOT USED
Auxiliary Coulomb fitting basis             ... AVAILABLE
   # of basis functions in Aux-J            ...   2347
   # of shells in Aux-J                     ...    747
   Maximum angular momentum in Aux-J        ...      4
Auxiliary J/K fitting basis                 ... NOT available
Auxiliary Correlation fitting basis         ... AVAILABLE
   # of basis functions in Aux-C            ...   3021
   # of shells in Aux-C                     ...    819
   Maximum angular momentum in Aux-C        ...      4
Auxiliary 'external' fitting basis          ... NOT available
Integral threshold                          ...     2.500000e-11
Primitive cut-off                           ...     2.500000e-12
Primitive pair pre-selection threshold      ...     2.500000e-12

Calculating pre-screening integrals         ... done (  0.3 sec) Dimension = 577
Calculating pre-screening integrals (ORCA)  ... done (  0.8 sec) Dimension = 418
Organizing shell pair data                  ... done (  1.8 sec)
Shell pair information
Total number of shell pairs                 ...    166753
Shell pairs after pre-screening             ...     95473
Total number of primitive shell pairs       ...    209733
Primitive shell pairs kept                  ...    109547
          la=0 lb=0:  20996 shell pairs
          la=1 lb=0:  24681 shell pairs
          la=1 lb=1:   6116 shell pairs
          la=2 lb=0:  15880 shell pairs
          la=2 lb=1:   7989 shell pairs
          la=2 lb=2:   2694 shell pairs
          la=3 lb=0:   8731 shell pairs
          la=3 lb=1:   4504 shell pairs
          la=3 lb=2:   3002 shell pairs
          la=3 lb=3:    880 shell pairs

Calculating one electron integrals          ... done (  0.3 sec)
Calculating RI/J V-Matrix + Cholesky decomp.... done (  0.5 sec)
Calculating RI/C V-Matrix + Cholesky decomp.... done (  0.7 sec)
Calculating Nuclear repulsion               ... done (  0.0 sec) ENN=   2146.543609296742 Eh

SHARK setup successfully completed in   6.2 seconds

Maximum memory used throughout the entire GTOINT-calculation: 155.9 MB


           ************************************************************
           *        Program running with 4 parallel MPI-processes     *
           *              working on a common directory               *
           ************************************************************
-------------------------------------------------------------------------------
                                 ORCA SCF
-------------------------------------------------------------------------------

------------
SCF SETTINGS
------------
Hamiltonian:
 Density Functional     Method          .... DFT(GTOs)
 Exchange Functional    Exchange        .... PBE
   PBE kappa parameter   XKappa         ....  0.804000
   PBE mue parameter    XMuePBE         ....  0.219520
 Correlation Functional Correlation     .... PBE
   PBE beta parameter  CBetaPBE         ....  0.066725
 LDA part of GGA corr.  LDAOpt          .... PW91-LDA
 Gradients option       PostSCFGGA      .... off
 Hybrid DFT is turned on
   Fraction HF Exchange ScalHFX         ....  0.250000
   Scaling of DF-GGA-X  ScalDFX         ....  0.750000
   Scaling of DF-GGA-C  ScalDFC         ....  1.000000
   Scaling of DF-LDA-C  ScalLDAC        ....  1.000000
   Perturbative correction              ....  0.000000
   Density functional embedding theory  .... OFF
   NL short-range parameter             ....  6.900000
 RI-approximation to the Coulomb term is turned on
   Number of AuxJ basis functions       .... 2347
   RIJ-COSX (HFX calculated with COS-X)).... on


General Settings:
 Integral files         IntName         .... optpbed3-b2plyp-test-442
 Hartree-Fock type      HFTyp           .... RHF
 Total Charge           Charge          ....    0
 Multiplicity           Mult            ....    1
 Number of Electrons    NEL             ....  184
 Basis Dimension        Dim             .... 1308
 Nuclear Repulsion      ENuc            ....   2146.5436092967 Eh

Convergence Acceleration:
 DIIS                   CNVDIIS         .... on
   Start iteration      DIISMaxIt       ....    12
   Startup error        DIISStart       ....  0.200000
   # of expansion vecs  DIISMaxEq       ....     5
   Bias factor          DIISBfac        ....   1.050
   Max. coefficient     DIISMaxC        ....  10.000
 Trust-Rad. Augm. Hess. CNVTRAH         .... auto
   Auto Start mean grad. ratio tolernc. ....  1.125000
   Auto Start start iteration           ....    20
   Auto Start num. interpolation iter.  ....    10
   Max. Number of Micro iterations      ....    16
   Max. Number of Macro iterations      .... Maxiter - #DIIS iter
   Number of Davidson start vectors     ....     2
   Converg. threshold I  (grad. norm)   ....   1.000e-05
   Converg. threshold II (energy diff.) ....   1.000e-08
   Grad. Scal. Fac. for Micro threshold ....   0.100
   Minimum threshold for Micro iter.    ....   0.010
   NR start threshold (gradient norm)   ....   0.001
   Initial trust radius                 ....   0.400
   Minimum AH scaling param. (alpha)    ....   1.000
   Maximum AH scaling param. (alpha)    .... 1000.000
   Orbital update algorithm             .... Taylor
   White noise on init. David. guess    .... on
   Maximum white noise                  ....   0.010
   Quad. conv. algorithm                .... NR
 SOSCF                  CNVSOSCF        .... on
   Start iteration      SOSCFMaxIt      ....   150
   Startup grad/error   SOSCFStart      ....  0.003300
 Level Shifting         CNVShift        .... on
   Level shift para.    LevelShift      ....    0.2500
   Turn off err/grad.   ShiftErr        ....    0.0010
 Zerner damping         CNVZerner       .... off
 Static damping         CNVDamp         .... on
   Fraction old density DampFac         ....    0.7000
   Max. Damping (<1)    DampMax         ....    0.9800
   Min. Damping (>=0)   DampMin         ....    0.0000
   Turn off err/grad.   DampErr         ....    0.1000
 Fernandez-Rico         CNVRico         .... off

SCF Procedure:
 Maximum # iterations   MaxIter         ....   125
 SCF integral mode      SCFMode         .... Direct
   Integral package                     .... SHARK and LIBINT hybrid scheme
 Reset frequency        DirectResetFreq ....    20
 Integral Threshold     Thresh          ....  2.500e-11 Eh
 Primitive CutOff       TCut            ....  2.500e-12 Eh

Convergence Tolerance:
 Convergence Check Mode ConvCheckMode   .... Total+1el-Energy
 Convergence forced     ConvForced      .... 0
 Energy Change          TolE            ....  1.000e-08 Eh
 1-El. energy change                    ....  1.000e-05 Eh
 Orbital Gradient       TolG            ....  1.000e-05
 Orbital Rotation angle TolX            ....  1.000e-05
 DIIS Error             TolErr          ....  5.000e-07


Diagonalization of the overlap matrix:
Smallest eigenvalue                        ... 3.088e-07
Time for diagonalization                   ...    0.396 sec
Threshold for overlap eigenvalues          ... 1.000e-08
Number of eigenvalues below threshold      ... 0
Time for construction of square roots      ...    0.275 sec
Total time needed                          ...    0.681 sec

Time for model grid setup =    1.103 sec

------------------------------
INITIAL GUESS: MODEL POTENTIAL
------------------------------
Loading Hartree-Fock densities                     ... done
Calculating cut-offs                               ... done
Initializing the effective Hamiltonian             ... done
Setting up the integral package (SHARK)            ... done
Starting the Coulomb interaction                   ... done (   3.9 sec)
Reading the grid                                   ... done
Mapping shells                                     ... done
Starting the XC term evaluation                    ... done (   2.9 sec)
  promolecular density results
     # of electrons  =    183.993263916
     EX              =   -172.507098965
     EC              =     -6.383077689
     EX+EC           =   -178.890176654
Transforming the Hamiltonian                       ... done (   0.2 sec)
Diagonalizing the Hamiltonian                      ... done (   0.4 sec)
Back transforming the eigenvectors                 ... done (   0.1 sec)
Now organizing SCF variables                       ... done
                      ------------------
                      INITIAL GUESS DONE (   8.7 sec)
                      ------------------
-------------------
DFT GRID GENERATION
-------------------

General Integration Accuracy     IntAcc      ... 4.388
Radial Grid Type                 RadialGrid  ... OptM3 with GC (2021)
Angular Grid (max. ang.)         AngularGrid ... 4 (Lebedev-302)
Angular grid pruning method      GridPruning ... 4 (adaptive)
Weight generation scheme         WeightScheme... Becke
Basis function cutoff            BFCut       ... 1.0000e-11
Integration weight cutoff        WCut        ... 1.0000e-14
Angular grids for H and He will be reduced by one unit
Partially contracted basis set               ... off
Rotationally invariant grid construction     ... off

Total number of grid points                  ...   192202
Total number of batches                      ...     3023
Average number of points per batch           ...       63
Average number of grid points per atom       ...     5339
Time for grid setup =    3.431 sec

--------------------
COSX GRID GENERATION
--------------------

GRIDX 1
-------
General Integration Accuracy     IntAcc      ... 3.816
Radial Grid Type                 RadialGrid  ... OptM3 with GC (2021)
Angular Grid (max. ang.)         AngularGrid ... 1 (Lebedev-50)
Angular grid pruning method      GridPruning ... 4 (adaptive)
Weight generation scheme         WeightScheme... Becke
Basis function cutoff            BFCut       ... 1.0000e-11
Integration weight cutoff        WCut        ... 1.0000e-14
Angular grids for H and He will be reduced by one unit
Partially contracted basis set               ... on
Rotationally invariant grid construction     ... off

Total number of grid points                  ...    24291
Total number of batches                      ...      399
Average number of points per batch           ...       60
Average number of grid points per atom       ...      675
UseSFitting                                  ... on

GRIDX 2
-------
General Integration Accuracy     IntAcc      ... 4.020
Radial Grid Type                 RadialGrid  ... OptM3 with GC (2021)
Angular Grid (max. ang.)         AngularGrid ... 2 (Lebedev-110)
Angular grid pruning method      GridPruning ... 4 (adaptive)
Weight generation scheme         WeightScheme... Becke
Basis function cutoff            BFCut       ... 1.0000e-11
Integration weight cutoff        WCut        ... 1.0000e-14
Angular grids for H and He will be reduced by one unit
Partially contracted basis set               ... on
Rotationally invariant grid construction     ... off

Total number of grid points                  ...    59158
Total number of batches                      ...      943
Average number of points per batch           ...       62
Average number of grid points per atom       ...     1643
UseSFitting                                  ... on

GRIDX 3
-------
General Integration Accuracy     IntAcc      ... 4.338
Radial Grid Type                 RadialGrid  ... OptM3 with GC (2021)
Angular Grid (max. ang.)         AngularGrid ... 3 (Lebedev-194)
Angular grid pruning method      GridPruning ... 4 (adaptive)
Weight generation scheme         WeightScheme... Becke
Basis function cutoff            BFCut       ... 1.0000e-11
Integration weight cutoff        WCut        ... 1.0000e-14
Angular grids for H and He will be reduced by one unit
Partially contracted basis set               ... on
Rotationally invariant grid construction     ... off

Total number of grid points                  ...   128488
Total number of batches                      ...     2026
Average number of points per batch           ...       63
Average number of grid points per atom       ...     3569
UseSFitting                                  ... on

Time for X-Grid setup             =    8.727 sec


--------------------
CPCM SOLVATION MODEL
--------------------
CPCM parameters:
  Epsilon                                         ...       1.8819
  Refrac                                          ...       1.3749
  Rsolv                                           ...       1.3000
  Surface type                                    ... GAUSSIAN VDW
  Epsilon function type                           ...         CPCM
Solvent:                                     ... N-HEXANE
SMD-CDS solvent descriptors:
  Soln                                       ...    1.3749
  Soln25                                     ...    1.3722
  Sola                                       ...    0.0000
  Solb                                       ...    0.0000
  Solg                                       ...   25.7500
  Solc                                       ...    0.0000
  Solh                                       ...    0.0000
Radii:
 Radius for C  used is    3.4960 Bohr (=   1.8500 Ang.)
 Radius for F  used is    3.2692 Bohr (=   1.7300 Ang.)
 Radius for N  used is    3.5716 Bohr (=   1.8900 Ang.)
 Radius for Cl used is    4.4975 Bohr (=   2.3800 Ang.)
 Radius for H  used is    2.2677 Bohr (=   1.2000 Ang.)
Calculating surface                               ...        done! (  0.0s)
GEPOL surface points                              ...         2024
GEPOL Volume                                      ...    2348.2049
GEPOL Surface-area                                ...    1272.3776
Calculating surface distance matrix               ...        done! (  0.1s)
Performing Cholesky decomposition & store         ...        done! (  0.2s)
Overall time for CPCM initialization              ...                 0.3s
 re-compute Schwartz prescreening matrix in partically contracted basis (1) ...done (   0.289 sec)
--------------
SCF ITERATIONS
--------------
ITER       Energy         Delta-E        Max-DP      RMS-DP      [F,P]     Damp
               ***  Starting incremental Fock matrix formation  ***
  0  -1615.1259423136   0.000000000000 0.35661435  0.00155774  0.2259188 0.7000
  1  -1615.3314385155  -0.205496201870 0.34211012  0.00120098  0.1080518 0.7000
                               ***Turning on DIIS***
  2  -1615.4198949669  -0.088456451440 1.01358830  0.00276620  0.0430122 0.0000
  3  -1615.5551637635  -0.135268796630 0.10670277  0.00050908  0.0508153 0.0000
  4  -1615.5846628294  -0.029499065858 0.03552128  0.00019258  0.0105762 0.0000
  5  -1615.5859778427  -0.001315013304 0.03601844  0.00016793  0.0043617 0.0000
                      *** Initiating the SOSCF procedure ***
                           *** Shutting down DIIS ***
                      *** Re-Reading the Fockian *** 
                      *** Removing any level shift *** 
ITER      Energy       Delta-E        Grad      Rot      Max-DP    RMS-DP
  6  -1615.58611535  -0.0001375064  0.000286  0.000286  0.073569  0.000264
               *** Restarting incremental Fock matrix formation ***
  7  -1615.58613336  -0.0000180076  0.000123  0.000498  0.133687  0.000596
  8  -1615.58613255   0.0000008082  0.000188  0.000480  0.045860  0.000127
  9  -1615.58613704  -0.0000044892  0.000036  0.000173  0.103145  0.000221
 10  -1615.58613691   0.0000001231  0.000055  0.000092  0.046270  0.000123
 11  -1615.58613709  -0.0000001772  0.000004  0.000013  0.100382  0.000196
 12  -1615.58613710  -0.0000000036  0.000005  0.000006  0.158311  0.000314
 13  -1615.58613710  -0.0000000090  0.000004  0.000008  0.190217  0.000444
 14  -1615.58613711  -0.0000000038  0.000004  0.000005  0.087179  0.000205
 15  -1615.58613710   0.0000000087  0.000003  0.000010  0.087764  0.000232
 16  -1615.58613710   0.0000000041  0.000003  0.000004  0.036722  0.000121
                  ***Gradient check signals convergence***
              ***Rediagonalizing the Fockian in SOSCF/NRSCF***

               *****************************************************
               *                     SUCCESS                       *
               *           SCF CONVERGED AFTER  17 CYCLES          *
               *****************************************************

Old exchange energy                            =    -43.735516986 Eh
New exchange energy                            =    -43.735474484 Eh
Exchange energy change after final integration =      0.000042502 Eh
Total energy after final integration           =  -1615.586094578 Eh
Final COS-X integration done in                =   215.673 sec

SMD CDS free energy correction energy :                -9.77417     Kcal/mol
Total Energy after SMD CDS correction =             -1615.601670703 Eh

----------------
TOTAL SCF ENERGY
----------------

Total Energy       :        -1615.60167070 Eh          -43962.75648 eV

Components:
Nuclear Repulsion  :         2146.54360930 Eh           58410.42114 eV
Electronic Energy  :        -3762.14528000 Eh         -102373.17762 eV
One Electron Energy:        -6480.56680843 Eh         -176345.18807 eV
Two Electron Energy:         2718.42152843 Eh           73972.01045 eV
Max COSX asymmetry :            0.00002966 Eh               0.00081 eV
CPCM Dielectric    :           -0.00960541 Eh              -0.26138 eV
SMD CDS (Gcds)     :           -0.01557613 Eh              -0.42385 eV

Virial components:
Potential Energy   :        -3223.98865164 Eh          -87729.19128 eV
Kinetic Energy     :         1608.38698094 Eh           43766.43479 eV
Virial Ratio       :            2.00448567


DFT components:
N(Alpha)           :       91.999960727225 electrons
N(Beta)            :       91.999960727225 electrons
N(Total)           :      183.999921454451 electrons
E(X)               :     -130.886475518101 Eh       
E(C)               :       -6.371684267083 Eh       
E(XC)              :     -137.258159785184 Eh       
DFET-embed. en.    :        0.000000000000 Eh       
CPCM Solvation Model Properties:
Surface-charge          :           -0.04519532
Charge-correction       :            0.00019403 Eh               0.00528 eV
Free-energy (cav+disp)  :           -0.01557613 Eh              -0.42385 eV

---------------
SCF CONVERGENCE
---------------

  Last Energy change         ...    1.5817e-08  Tolerance :   1.0000e-08
  Last MAX-Density change    ...    3.9968e-15  Tolerance :   1.0000e-07
  Last RMS-Density change    ...    2.1531e-17  Tolerance :   5.0000e-09
  Last Orbital Gradient      ...    1.8879e-06  Tolerance :   1.0000e-05
  Last Orbital Rotation      ...    5.1783e-06  Tolerance :   1.0000e-05

             **** THE GBW FILE WAS UPDATED (optpbed3-b2plyp-test-442.gbw) ****
             **** DENSITY optpbed3-b2plyp-test-442.scfp WAS UPDATED ****
             **** ENERGY FILE WAS UPDATED (optpbed3-b2plyp-test-442.en.tmp) ****
             **** THE GBW FILE WAS UPDATED (optpbed3-b2plyp-test-442.gbw) ****
             **** DENSITY optpbed3-b2plyp-test-442.scfp WAS UPDATED ****
----------------
ORBITAL ENERGIES
----------------

  NO   OCC          E(Eh)            E(eV) 
   0   2.0000    -101.740473     -2768.4990 
   1   2.0000     -24.814220      -675.2292 
   2   2.0000     -24.814035      -675.2242 
   3   2.0000     -24.812171      -675.1735 
   4   2.0000     -14.478810      -393.9884 
   5   2.0000     -14.414625      -392.2419 
   6   2.0000     -14.380835      -391.3224 
   7   2.0000     -10.483331      -285.2659 
   8   2.0000     -10.329732      -281.0863 
   9   2.0000     -10.304150      -280.3902 
  10   2.0000     -10.302821      -280.3540 
  11   2.0000     -10.292064      -280.0613 
  12   2.0000     -10.282545      -279.8023 
  13   2.0000     -10.271986      -279.5150 
  14   2.0000     -10.267390      -279.3899 
  15   2.0000     -10.264239      -279.3041 
  16   2.0000     -10.257152      -279.1113 
  17   2.0000     -10.256998      -279.1071 
  18   2.0000     -10.255872      -279.0765 
  19   2.0000     -10.246898      -278.8323 
  20   2.0000     -10.239653      -278.6351 
  21   2.0000     -10.239247      -278.6241 
  22   2.0000     -10.238884      -278.6142 
  23   2.0000     -10.238165      -278.5946 
  24   2.0000     -10.233825      -278.4765 
  25   2.0000      -9.542796      -259.6727 
  26   2.0000      -7.277995      -198.0443 
  27   2.0000      -7.269764      -197.8203 
  28   2.0000      -7.269317      -197.8082 
  29   2.0000      -1.360151       -37.0116 
  30   2.0000      -1.269481       -34.5443 
  31   2.0000      -1.265614       -34.4391 
  32   2.0000      -1.092067       -29.7166 
  33   2.0000      -1.018741       -27.7214 
  34   2.0000      -0.947795       -25.7908 
  35   2.0000      -0.923840       -25.1390 
  36   2.0000      -0.898009       -24.4361 
  37   2.0000      -0.872556       -23.7435 
  38   2.0000      -0.856740       -23.3131 
  39   2.0000      -0.827587       -22.5198 
  40   2.0000      -0.794484       -21.6190 
  41   2.0000      -0.785574       -21.3765 
  42   2.0000      -0.764674       -20.8078 
  43   2.0000      -0.755767       -20.5655 
  44   2.0000      -0.747393       -20.3376 
  45   2.0000      -0.699419       -19.0322 
  46   2.0000      -0.685855       -18.6631 
  47   2.0000      -0.661322       -17.9955 
  48   2.0000      -0.647241       -17.6123 
  49   2.0000      -0.630743       -17.1634 
  50   2.0000      -0.626102       -17.0371 
[...]
   Maximum Energy change  :     0.000143035813 (vector 7)
   Maximum residual norm  :     0.000020445168

                       ****Iteration   12****
              <<< Entering MO-section for Build Sigma(Double) >>>
   Forming the XC and CPCM contribution:
   Time for densities:            0.320
   Time for XC-Integration:      24.827
   Time for LR-CPCM terms:       15.334
   Time for Sigma-Completion:     0.241
   Time for building 10 sigma-vectors
   Data Preparation Phase         ...     0.01 sec
   Transformed RI Coulomb         ...     1.09 sec
   Transformed RI-exchange        ...   815.58 sec
   (ab|v) reading and digestion   ...   778.68 sec
   Final sigma-completion         ...     0.01 sec
   Done building sigma-vectors             Size of expansion space: 30
   Lowest Energy          :     0.142947143063
   Maximum Energy change  :     0.000046475032 (vector 7)
   Maximum residual norm  :     0.000008891886

                       ****Iteration   13****
              <<< Entering MO-section for Build Sigma(Double) >>>
   Forming the XC and CPCM contribution:
   Time for densities:            0.288
   Time for XC-Integration:      21.348
   Time for LR-CPCM terms:       14.234
   Time for Sigma-Completion:     0.216
   Time for building 9 sigma-vectors
   Data Preparation Phase         ...     0.01 sec
   Transformed RI Coulomb         ...     1.03 sec
   Transformed RI-exchange        ...   744.30 sec
   (ab|v) reading and digestion   ...   713.30 sec
   Final sigma-completion         ...     0.01 sec
   Done building sigma-vectors             Size of expansion space: 39
   Lowest Energy          :     0.142947143063
   Maximum Energy change  :     0.000017400301 (vector 7)
   Maximum residual norm  :     0.000003428562

                       ****Iteration   14****
              <<< Entering MO-section for Build Sigma(Double) >>>
   Forming the XC and CPCM contribution:
   Time for densities:            0.291
   Time for XC-Integration:      21.242
   Time for LR-CPCM terms:       14.185
   Time for Sigma-Completion:     0.224
   Time for building 9 sigma-vectors
   Data Preparation Phase         ...     0.01 sec
   Transformed RI Coulomb         ...     1.01 sec
   Transformed RI-exchange        ...   719.85 sec
   (ab|v) reading and digestion   ...   683.89 sec
   Final sigma-completion         ...     0.01 sec
   Done building sigma-vectors             Size of expansion space: 48
   Lowest Energy          :     0.142947143063
   Maximum Energy change  :     0.000006828828 (vector 7)
   Maximum residual norm  :     0.000001015931

                       ****Iteration   15****
              <<< Entering MO-section for Build Sigma(Double) >>>
   Forming the XC and CPCM contribution:
   Time for densities:            0.258
   Time for XC-Integration:      19.003
   Time for LR-CPCM terms:       13.343
   Time for Sigma-Completion:     0.197
   Time for building 8 sigma-vectors
   Data Preparation Phase         ...     0.01 sec
   Transformed RI Coulomb         ...     0.95 sec
   Transformed RI-exchange        ...   629.68 sec
   (ab|v) reading and digestion   ...   597.90 sec
   Final sigma-completion         ...     0.01 sec
   Done building sigma-vectors             Size of expansion space: 56
   Lowest Energy          :     0.142947143063
   Maximum Energy change  :     0.000002024916 (vector 7)
   Maximum residual norm  :     0.000000267540

      *** CONVERGENCE OF RESIDUAL NORM REACHED ***

Storing the converged CI vectors               ... optpbed3-b2plyp-test-442_job2.cis1

                 *** DAVIDSON DONE ***

Total time for solving the CIS problem: 14581.759sec

------------------
DOUBLES CORRECTION (Double precision version)
------------------

The (D) correction will be scaled by  0.2700
Doing v(i,a)*T(i,a) terms (RI)                    ... ok
Doing u(i,j,a,b) terms for state   0              ... ok
Doing u(i,j,a,b) terms for state   1              ... ok
Doing u(i,j,a,b) terms for state   2              ... ok
Doing u(i,j,a,b) terms for state   3              ... ok
Doing u(i,j,a,b) terms for state   4              ... ok
Doing u(i,j,a,b) terms for state   5              ... ok
Doing u(i,j,a,b) terms for state   6              ... ok
Doing u(i,j,a,b) terms for state   7              ... ok
Doing u(i,j,a,b) terms for state   8              ... ok
Doing u(i,j,a,b) terms for state   9              ... ok

Contributions to the (D) correction(s) (in eV)

STATE  Final   Init.   Total   v(ext)   v(int)  v(3)    u
       omega   omega     (D)                             
-----------------------------------------------------------------------------
   0   3.375   3.890  -0.515   0.655   1.021  -0.043  -2.149
   1   3.993   4.403  -0.411   0.617   1.034  -0.043  -2.018
   2   4.339   4.748  -0.409   0.584   1.018  -0.063  -1.948
   3   4.683   5.131  -0.449   0.499   0.965  -0.031  -1.881
   4   4.668   5.209  -0.541   0.587   1.012  -0.052  -2.089
   5   5.288   5.447  -0.160   0.041   1.016  -0.002  -1.215
   6   4.882   5.514  -0.631   0.509   1.012  -0.031  -2.121
   7   4.922   5.655  -0.733   0.681   0.760  -0.026  -2.148
   8   5.514   5.715  -0.200   0.039   1.010  -0.001  -1.248
   9   5.156   5.786  -0.630   0.596   0.960  -0.041  -2.146

(D)-timings
 V(i,a)*T(i,a) terms           ...  1774.990 sec
 U(i,j,a,b) 3-internal         ...    29.537 sec
 U(i,j,a,b) 3-external         ...   619.067 sec
 U(i,j,a,b) pair terms         ...   631.639 sec
 Total measured time           ...  6278.293 sec

 Time for (ab|v) I/O           ...   149.842 sec


------------------------------------
TD-DFT/TDA EXCITED STATES (SINGLETS)
------------------------------------

the weight of the individual excitations are printed if larger than 1.0e-02

STATE  1:  E=   0.124038 au      3.375 eV    27223.2 cm**-1 <S**2> =   0.000000
    88a ->  92a  :     0.011368 (c= -0.10662024)
    90a ->  92a  :     0.055375 (c= -0.23531971)
    90a ->  93a  :     0.018244 (c=  0.13506942)
    91a ->  92a  :     0.875137 (c=  0.93548768)

STATE  2:  E=   0.146734 au      3.993 eV    32204.3 cm**-1 <S**2> =   0.000000
    88a ->  92a  :     0.061573 (c= -0.24813836)
    90a ->  92a  :     0.375489 (c=  0.61277198)
    90a ->  93a  :     0.014281 (c=  0.11950171)
    91a ->  93a  :     0.482105 (c= -0.69433773)

STATE  3:  E=   0.159448 au      4.339 eV    34994.8 cm**-1 <S**2> =   0.000000
    88a ->  92a  :     0.036655 (c=  0.19145365)
    90a ->  92a  :     0.334716 (c= -0.57854682)
    90a ->  93a  :     0.056984 (c= -0.23871265)
    91a ->  92a  :     0.018974 (c= -0.13774599)
    91a ->  93a  :     0.405502 (c= -0.63679006)
    91a ->  95a  :     0.050725 (c= -0.22522247)
    91a ->  98a  :     0.023480 (c=  0.15323337)

STATE  4:  E=   0.172089 au      4.683 eV    37769.2 cm**-1 <S**2> =   0.000000
    88a ->  92a  :     0.014126 (c= -0.11885243)
    88a ->  98a  :     0.016418 (c=  0.12813117)
    89a ->  93a  :     0.157150 (c= -0.39642187)
    89a ->  95a  :     0.060358 (c= -0.24567836)
    90a ->  98a  :     0.060944 (c=  0.24686841)
    91a ->  95a  :     0.108366 (c=  0.32919048)
    91a ->  98a  :     0.464710 (c=  0.68169652)
    91a -> 101a  :     0.011171 (c= -0.10569232)
    91a -> 104a  :     0.011987 (c= -0.10948572)

STATE  5:  E=   0.171556 au      4.668 eV    37652.2 cm**-1 <S**2> =   0.000000
    87a ->  92a  :     0.031250 (c= -0.17677623)
    88a ->  92a  :     0.033857 (c=  0.18400182)
    90a ->  92a  :     0.119269 (c=  0.34535300)
    90a ->  93a  :     0.521390 (c= -0.72207321)
    91a ->  92a  :     0.056359 (c=  0.23740063)
    91a ->  93a  :     0.015317 (c=  0.12376327)
    91a ->  95a  :     0.078971 (c= -0.28101708)
    91a ->  98a  :     0.027632 (c=  0.16622800)
    91a -> 104a  :     0.022582 (c=  0.15027454)

STATE  6:  E=   0.194325 au      5.288 eV    42649.5 cm**-1 <S**2> =   0.000000
    90a ->  94a  :     0.025107 (c= -0.15845197)
    90a ->  99a  :     0.012777 (c=  0.11303746)
    91a ->  94a  :     0.288485 (c=  0.53710775)
    91a ->  95a  :     0.025517 (c= -0.15973903)
    91a ->  96a  :     0.403034 (c=  0.63484926)
    91a ->  99a  :     0.097159 (c= -0.31170304)
    91a -> 102a  :     0.028368 (c= -0.16842670)
    91a -> 103a  :     0.039798 (c= -0.19949434)
    91a -> 106a  :     0.020117 (c= -0.14183464)

STATE  7:  E=   0.179419 au      4.882 eV    39378.0 cm**-1 <S**2> =   0.000000
    87a ->  92a  :     0.041342 (c=  0.20332769)
    88a ->  92a  :     0.023376 (c= -0.15289320)
    88a ->  93a  :     0.026864 (c= -0.16390115)
    90a ->  93a  :     0.086104 (c=  0.29343540)
    91a ->  93a  :     0.020460 (c=  0.14304017)
    91a ->  95a  :     0.555523 (c= -0.74533408)
    91a ->  96a  :     0.038766 (c= -0.19689165)
    91a ->  97a  :     0.010335 (c=  0.10166194)
    91a ->  98a  :     0.045680 (c=  0.21372931)
    91a -> 101a  :     0.026307 (c= -0.16219540)

STATE  8:  E=   0.180868 au      4.922 eV    39695.9 cm**-1 <S**2> =   0.000000
    84a ->  92a  :     0.032187 (c= -0.17940713)
    85a ->  92a  :     0.634645 (c= -0.79664624)
    85a ->  98a  :     0.016149 (c= -0.12708010)
    85a -> 104a  :     0.039942 (c= -0.19985614)
    86a ->  92a  :     0.193551 (c= -0.43994465)

STATE  9:  E=   0.202645 au      5.514 eV    44475.5 cm**-1 <S**2> =   0.000000
    90a ->  94a  :     0.054657 (c= -0.23378778)
    90a ->  96a  :     0.026590 (c= -0.16306575)
    91a ->  94a  :     0.312136 (c=  0.55869172)
    91a ->  95a  :     0.025850 (c=  0.16077943)
    91a ->  96a  :     0.319277 (c= -0.56504572)
    91a ->  97a  :     0.086279 (c=  0.29373313)
    91a ->  99a  :     0.035492 (c= -0.18839209)
    91a -> 100a  :     0.011249 (c=  0.10606244)
    91a -> 102a  :     0.018436 (c= -0.13577968)
    91a -> 103a  :     0.034951 (c=  0.18695069)

STATE 10:  E=   0.189492 au      5.156 eV    41588.6 cm**-1 <S**2> =   0.000000
    83a ->  93a  :     0.014324 (c= -0.11968139)
    87a ->  92a  :     0.169764 (c= -0.41202443)
    87a ->  93a  :     0.016717 (c=  0.12929333)
    88a ->  92a  :     0.275836 (c=  0.52520085)
    89a ->  93a  :     0.029212 (c= -0.17091586)
    90a ->  92a  :     0.030176 (c=  0.17371249)
    90a ->  93a  :     0.081025 (c=  0.28464978)
    90a ->  95a  :     0.040893 (c=  0.20222055)
    91a ->  98a  :     0.015648 (c= -0.12509194)
    91a -> 101a  :     0.049661 (c= -0.22284846)
    91a -> 104a  :     0.149799 (c= -0.38703920)


-----------------------------
TD-DFT/TDA-EXCITATION SPECTRA
-----------------------------

Center of mass = (  0.6697,  1.0884, -0.1128)
Calculating the Dipole integrals                  ... done
Transforming integrals                            ... done
Calculating the Linear Momentum integrals         ... done
Transforming integrals                            ... done
Calculating angular momentum integrals            ... done
Transforming integrals                            ... done

-----------------------------------------------------------------------------
         ABSORPTION SPECTRUM VIA TRANSITION ELECTRIC DIPOLE MOMENTS
-----------------------------------------------------------------------------
State   Energy    Wavelength  fosc         T2        TX        TY        TZ  
        (cm-1)      (nm)                 (au**2)    (au)      (au)      (au) 
-----------------------------------------------------------------------------
   1   27223.2    367.3   0.348930231   4.21963   2.00582   0.38349  -0.22189
   2   32204.3    310.5   0.073442832   0.75078   0.60365   0.61767  -0.06973
   3   34994.8    285.8   1.062540436   9.99580   3.12268  -0.41286  -0.27248
   4   37769.2    264.8   0.054019084   0.47085  -0.68348   0.01511   0.05897
   5   37652.2    265.6   0.249177865   2.17869   0.98525   1.08963  -0.14379
   6   42649.5    234.5   0.008546110   0.06597   0.00821   0.08066   0.24371
   7   39378.0    253.9   0.072859835   0.60913  -0.43179   0.65010   0.00757
   8   39695.9    251.9   0.003542496   0.02938  -0.08437  -0.00906  -0.14893
   9   44475.5    224.8   0.003256672   0.02411   0.02949   0.00917   0.15216
  10   41588.6    240.5   0.067721936   0.53608  -0.67569  -0.27160   0.07590

-----------------------------------------------------------------------------
         ABSORPTION SPECTRUM VIA TRANSITION VELOCITY DIPOLE MOMENTS
-----------------------------------------------------------------------------
State   Energy    Wavelength   fosc        P2         PX        PY        PZ  
        (cm-1)      (nm)                 (au**2)     (au)      (au)      (au) 
-----------------------------------------------------------------------------
   1   27223.2    367.3   0.138347460   0.02574  -0.15973   0.00671   0.01346
   2   32204.3    310.5   0.069412090   0.01528  -0.10478  -0.06419   0.01331
   3   34994.8    285.8   0.639022328   0.15284  -0.38625  -0.04772   0.03696
   4   37769.2    264.8   0.044370168   0.01145   0.09597   0.04632  -0.00985
   5   37652.2    265.6   0.106109658   0.02731  -0.15519  -0.05415   0.01701
   6   42649.5    234.5   0.005372394   0.00157  -0.00239  -0.00632  -0.03899
   7   39378.0    253.9   0.019541310   0.00526   0.05111  -0.05144   0.00076
   8   39695.9    251.9   0.001447875   0.00039   0.00578  -0.00179  -0.01887
   9   44475.5    224.8   0.002545132   0.00077  -0.00583  -0.00220  -0.02711
  10   41588.6    240.5   0.017834664   0.00507   0.06978   0.01300  -0.00559

-------------------------------------------------------------------
                             CD SPECTRUM
-------------------------------------------------------------------
State  Energy     Wavelength     R         MX        MY        MZ   
       (cm-1)       (nm)     (1e40*cgs)   (au)      (au)      (au)  
-------------------------------------------------------------------
   1   27223.2    367.3      0.63164   0.06338   0.03204   0.62232
   2   32204.3    310.5     -6.36705  -0.02596  -0.02417  -0.24514
   3   34994.8    285.8     16.89615   0.10930   0.03783   1.06369
   4   37769.2    264.8      1.08976  -0.01550   0.00112  -0.14074
   5   37652.2    265.6     -7.09695  -0.01854  -0.01587  -0.14261
   6   42649.5    234.5     -0.15215  -0.02203   0.07568  -0.02563
   7   39378.0    253.9     -4.78743  -0.02967  -0.03140  -0.33710
   8   39695.9    251.9      8.92380  -0.24466   0.19099  -0.00012
   9   44475.5    224.8     -0.19094  -0.16702   0.03325   0.02771
  10   41588.6    240.5     -5.39752   0.03059  -0.00905   0.08909

-------------------------------------------------------------------
         CD SPECTRUM VIA TRANSITION VELOCITY DIPOLE MOMENTS        
-------------------------------------------------------------------
State  Energy     Wavelength     R         MX        MY        MZ   
       (cm-1)       (nm)     (1e40*cgs)   (au)      (au)      (au)  
-------------------------------------------------------------------
   1   27223.2    367.3     -5.83609   0.06338   0.03204   0.62232
   2   32204.3    310.5      3.24186  -0.02596  -0.02417  -0.24514
   3   34994.8    285.8    -13.90713   0.10930   0.03783   1.06369
   4   37769.2    264.8     -0.13413  -0.01550   0.00112  -0.14074
   5   37652.2    265.6      3.60303  -0.01854  -0.01587  -0.14261
   6   42649.5    234.5      1.39260  -0.02203   0.07568  -0.02563
   7   39378.0    253.9     -0.41600  -0.02967  -0.03140  -0.33710
   8   39695.9    251.9     -4.57215  -0.24466   0.19099  -0.00012
   9   44475.5    224.8      0.34866  -0.16702   0.03325   0.02771
  10   41588.6    240.5      3.77835   0.03059  -0.00905   0.08909

Total run time:    20870.025 sec

           *** ORCA-CIS/TD-DFT FINISHED WITHOUT ERROR ***

Maximum memory used throughout the entire CIS-calculation: 2294.4 MB

-----------------------
CIS/TD-DFT TOTAL ENERGY
-----------------------

    E(SCF)  =  -1614.612568931 Eh
    DE(CIS) =      0.124038136 Eh (Root  1)
    ----------------------------- ---------
    E(tot)  =  -1614.488530795 Eh



-------------------------------------------------------------------------------
                          DFT DISPERSION CORRECTION                            
                                                                               
                              DFTD3 V3.1  Rev 1                                
                          USING Becke-Johnson damping                          
-------------------------------------------------------------------------------
The B2PLYP functional is recognized
Active option DFTDOPT                   ...         4   

molecular C6(AA) [au] = 18591.330099 


            DFT-D V3
 parameters
 s6 scaling factor         :     0.6400 
 a1 scaling factor         :     0.3065 
 s8 scaling factor         :     0.9147 
 a2 scaling factor         :     5.0570 
 ad hoc parameters k1-k3   :    16.0000     1.3333    -4.0000 

 Edisp/kcal,au: -25.134829305221  -0.040054895843 
 E6   /kcal   : -13.932857633 
 E8   /kcal   : -11.201971672 
 % E8         :  44.567526344 

-------------------------   ----------------
Dispersion correction           -0.040054896
-------------------------   ----------------


-------------------------   --------------------
FINAL SINGLE POINT ENERGY     -1614.528585690971
-------------------------   --------------------


                            ***************************************
                            *     ORCA property calculations      *
                            ***************************************


  WARNING: The energy has been calculated at the MP2 level but the densities
           used in the property calculations are still SCF densities
           MP2 response densities have not been calculated 
           use %mp2 Density relaxed end
           or  %mp2 Density unrelaxed end

                                    ---------------------
                                    Active property flags
                                    ---------------------
   (+) Dipole Moment


------------------------------------------------------------------------------
                       ORCA ELECTRIC PROPERTIES CALCULATION
------------------------------------------------------------------------------

Dipole Moment Calculation                       ... on
Quadrupole Moment Calculation                   ... off
Polarizability Calculation                      ... off
GBWName                                         ... optpbed3-b2plyp-test-442_job2.gbw
Electron density                                ... optpbed3-b2plyp-test-442_job2.scfp
The origin for moment calculation is the CENTER OF MASS  = ( 0.669721,  1.088408 -0.112775)

-------------
DIPOLE MOMENT
-------------
                                X             Y             Z
Electronic contribution:      1.91335      21.77735      -1.16752
Nuclear contribution   :     -4.40412     -23.50416       1.52004
                        -----------------------------------------
Total Dipole Moment    :     -2.49077      -1.72681       0.35252
                        -----------------------------------------
Magnitude (a.u.)       :      3.05124
Magnitude (Debye)      :      7.75564



--------------------
Rotational spectrum 
--------------------
 
Rotational constants in cm-1:     0.013175     0.002781     0.002326 
Rotational constants in MHz :   394.980405    83.386355    69.722763 

 Dipole components along the rotational axes: 
x,y,z [a.u.] :    -2.533464     1.699844     0.046606 
x,y,z [Debye]:    -6.439554     4.320659     0.118462 

 

Timings for individual modules:

Sum of individual times         ...    24557.366 sec (= 409.289 min)
GTO integral calculation        ...        6.432 sec (=   0.107 min)   0.0 %
SCF iterations                  ...     1645.804 sec (=  27.430 min)   6.7 %
MP2 module                      ...     2032.503 sec (=  33.875 min)   8.3 %
CIS module                      ...    20872.626 sec (= 347.877 min)  85.0 %



                             ****ORCA TERMINATED NORMALLY****
TOTAL RUN TIME: 0 days 14 hours 12 minutes 39 seconds 16 msec
