
                                 *****************
                                 * O   R   C   A *
                                 *****************

                                            #,                                       
                                            ###                                      
                                            ####                                     
                                            #####                                    
                                            ######                                   
                                           ########,                                 
                                     ,,################,,,,,                         
                               ,,#################################,,                 
                          ,,##########################################,,             
                       ,#########################################, ''#####,          
                    ,#############################################,,   '####,        
                  ,##################################################,,,,####,       
                ,###########''''           ''''###############################       
              ,#####''   ,,,,##########,,,,          '''####'''          '####       
            ,##' ,,,,###########################,,,                        '##       
           ' ,,###''''                  '''############,,,                           
         ,,##''                                '''############,,,,        ,,,,,,###''
      ,#''                                            '''#######################'''  
     '                                                          ''''####''''         
             ,#######,   #######,   ,#######,      ##                                
            ,#'     '#,  ##    ##  ,#'     '#,    #''#        ######   ,####,        
            ##       ##  ##   ,#'  ##            #'  '#       #        #'  '#        
            ##       ##  #######   ##           ,######,      #####,   #    #        
            '#,     ,#'  ##    ##  '#,     ,#' ,#      #,         ##   #,  ,#        
             '#######'   ##     ##  '#######'  #'      '#     #####' # '####'        



                  #######################################################
                  #                        -***-                        #
                  #          Department of theory and spectroscopy      #
                  #    Directorship and core code : Frank Neese         #
                  #        Max Planck Institute fuer Kohlenforschung    #
                  #                Kaiser Wilhelm Platz 1               #
                  #                 D-45470 Muelheim/Ruhr               #
                  #                      Germany                        #
                  #                                                     #
                  #                  All rights reserved                #
                  #                        -***-                        #
                  #######################################################


                         Program Version 5.0.2 -  RELEASE  -


 With contributions from (in alphabetic order):
   Daniel Aravena         : Magnetic Suceptibility
   Michael Atanasov       : Ab Initio Ligand Field Theory (pilot matlab implementation)
   Alexander A. Auer      : GIAO ZORA, VPT2 properties, NMR spectrum
   Ute Becker             : Parallelization
   Giovanni Bistoni       : ED, misc. LED, open-shell LED, HFLD
   Martin Brehm           : Molecular dynamics
   Dmytro Bykov           : SCF Hessian
   Vijay G. Chilkuri      : MRCI spin determinant printing, contributions to CSF-ICE
   Dipayan Datta          : RHF DLPNO-CCSD density
   Achintya Kumar Dutta   : EOM-CC, STEOM-CC
   Dmitry Ganyushin       : Spin-Orbit,Spin-Spin,Magnetic field MRCI
   Miquel Garcia          : C-PCM and meta-GGA Hessian, CC/C-PCM, Gaussian charge scheme
   Yang Guo               : DLPNO-NEVPT2, F12-NEVPT2, CIM, IAO-localization
   Andreas Hansen         : Spin unrestricted coupled pair/coupled cluster methods
   Benjamin Helmich-Paris : MC-RPA, TRAH-SCF, COSX integrals
   Lee Huntington         : MR-EOM, pCC
   Robert Izsak           : Overlap fitted RIJCOSX, COSX-SCS-MP3, EOM
   Marcus Kettner         : VPT2
   Christian Kollmar      : KDIIS, OOCD, Brueckner-CCSD(T), CCSD density, CASPT2, CASPT2-K
   Simone Kossmann        : Meta GGA functionals, TD-DFT gradient, OOMP2, MP2 Hessian
   Martin Krupicka        : Initial AUTO-CI
   Lucas Lang             : DCDCAS
   Marvin Lechner         : AUTO-CI (C++ implementation), FIC-MRCC
   Dagmar Lenk            : GEPOL surface, SMD
   Dimitrios Liakos       : Extrapolation schemes; Compound Job, initial MDCI parallelization
   Dimitrios Manganas     : Further ROCIS development; embedding schemes
   Dimitrios Pantazis     : SARC Basis sets
   Anastasios Papadopoulos: AUTO-CI, single reference methods and gradients
   Taras Petrenko         : DFT Hessian,TD-DFT gradient, ASA, ECA, R-Raman, ABS, FL, XAS/XES, NRVS
   Peter Pinski           : DLPNO-MP2, DLPNO-MP2 Gradient
   Christoph Reimann      : Effective Core Potentials
   Marius Retegan         : Local ZFS, SOC
   Christoph Riplinger    : Optimizer, TS searches, QM/MM, DLPNO-CCSD(T), (RO)-DLPNO pert. Triples
   Tobias Risthaus        : Range-separated hybrids, TD-DFT gradient, RPA, STAB
   Michael Roemelt        : Original ROCIS implementation
   Masaaki Saitow         : Open-shell DLPNO-CCSD energy and density
   Barbara Sandhoefer     : DKH picture change effects
   Avijit Sen             : IP-ROCIS
   Kantharuban Sivalingam : CASSCF convergence, NEVPT2, FIC-MRCI
   Bernardo de Souza      : ESD, SOC TD-DFT
   Georgi Stoychev        : AutoAux, RI-MP2 NMR, DLPNO-MP2 response
   Willem Van den Heuvel  : Paramagnetic NMR
   Boris Wezisla          : Elementary symmetry handling
   Frank Wennmohs         : Technical directorship


 We gratefully acknowledge several colleagues who have allowed us to
 interface, adapt or use parts of their codes:
   Stefan Grimme, W. Hujo, H. Kruse, P. Pracht,  : VdW corrections, initial TS optimization,
                  C. Bannwarth, S. Ehlert          DFT functionals, gCP, sTDA/sTD-DF
   Ed Valeev, F. Pavosevic, A. Kumar             : LibInt (2-el integral package), F12 methods
   Garnet Chan, S. Sharma, J. Yang, R. Olivares  : DMRG
   Ulf Ekstrom                                   : XCFun DFT Library
   Mihaly Kallay                                 : mrcc  (arbitrary order and MRCC methods)
   Jiri Pittner, Ondrej Demel                    : Mk-CCSD
   Frank Weinhold                                : gennbo (NPA and NBO analysis)
   Christopher J. Cramer and Donald G. Truhlar   : smd solvation model
   Lars Goerigk                                  : TD-DFT with DH, B97 family of functionals
   V. Asgeirsson, H. Jonsson                     : NEB implementation
   FAccTs GmbH                                   : IRC, NEB, NEB-TS, DLPNO-Multilevel, CI-OPT
                                                   MM, QMMM, 2- and 3-layer-ONIOM, Crystal-QMMM,
                                                   LR-CPCM, SF, NACMEs, symmetry and pop. for TD-DFT,
                                                   nearIR, NL-DFT gradient (VV10), updates on ESD,
                                                   ML-optimized integration grids
   S Lehtola, MJT Oliveira, MAL Marques          : LibXC Library
   Liviu Ungur et al                             : ANISO software


 Your calculation uses the libint2 library for the computation of 2-el integrals
 For citations please refer to: http://libint.valeyev.net

 Your ORCA version has been built with support for libXC version: 5.1.0
 For citations please refer to: https://tddft.org/programs/libxc/

 This ORCA versions uses:
   CBLAS   interface :  Fast vector & matrix operations
   LAPACKE interface :  Fast linear algebra routines
   SCALAPACK package :  Parallel linear algebra routines
   Shared memory     :  Shared parallel matrices
   BLAS/LAPACK       :  OpenBLAS 0.3.15  USE64BITINT DYNAMIC_ARCH NO_AFFINITY Haswell SINGLE_THREADED
        Core in use  :  Haswell
   Copyright (c) 2011-2014, The OpenBLAS Project


Your calculation utilizes the atom-pairwise dispersion correction
with the Becke-Johnson damping scheme (D3BJ)
Cite in your paper:
S.Grimme, S.Ehrlich, L.Goerigk, J Comput Chem, (2011), 32, 1456–1465 
S.Grimme, J.Antony, S.Ehrlich and H.Krieg, J.Chem.Phys., 132, (2010), 154104 
   

Your calculation utilizes the SMD solvation module
Please cite in your paper:
A.V. Marenich, C.J. Cramer, D.G. Truhlar J. Phys. Chem. B, 113, (2009), 6378 

================================================================================

----- Orbital basis set information -----
Your calculation utilizes the basis: aug-cc-pVTZ 
    H, B-Ne : Obtained from the ccRepo (grant-hill.group.shef.ac.uk/ccrepo) Feb. 2017
              R. A. Kendall, T. H. Dunning, Jr., R. J. Harrison, J. Chem. Phys. 96, 6796 (1992)
         He : Obtained from the ccRepo (grant-hill.group.shef.ac.uk/ccrepo) Feb. 2017
              D. E. Woon, T. H. Dunning, Jr., J. Chem. Phys. 100, 2975 (1994)
  Li-Be, Na : Obtained from the ccRepo (grant-hill.group.shef.ac.uk/ccrepo) Feb. 2017
              B. P. Prascher, D. E. Woon, K. A. Peterson, T. H. Dunning, Jr., A. K. Wilson, Theor. Chem. Acc. 128, 69 (2011)
         Mg : Obtained from the Peterson Research Group Website (tyr0.chem.wsu.edu/~kipeters) Feb. 2017
              B. P. Prascher, D. E. Woon, K. A. Peterson, T. H. Dunning, Jr., A. K. Wilson, Theor. Chem. Acc. 128, 69 (2011)
      Al-Ar : Obtained from the ccRepo (grant-hill.group.shef.ac.uk/ccrepo) Feb. 2017
              D. E. Woon, T. H. Dunning, Jr., J. Chem. Phys. 98, 1358 (1993)
      Sc-Zn : Obtained from the ccRepo (grant-hill.group.shef.ac.uk/ccrepo) Feb. 2017
              N. B. Balabanov, K. A. Peterson, J. Chem. Phys. 123, 064107 (2005)
              N. B. Balabanov, K. A. Peterson, J. Chem. Phys. 125, 074110 (2006)
      Ga-Kr : Obtained from the ccRepo (grant-hill.group.shef.ac.uk/ccrepo) Feb. 2017
              A. K. Wilson, D. E. Woon, K. A. Peterson, T. H. Dunning, Jr., J. Chem. Phys. 110, 7667 (1999)
     Ag, Au : Obtained from the Peterson Research Group Website (tyr0.chem.wsu.edu/~kipeters) Feb. 2017
              K. A. Peterson, C. Puzzarini, Theor. Chem. Acc. 114, 283 (2005)

The basis set includes element-specific modifications.

Your calculation utilizes the basis: cc-pVTZ 
       H, B-Ne : Obtained from the ccRepo (grant-hill.group.shef.ac.uk/ccrepo) Feb. 2017
                 T. H. Dunning, Jr., J. Chem. Phys. 90, 1007 (1989)
            He : Obtained from the ccRepo (grant-hill.group.shef.ac.uk/ccrepo) Feb. 2017
                 D. E. Woon, T. H. Dunning, Jr., J. Chem. Phys. 100, 2975 (1994)
  Li-Be, Na-Mg : Obtained from the ccRepo (grant-hill.group.shef.ac.uk/ccrepo) Feb. 2017
                 B. P. Prascher, D. E. Woon, K. A. Peterson, T. H. Dunning, Jr., A. K. Wilson, Theor. Chem. Acc. 128, 69 (2011)
         Al-Ar : Obtained from the ccRepo (grant-hill.group.shef.ac.uk/ccrepo) Feb. 2017
                 D. E. Woon, T. H. Dunning, Jr., J. Chem. Phys. 98, 1358 (1993)
            Ca : Obtained from the Peterson Research Group Website (tyr0.chem.wsu.edu/~kipeters) Feb. 2017
                 J. Koput, K. A. Peterson, J. Phys. Chem. 106, 9595 (2002)
         Sc-Zn : Obtained from the ccRepo (grant-hill.group.shef.ac.uk/ccrepo) Feb. 2017
                 N. B. Balabanov, K. A. Peterson, J. Chem. Phys. 123, 064107 (2005)
                 N. B. Balabanov, K. A. Peterson, J. Chem. Phys. 125, 074110 (2006)
         Ga-Kr : Obtained from the ccRepo (grant-hill.group.shef.ac.uk/ccrepo) Feb. 2017
                 A. K. Wilson, D. E. Woon, K. A. Peterson, T. H. Dunning, Jr., J. Chem. Phys. 110, 7667 (1999)
             Y : Obtained from the ccRepo (grant-hill.group.shef.ac.uk/ccrepo) Feb. 2017
                 K. A. Peterson, D. Figgen, M. Dolg, H. Stoll, J. Chem. Phys. 126, 124101 (2007)
        Ag, Au : Obtained from the Peterson Research Group Website (tyr0.chem.wsu.edu/~kipeters) Feb. 2017
                 K. A. Peterson, C. Puzzarini, Theor. Chem. Acc. 114, 283 (2005)

----- AuxJ basis set information -----
Your calculation utilizes the auxiliary basis: aug-cc-pVTZ/JK 
  H, B-F, Al-Cl, Ga-Br : Obtained from the TURBOMOLE 7.0 basis set library

The basis set includes element-specific modifications.

Your calculation utilizes the auxiliary basis: cc-pVTZ/JK 
  H, B-F, Al-Cl, Ga-Br : Obtained from the TURBOMOLE 7.0 basis set library

----- AuxC basis set information -----
Your calculation utilizes the auxiliary basis: aug-cc-pVTZ/C 
  H-He, B-F, Al-Ar, Ga-Kr : Obtained from the EMSL Basis Set Exchange (bse.pnl.gov) Feb. 2017
                            F. Weigend, A. Kohn, C. Hattig, J. Chem. Phys. 116, 3175 (2002)
                   Be, Mg : Obtained from the TURBOMOLE 7.0 basis set library
                            C. Haettig, Phys. Chem. Chem. Phys. 7, 59 (2005)
                       Ne : Obtained from the EMSL Basis Set Exchange (bse.pnl.gov) Feb. 2017
                            C. Haettig, Phys. Chem. Chem. Phys. 7, 59 (2005)
                            F. Weigend, A. Kohn, C. Hattig, J. Chem. Phys. 116, 3175 (2002)
                    Sc-Zn : Obtained from the EMSL Basis Set Exchange (bse.pnl.gov) Feb. 2017
                            J. G. Hill, J. A. Platts, J. Chem. Phys. 128, 044104 (2008)

The basis set includes element-specific modifications.

Your calculation utilizes the auxiliary basis: cc-pVTZ/C 
  Obtained from the EMSL Basis Set Exchange (bse.pnl.gov) Feb. 2017
  H-He, B-F, Al-Ar, Ga-Kr : F. Weigend, A. Kohn, C. Hattig, J. Chem. Phys. 116, 3175 (2002)
             Li-Be, Na-Mg : C. Haettig, Phys. Chem. Chem. Phys. 7, 59 (2005)
                       Ne : C. Haettig, Phys. Chem. Chem. Phys. 7, 59 (2005)
                            F. Weigend, A. Kohn, C. Hattig, J. Chem. Phys. 116, 3175 (2002)
                    Sc-Zn : J. G. Hill, J. A. Platts, J. Chem. Phys. 128, 044104 (2008)

================================================================================
                                        WARNINGS
                       Please study these warnings very carefully!
================================================================================


WARNING: Geometry Optimization
  ===> : Switching off AutoStart
         For restart on a previous wavefunction, please use MOREAD

INFO   : the flag for use of the SHARK integral package has been found!



***************************************
The coordinates will be read from file: 
***************************************


Your calculation utilizes the atom-pairwise dispersion correction
with the Becke-Johnson damping scheme (D3BJ)
Cite in your paper:
S.Grimme, S.Ehrlich, L.Goerigk, J Comput Chem, (2011), 32, 1456–1465 
S.Grimme, J.Antony, S.Ehrlich and H.Krieg, J.Chem.Phys., 132, (2010), 154104 
   

Your calculation utilizes the SMD solvation module
Please cite in your paper:
A.V. Marenich, C.J. Cramer, D.G. Truhlar J. Phys. Chem. B, 113, (2009), 6378 

================================================================================

----- Orbital basis set information -----
Your calculation utilizes the basis: aug-cc-pVTZ 
    H, B-Ne : Obtained from the ccRepo (grant-hill.group.shef.ac.uk/ccrepo) Feb. 2017
              R. A. Kendall, T. H. Dunning, Jr., R. J. Harrison, J. Chem. Phys. 96, 6796 (1992)
         He : Obtained from the ccRepo (grant-hill.group.shef.ac.uk/ccrepo) Feb. 2017
              D. E. Woon, T. H. Dunning, Jr., J. Chem. Phys. 100, 2975 (1994)
  Li-Be, Na : Obtained from the ccRepo (grant-hill.group.shef.ac.uk/ccrepo) Feb. 2017
              B. P. Prascher, D. E. Woon, K. A. Peterson, T. H. Dunning, Jr., A. K. Wilson, Theor. Chem. Acc. 128, 69 (2011)
         Mg : Obtained from the Peterson Research Group Website (tyr0.chem.wsu.edu/~kipeters) Feb. 2017
              B. P. Prascher, D. E. Woon, K. A. Peterson, T. H. Dunning, Jr., A. K. Wilson, Theor. Chem. Acc. 128, 69 (2011)
      Al-Ar : Obtained from the ccRepo (grant-hill.group.shef.ac.uk/ccrepo) Feb. 2017
              D. E. Woon, T. H. Dunning, Jr., J. Chem. Phys. 98, 1358 (1993)
      Sc-Zn : Obtained from the ccRepo (grant-hill.group.shef.ac.uk/ccrepo) Feb. 2017
              N. B. Balabanov, K. A. Peterson, J. Chem. Phys. 123, 064107 (2005)
              N. B. Balabanov, K. A. Peterson, J. Chem. Phys. 125, 074110 (2006)
      Ga-Kr : Obtained from the ccRepo (grant-hill.group.shef.ac.uk/ccrepo) Feb. 2017
              A. K. Wilson, D. E. Woon, K. A. Peterson, T. H. Dunning, Jr., J. Chem. Phys. 110, 7667 (1999)
     Ag, Au : Obtained from the Peterson Research Group Website (tyr0.chem.wsu.edu/~kipeters) Feb. 2017
              K. A. Peterson, C. Puzzarini, Theor. Chem. Acc. 114, 283 (2005)

The basis set includes element-specific modifications.

Your calculation utilizes the basis: cc-pVTZ 
       H, B-Ne : Obtained from the ccRepo (grant-hill.group.shef.ac.uk/ccrepo) Feb. 2017
                 T. H. Dunning, Jr., J. Chem. Phys. 90, 1007 (1989)
            He : Obtained from the ccRepo (grant-hill.group.shef.ac.uk/ccrepo) Feb. 2017
                 D. E. Woon, T. H. Dunning, Jr., J. Chem. Phys. 100, 2975 (1994)
  Li-Be, Na-Mg : Obtained from the ccRepo (grant-hill.group.shef.ac.uk/ccrepo) Feb. 2017
                 B. P. Prascher, D. E. Woon, K. A. Peterson, T. H. Dunning, Jr., A. K. Wilson, Theor. Chem. Acc. 128, 69 (2011)
         Al-Ar : Obtained from the ccRepo (grant-hill.group.shef.ac.uk/ccrepo) Feb. 2017
                 D. E. Woon, T. H. Dunning, Jr., J. Chem. Phys. 98, 1358 (1993)
            Ca : Obtained from the Peterson Research Group Website (tyr0.chem.wsu.edu/~kipeters) Feb. 2017
                 J. Koput, K. A. Peterson, J. Phys. Chem. 106, 9595 (2002)
         Sc-Zn : Obtained from the ccRepo (grant-hill.group.shef.ac.uk/ccrepo) Feb. 2017
                 N. B. Balabanov, K. A. Peterson, J. Chem. Phys. 123, 064107 (2005)
                 N. B. Balabanov, K. A. Peterson, J. Chem. Phys. 125, 074110 (2006)
         Ga-Kr : Obtained from the ccRepo (grant-hill.group.shef.ac.uk/ccrepo) Feb. 2017
                 A. K. Wilson, D. E. Woon, K. A. Peterson, T. H. Dunning, Jr., J. Chem. Phys. 110, 7667 (1999)
             Y : Obtained from the ccRepo (grant-hill.group.shef.ac.uk/ccrepo) Feb. 2017
                 K. A. Peterson, D. Figgen, M. Dolg, H. Stoll, J. Chem. Phys. 126, 124101 (2007)
        Ag, Au : Obtained from the Peterson Research Group Website (tyr0.chem.wsu.edu/~kipeters) Feb. 2017
                 K. A. Peterson, C. Puzzarini, Theor. Chem. Acc. 114, 283 (2005)

----- AuxJ basis set information -----
Your calculation utilizes the auxiliary basis: aug-cc-pVTZ/JK 
  H, B-F, Al-Cl, Ga-Br : Obtained from the TURBOMOLE 7.0 basis set library

The basis set includes element-specific modifications.

Your calculation utilizes the auxiliary basis: cc-pVTZ/JK 
  H, B-F, Al-Cl, Ga-Br : Obtained from the TURBOMOLE 7.0 basis set library

----- AuxC basis set information -----
Your calculation utilizes the auxiliary basis: aug-cc-pVTZ/C 
  H-He, B-F, Al-Ar, Ga-Kr : Obtained from the EMSL Basis Set Exchange (bse.pnl.gov) Feb. 2017
                            F. Weigend, A. Kohn, C. Hattig, J. Chem. Phys. 116, 3175 (2002)
                   Be, Mg : Obtained from the TURBOMOLE 7.0 basis set library
                            C. Haettig, Phys. Chem. Chem. Phys. 7, 59 (2005)
                       Ne : Obtained from the EMSL Basis Set Exchange (bse.pnl.gov) Feb. 2017
                            C. Haettig, Phys. Chem. Chem. Phys. 7, 59 (2005)
                            F. Weigend, A. Kohn, C. Hattig, J. Chem. Phys. 116, 3175 (2002)
                    Sc-Zn : Obtained from the EMSL Basis Set Exchange (bse.pnl.gov) Feb. 2017
                            J. G. Hill, J. A. Platts, J. Chem. Phys. 128, 044104 (2008)

The basis set includes element-specific modifications.

Your calculation utilizes the auxiliary basis: cc-pVTZ/C 
  Obtained from the EMSL Basis Set Exchange (bse.pnl.gov) Feb. 2017
  H-He, B-F, Al-Ar, Ga-Kr : F. Weigend, A. Kohn, C. Hattig, J. Chem. Phys. 116, 3175 (2002)
             Li-Be, Na-Mg : C. Haettig, Phys. Chem. Chem. Phys. 7, 59 (2005)
                       Ne : C. Haettig, Phys. Chem. Chem. Phys. 7, 59 (2005)
                            F. Weigend, A. Kohn, C. Hattig, J. Chem. Phys. 116, 3175 (2002)
                    Sc-Zn : J. G. Hill, J. A. Platts, J. Chem. Phys. 128, 044104 (2008)

================================================================================
                                        WARNINGS
                       Please study these warnings very carefully!
================================================================================

INFO   : Checking CIS options ...
  ===> : (D) CORRECTION FOUND - SETTING MODE=3
  ===> : JK MODE FOUND - ACTIVATING RI-MP2 CODE
  ===> : MP2 AND CIS FOUND - CHECKING
WARNING: CIS(D) and MP2 runs must have the same orbital window
  ===> : adjusting orbital windows

WARNING: No MP2 level density has been requested!
         To caclulate MP2 level properties use
         %mp2 Density relaxed end
         or
         %mp2 Density unrelaxed end
         Otherwise for double-hybrid DFT only the energy is correct!

WARNING: The frozen-core approximation is turned on by default for 
         the MP2 part of double-hybrid DFT.

INFO   : the flag for use of the SHARK integral package has been found!

================================================================================
                                       INPUT FILE
================================================================================
NAME = optpbed3-b2plyp-test-510.inp
|  1> ! pbe0 d3bj aug-cc-PVTZ RIJCOSX Opt
|  2> %maxcore 4000
|  3> %basis
|  4>  AuxJ "aug-cc-PVTZ/JK"
|  5>  AuxC "aug-cc-PVTZ/C"
|  6>  newGTO H "cc-PVTZ" end
|  7>  newAuxJGTO H "cc-PVTZ/JK" end
|  8>  newAuxCGTO H "cc-PVTZ/C" end
|  9> end
| 10> %cpcm
| 11>  SMD true
| 12>  SMDsolvent "benzene"
| 13> end
| 14> %pal nprocs 4 end
| 15> * xyz 0 1
| 16> C         -3.28840        2.48650       -0.03300
| 17> O         -3.67460        1.13300        0.02370
| 18> C         -2.70620        0.18530        0.02440
| 19> C         -3.17210       -1.14800        0.08490
| 20> C         -2.29620       -2.19240        0.09280
| 21> C         -0.90340       -1.97190        0.04020
| 22> C          0.02710       -3.03450        0.04670
| 23> C          1.37240       -2.80440       -0.00490
| 24> C          1.84230       -1.48180       -0.06630
| 25> O          3.18390       -1.28220       -0.11720
| 26> C          3.69620       -0.01920       -0.17750
| 27> O          4.89250        0.12860       -0.22060
| 28> C          2.70750        1.07840       -0.18480
| 29> C          3.24760        2.46210       -0.25270
| 30> N          1.43680        0.88070       -0.13680
| 31> C          0.96410       -0.40120       -0.07540
| 32> C         -0.44140       -0.63480       -0.02090
| 33> C         -1.35230        0.43190       -0.02760
| 34> H         -2.73770        2.70600       -0.95270
| 35> H         -4.21480        3.05830       -0.02000
| 36> H         -2.67730        2.76360        0.83120
| 37> H         -4.23850       -1.30480        0.12400
| 38> H         -2.66060       -3.20800        0.13910
| 39> H         -0.34590       -4.04690        0.09410
| 40> H          2.09310       -3.60630       -0.00030
| 41> H          3.91470        2.63510        0.59020
| 42> H          2.43480        3.18130       -0.24270
| 43> H          3.84090        2.57780       -1.15840
| 44> H         -0.94450        1.42780       -0.07450
| 45> *
| 46> 
| 47> 
| 48> $new_job
| 49> ! b2plyp aug-cc-PVTZ RIJCOSX SP
| 50> %maxcore 4000
| 51> %basis
| 52>  AuxJ "aug-cc-PVTZ/JK"
| 53>  AuxC "aug-cc-PVTZ/C"
| 54>  newGTO H "cc-PVTZ" end
| 55>  newAuxJGTO H "cc-PVTZ/JK" end
| 56>  newAuxCGTO H "cc-PVTZ/C" end
| 57> end
| 58> %cpcm
| 59>  SMD true
| 60>  SMDsolvent "benzene"
| 61> end
| 62> %pal nprocs 4 end
| 63> %tddft
| 64>  nroots 10
| 65>  maxdim 7
| 66> end
| 67> * xyzfile 0 1
| 68> 
| 69>                          ****END OF INPUT****
================================================================================


                 $$$$$$$$$$$$$$$$$$$$$$$$$$$$$$$$$$$$$$$$$$$$$$ 
                 $ THERE ARE  2 JOBS TO BE PROCESSED THIS RUN $
                 $$$$$$$$$$$$$$$$$$$$$$$$$$$$$$$$$$$$$$$$$$$$$$ 




                 $$$$$$$$$$$$$$$$  JOB NUMBER  1 $$$$$$$$$$$$$$


                       *****************************
                       * Geometry Optimization Run *
                       *****************************

Geometry optimization settings:
Update method            Update   .... BFGS
Choice of coordinates    CoordSys .... Z-matrix Internals
Initial Hessian          InHess   .... Almoef's Model

Convergence Tolerances:
Energy Change            TolE     ....  5.0000e-06 Eh
Max. Gradient            TolMAXG  ....  3.0000e-04 Eh/bohr
RMS Gradient             TolRMSG  ....  1.0000e-04 Eh/bohr
Max. Displacement        TolMAXD  ....  4.0000e-03 bohr
RMS Displacement         TolRMSD  ....  2.0000e-03 bohr
Strict Convergence                ....  False
------------------------------------------------------------------------------
                        ORCA OPTIMIZATION COORDINATE SETUP
------------------------------------------------------------------------------

The optimization will be done in new redundant internal coordinates
Making redundant internal coordinates   ...  (new redundants) done
Evaluating the initial hessian          ...  (Almloef) done
Evaluating the coordinates              ...  done
Calculating the B-matrix                .... done
Calculating the G-matrix                .... done
Diagonalizing the G-matrix              .... done
Small eigenvalue found = 7.193e-03
Small eigenvalue found = 2.504e-02
The first mode is                       ....   68
The number of degrees of freedom        ....   81

    -----------------------------------------------------------------
                    Redundant Internal Coordinates


    -----------------------------------------------------------------
         Definition                    Initial Value    Approx d2E/dq
    -----------------------------------------------------------------
      1. B(O   1,C   0)                  1.4087         0.522519   
      2. B(C   2,O   1)                  1.3550         0.636457   
      3. B(C   3,C   2)                  1.4137         0.572800   
      4. B(C   4,C   3)                  1.3631         0.689699   
      5. B(C   5,C   4)                  1.4111         0.578139   
      6. B(C   6,C   5)                  1.4124         0.575353   
      7. B(C   7,C   6)                  1.3658         0.682857   
      8. B(C   8,C   7)                  1.4049         0.591437   
      9. B(O   9,C   8)                  1.3573         0.630975   
     10. B(C  10,O   9)                  1.3643         0.615052   
     11. B(O  11,C  10)                  1.2062         1.099439   
     12. B(C  12,C  10)                  1.4773         0.453436   
     13. B(C  13,C  12)                  1.4869         0.437625   
     14. B(N  14,C  12)                  1.2869         0.817320   
     15. B(C  15,C   8)                  1.3925         0.619119   
     16. B(C  15,N  14)                  1.3677         0.607469   
     17. B(C  16,C  15)                  1.4258         0.547755   
     18. B(C  16,C   5)                  1.4160         0.567912   
     19. B(C  17,C  16)                  1.4027         0.596265   
     20. B(C  17,C   2)                  1.3772         0.654982   
     21. B(H  18,C   0)                  1.0942         0.354572   
     22. B(H  19,C   0)                  1.0887         0.361779   
     23. B(H  20,C   0)                  1.0941         0.354708   
     24. B(H  21,C   3)                  1.0786         0.375535   
     25. B(H  22,C   4)                  1.0800         0.373591   
     26. B(H  23,C   6)                  1.0800         0.373620   
     27. B(H  24,C   7)                  1.0782         0.376080   
     28. B(H  25,C  13)                  1.0888         0.361724   
     29. B(H  26,C  13)                  1.0854         0.366299   
     30. B(H  27,C  13)                  1.0889         0.361570   
     31. B(H  28,C  17)                  1.0772         0.377465   
     32. A(H  19,C   0,H  20)          109.4395         0.290363   
     33. A(O   1,C   0,H  19)          105.7159         0.341063   
     34. A(O   1,C   0,H  18)          111.3804         0.339917   
     35. A(O   1,C   0,H  20)          111.3882         0.339939   
     36. A(H  18,C   0,H  20)          109.3894         0.289448   
     37. A(H  18,C   0,H  19)          109.4464         0.290346   
     38. A(C   0,O   1,C   2)          118.4320         0.417463   
     39. A(O   1,C   2,C   3)          115.0967         0.427147   
     40. A(C   3,C   2,C  17)          119.6374         0.432174   
     41. A(O   1,C   2,C  17)          125.2659         0.437565   
     42. A(C   2,C   3,H  21)          117.6790         0.350696   
     43. A(C   2,C   3,C   4)          120.7383         0.436209   
     44. A(C   4,C   3,H  21)          121.5828         0.361930   
     45. A(C   5,C   4,H  22)          118.7879         0.350938   
     46. A(C   3,C   4,H  22)          120.2617         0.361610   
     47. A(C   3,C   4,C   5)          120.9503         0.436939   
     48. A(C   6,C   5,C  16)          119.7130         0.421606   
     49. A(C   4,C   5,C  16)          118.1121         0.421970   
     50. A(C   4,C   5,C   6)          122.1749         0.422952   
     51. A(C   5,C   6,C   7)          121.4650         0.435775   
     52. A(C   7,C   6,H  23)          119.9857         0.361000   
     53. A(C   5,C   6,H  23)          118.5493         0.350656   
     54. A(C   6,C   7,C   8)          119.3202         0.437946   
     55. A(C   8,C   7,H  24)          118.4755         0.352685   
     56. A(C   6,C   7,H  24)          122.2043         0.361405   
     57. A(O   9,C   8,C  15)          120.5975         0.432478   
     58. A(C   7,C   8,C  15)          121.3251         0.430292   
     59. A(C   7,C   8,O   9)          118.0774         0.428940   
     60. A(C   8,O   9,C  10)          120.5943         0.429144   
     61. A(O  11,C  10,C  12)          124.9305         0.451968   
     62. A(O   9,C  10,C  12)          115.8958         0.407253   
     63. A(O   9,C  10,O  11)          119.1736         0.474697   
     64. A(C  13,C  12,N  14)          120.2206         0.425691   
     65. A(C  10,C  12,N  14)          123.1295         0.428407   
     66. A(C  10,C  12,C  13)          116.6499         0.386102   
     67. A(H  26,C  13,H  27)          110.1998         0.291808   
     68. A(H  25,C  13,H  27)          107.0498         0.291231   
     69. A(C  12,C  13,H  27)          109.5588         0.333125   
     70. A(H  25,C  13,H  26)          110.2686         0.291827   
     71. A(C  12,C  13,H  26)          110.1330         0.333844   
     72. A(C  12,C  13,H  25)          109.5766         0.333148   
     73. A(C  12,N  14,C  15)          119.1403         0.448649   
     74. A(N  14,C  15,C  16)          119.7344         0.420229   
     75. A(C   8,C  15,C  16)          119.6231         0.424416   
     76. A(C   8,C  15,N  14)          120.6425         0.429539   
     77. A(C  15,C  16,C  17)          121.0211         0.421573   
     78. A(C   5,C  16,C  17)          120.4253         0.424305   
     79. A(C   5,C  16,C  15)          118.5537         0.417926   
     80. A(C   2,C  17,C  16)          120.1366         0.435306   
     81. A(C  16,C  17,H  28)          117.2216         0.353391   
     82. A(C   2,C  17,H  28)          122.6418         0.359071   
     83. D(C   2,O   1,C   0,H  19)   -179.8552         0.021655   
     84. D(C   2,O   1,C   0,H  18)     61.3564         0.021655   
     85. D(C   2,O   1,C   0,H  20)    -61.0707         0.021655   
     86. D(C  17,C   2,O   1,C   0)     -0.0642         0.029837   
     87. D(C   3,C   2,O   1,C   0)    179.9126         0.029837   
     88. D(H  21,C   3,C   2,O   1)      0.0566         0.022516   
     89. D(C   4,C   3,C   2,C  17)      0.0222         0.022516   
     90. D(C   4,C   3,C   2,O   1)   -179.9560         0.022516   
     91. D(H  21,C   3,C   2,C  17)   -179.9652         0.022516   
     92. D(C   5,C   4,C   3,H  21)    179.9529         0.033420   
     93. D(H  22,C   4,C   3,H  21)     -0.0078         0.033420   
     94. D(H  22,C   4,C   3,C   2)   -179.9947         0.033420   
     95. D(C   5,C   4,C   3,C   2)     -0.0340         0.033420   
     96. D(C   6,C   5,C   4,H  22)     -0.0260         0.022957   
     97. D(C   6,C   5,C   4,C   3)   -179.9872         0.022957   
     98. D(C  16,C   5,C   4,H  22)    179.9671         0.022957   
     99. D(C  16,C   5,C   4,C   3)      0.0059         0.022957   
    100. D(H  23,C   6,C   5,C  16)    179.9767         0.022726   
    101. D(H  23,C   6,C   5,C   4)     -0.0303         0.022726   
    102. D(C   7,C   6,C   5,C  16)     -0.0030         0.022726   
    103. D(C   7,C   6,C   5,C   4)    179.9899         0.022726   
    104. D(H  24,C   7,C   6,H  23)      0.0021         0.032708   
    105. D(H  24,C   7,C   6,C   5)    179.9815         0.032708   
    106. D(C   8,C   7,C   6,H  23)    179.9981         0.032708   
    107. D(C   8,C   7,C   6,C   5)     -0.0224         0.032708   
    108. D(C  15,C   8,C   7,C   6)      0.0093         0.024078   
    109. D(O   9,C   8,C   7,H  24)      0.0194         0.024078   
    110. D(O   9,C   8,C   7,C   6)   -179.9768         0.024078   
    111. D(C  15,C   8,C   7,H  24)   -179.9944         0.024078   
    112. D(C  10,O   9,C   8,C  15)      0.0340         0.029286   
    113. D(C  10,O   9,C   8,C   7)   -179.9797         0.029286   
    114. D(C  12,C  10,O   9,C   8)     -0.0841         0.027722   
    115. D(O  11,C  10,O   9,C   8)    179.9322         0.027722   
    116. D(N  14,C  12,C  10,O  11)   -179.9582         0.014011   
    117. D(N  14,C  12,C  10,O   9)      0.0592         0.014011   
    118. D(C  13,C  12,C  10,O  11)      0.0904         0.014011   
    119. D(C  13,C  12,C  10,O   9)   -179.8922         0.014011   
    120. D(H  27,C  13,C  12,C  10)     59.1580         0.014134   
    121. D(H  26,C  13,C  12,N  14)      0.5730         0.014134   
    122. D(H  26,C  13,C  12,C  10)   -179.4742         0.014134   
    123. D(H  25,C  13,C  12,N  14)    122.0378         0.014134   
    124. D(H  27,C  13,C  12,N  14)   -120.7949         0.014134   
    125. D(H  25,C  13,C  12,C  10)    -58.0093         0.014134   
    126. D(C  15,N  14,C  12,C  13)    179.9704         0.051752   
    127. D(C  15,N  14,C  12,C  10)      0.0207         0.051752   
    128. D(C  16,C  15,N  14,C  12)    179.9598         0.026996   
    129. D(C   8,C  15,N  14,C  12)     -0.0760         0.026996   
    130. D(C  16,C  15,C   8,O   9)   -179.9853         0.026519   
    131. D(C  16,C  15,C   8,C   7)      0.0289         0.026519   
    132. D(N  14,C  15,C   8,O   9)      0.0504         0.026519   
    133. D(N  14,C  15,C   8,C   7)   -179.9354         0.026519   
    134. D(C  17,C  16,C  15,C   8)    179.9603         0.020519   
    135. D(C   5,C  16,C  15,N  14)    179.9114         0.020519   
    136. D(C   5,C  16,C  15,C   8)     -0.0532         0.020519   
    137. D(C  17,C  16,C   5,C   6)   -179.9727         0.022117   
    138. D(C  17,C  16,C   5,C   4)      0.0340         0.022117   
    139. D(C  15,C  16,C   5,C   6)      0.0407         0.022117   
    140. D(C  17,C  16,C  15,N  14)     -0.0751         0.020519   
    141. D(C  15,C  16,C   5,C   4)   -179.9526         0.022117   
    142. D(H  28,C  17,C   2,C   3)   -179.9864         0.029902   
    143. D(H  28,C  17,C   2,O   1)     -0.0106         0.029902   
    144. D(C  16,C  17,C   2,C   3)      0.0179         0.029902   
    145. D(C  16,C  17,C   2,O   1)    179.9937         0.029902   
    146. D(H  28,C  17,C  16,C  15)     -0.0556         0.024493   
    147. D(H  28,C  17,C  16,C   5)    179.9581         0.024493   
    148. D(C   2,C  17,C  16,C  15)    179.9402         0.024493   
    149. D(C   2,C  17,C  16,C   5)     -0.0460         0.024493   
    -----------------------------------------------------------------

Number of atoms                         .... 29
Number of degrees of freedom            .... 149

         *************************************************************
         *                GEOMETRY OPTIMIZATION CYCLE   1            *
         *************************************************************
---------------------------------
CARTESIAN COORDINATES (ANGSTROEM)
---------------------------------
  C     -3.288400    2.486500   -0.033000
  O     -3.674600    1.133000    0.023700
  C     -2.706200    0.185300    0.024400
  C     -3.172100   -1.148000    0.084900
  C     -2.296200   -2.192400    0.092800
  C     -0.903400   -1.971900    0.040200
  C      0.027100   -3.034500    0.046700
  C      1.372400   -2.804400   -0.004900
  C      1.842300   -1.481800   -0.066300
  O      3.183900   -1.282200   -0.117200
  C      3.696200   -0.019200   -0.177500
  O      4.892500    0.128600   -0.220600
  C      2.707500    1.078400   -0.184800
  C      3.247600    2.462100   -0.252700
  N      1.436800    0.880700   -0.136800
  C      0.964100   -0.401200   -0.075400
  C     -0.441400   -0.634800   -0.020900
  C     -1.352300    0.431900   -0.027600
  H     -2.737700    2.706000   -0.952700
  H     -4.214800    3.058300   -0.020000
  H     -2.677300    2.763600    0.831200
  H     -4.238500   -1.304800    0.124000
  H     -2.660600   -3.208000    0.139100
  H     -0.345900   -4.046900    0.094100
  H      2.093100   -3.606300   -0.000300
  H      3.914700    2.635100    0.590200
  H      2.434800    3.181300   -0.242700
  H      3.840900    2.577800   -1.158400
  H     -0.944500    1.427800   -0.074500

----------------------------
CARTESIAN COORDINATES (A.U.)
----------------------------
  NO LB      ZA    FRAG     MASS         X           Y           Z
   0 C     6.0000    0    12.011   -6.214175    4.698804   -0.062361
   1 O     8.0000    0    15.999   -6.943988    2.141060    0.044787
   2 C     6.0000    0    12.011   -5.113977    0.350166    0.046109
   3 C     6.0000    0    12.011   -5.994400   -2.169406    0.160438
   4 C     6.0000    0    12.011   -4.339189   -4.143036    0.175367
   5 C     6.0000    0    12.011   -1.707179   -3.726351    0.075967
   6 C     6.0000    0    12.011    0.051212   -5.734374    0.088250
   7 C     6.0000    0    12.011    2.593460   -5.299548   -0.009260
   8 C     6.0000    0    12.011    3.481442   -2.800196   -0.125289
   9 O     8.0000    0    15.999    6.016699   -2.423007   -0.221476
  10 C     6.0000    0    12.011    6.984806   -0.036283   -0.335426
  11 O     8.0000    0    15.999    9.245485    0.243019   -0.416874
  12 C     6.0000    0    12.011    5.116434    2.037881   -0.349221
  13 C     6.0000    0    12.011    6.137075    4.652695   -0.477534
  14 N     7.0000    0    14.007    2.715159    1.664282   -0.258515
  15 C     6.0000    0    12.011    1.821885   -0.758158   -0.142485
  16 C     6.0000    0    12.011   -0.834125   -1.199598   -0.039495
  17 C     6.0000    0    12.011   -2.555477    0.816173   -0.052156
  18 H     1.0000    0     1.008   -5.173503    5.113599   -1.800342
  19 H     1.0000    0     1.008   -7.964818    5.779349   -0.037795
  20 H     1.0000    0     1.008   -5.059364    5.222447    1.570740
  21 H     1.0000    0     1.008   -8.009604   -2.465715    0.234326
  22 H     1.0000    0     1.008   -5.027805   -6.062241    0.262861
  23 H     1.0000    0     1.008   -0.653656   -7.647533    0.177823
  24 H     1.0000    0     1.008    3.955386   -6.814919   -0.000567
  25 H     1.0000    0     1.008    7.397711    4.979617    1.115316
  26 H     1.0000    0     1.008    4.601105    6.011786   -0.458637
  27 H     1.0000    0     1.008    7.258249    4.871336   -2.189059
  28 H     1.0000    0     1.008   -1.784846    2.698151   -0.140785

--------------------------------
INTERNAL COORDINATES (ANGSTROEM)
--------------------------------
 C      0   0   0     0.000000000000     0.00000000     0.00000000
 O      1   0   0     1.408661627219     0.00000000     0.00000000
 C      2   1   0     1.354966545712   118.43196956     0.00000000
 C      3   2   1     1.413651990413   115.09669444   179.91256567
 C      4   3   2     1.363097421317   120.73826527   180.04401472
 C      5   4   3     1.411126801531   120.95033122   359.96595213
 C      6   5   4     1.412441595253   122.17490775   180.01282059
 C      7   6   5     1.365811355935   121.46499818   179.98994566
 C      8   7   6     1.404936557286   119.32018949     0.00000000
 O      9   8   7     1.357321454188   118.07744414   180.02316940
 C     10   9   8     1.364278703198   120.59427733   180.02028147
 O     11  10   9     1.206165884114   119.17364174   179.93217551
 C     11  10   9     1.477263260221   115.89583405   359.91587340
 C     13  11  10     1.486924379382   116.64988942   180.10778896
 N     13  11  10     1.286882970592   123.12950203     0.05916177
 C     15  13  11     1.367655972824   119.14032152     0.00000000
 C      6   5   4     1.415985035232   118.11212394     0.00000000
 C      3   2   1     1.377156770306   125.26593745   359.93580814
 H      1   2   3     1.094211510632   111.38040146    61.35635323
 H      1   2   3     1.088733759925   105.71591622   180.14483251
 H      1   2   3     1.094106603581   111.38817961   298.92929051
 H      4   3   2     1.078574990439   117.67896303     0.05660426
 H      5   4   3     1.079988152713   120.26172119   180.00532724
 H      7   6   5     1.079967369877   118.54934474   359.96968642
 H      8   7   6     1.078180532193   122.20433316   179.98151131
 H     14  13  11     1.088775376283   109.57657482   301.99071639
 H     14  13  11     1.085353619794   110.13302364   180.52584929
 H     14  13  11     1.088891119442   109.55880627    59.15800604
 H     18   3   2     1.077180235615   122.64176505     0.00000000

---------------------------
INTERNAL COORDINATES (A.U.)
---------------------------
 C      0   0   0     0.000000000000     0.00000000     0.00000000
 O      1   0   0     2.661984690808     0.00000000     0.00000000
 C      2   1   0     2.560515692022   118.43196956     0.00000000
 C      3   2   1     2.671415110554   115.09669444   179.91256567
 C      4   3   2     2.575880820143   120.73826527   180.04401472
 C      5   4   3     2.666643195130   120.95033122   359.96595213
 C      6   5   4     2.669127795186   122.17490775   180.01282059
 C      7   6   5     2.581009413316   121.46499818   179.98994566
 C      8   7   6     2.654945328806   119.32018949     0.00000000
 O      9   8   7     2.564965824112   118.07744414   180.02316940
 C     10   9   8     2.578113119386   120.59427733   180.02028147
 O     11  10   9     2.279323193054   119.17364174   179.93217551
 C     11  10   9     2.791622989522   115.89583405   359.91587340
 C     13  11  10     2.809879858882   116.64988942   180.10778896
 N     13  11  10     2.431856380826   123.12950203     0.05916177
 C     15  13  11     2.584495234058   119.14032152     0.00000000
 C      6   5   4     2.675823926319   118.11212394     0.00000000
 C      3   2   1     2.602449139354   125.26593745   359.93580814
 H      1   2   3     2.067760087679   111.38040146    61.35635323
 H      1   2   3     2.057408639012   105.71591622   180.14483251
 H      1   2   3     2.067561842083   111.38817961   298.92929051
 H      4   3   2     2.038211346826   117.67896303     0.05660426
 H      5   4   3     2.040881836507   120.26172119   180.00532724
 H      7   6   5     2.040842562640   118.54934474   359.96968642
 H      8   7   6     2.037465928770   122.20433316   179.98151131
 H     14  13  11     2.057487282532   109.57657482   301.99071639
 H     14  13  11     2.051021099871   110.13302364   180.52584929
 H     14  13  11     2.057706005405   109.55880627    59.15800604
 H     18   3   2     2.035575642185   122.64176505     0.00000000

---------------------
BASIS SET INFORMATION
---------------------
There are 4 groups of distinct atoms

 Group   1 Type C   : 19s6p3d2f contracted to 5s4p3d2f pattern {88111/3111/111/11}
 Group   2 Type O   : 19s6p3d2f contracted to 5s4p3d2f pattern {88111/3111/111/11}
 Group   3 Type N   : 19s6p3d2f contracted to 5s4p3d2f pattern {88111/3111/111/11}
 Group   4 Type H   : 5s2p1d contracted to 3s2p1d pattern {311/11/1}

Atom   0C    basis set group =>   1
Atom   1O    basis set group =>   2
Atom   2C    basis set group =>   1
Atom   3C    basis set group =>   1
Atom   4C    basis set group =>   1
Atom   5C    basis set group =>   1
Atom   6C    basis set group =>   1
Atom   7C    basis set group =>   1
Atom   8C    basis set group =>   1
Atom   9O    basis set group =>   2
Atom  10C    basis set group =>   1
Atom  11O    basis set group =>   2
Atom  12C    basis set group =>   1
Atom  13C    basis set group =>   1
Atom  14N    basis set group =>   3
Atom  15C    basis set group =>   1
Atom  16C    basis set group =>   1
Atom  17C    basis set group =>   1
Atom  18H    basis set group =>   4
Atom  19H    basis set group =>   4
Atom  20H    basis set group =>   4
Atom  21H    basis set group =>   4
Atom  22H    basis set group =>   4
Atom  23H    basis set group =>   4
Atom  24H    basis set group =>   4
Atom  25H    basis set group =>   4
Atom  26H    basis set group =>   4
Atom  27H    basis set group =>   4
Atom  28H    basis set group =>   4
---------------------------------
AUXILIARY/J BASIS SET INFORMATION
---------------------------------
There are 4 groups of distinct atoms

 Group   1 Type C   : 10s7p5d2f1g contracted to 10s7p5d2f1g pattern {1111111111/1111111/11111/11/1}
 Group   2 Type O   : 10s7p5d2f1g contracted to 10s7p5d2f1g pattern {1111111111/1111111/11111/11/1}
 Group   3 Type N   : 10s7p5d2f1g contracted to 10s7p5d2f1g pattern {1111111111/1111111/11111/11/1}
 Group   4 Type H   : 4s3p2d1f contracted to 4s3p2d1f pattern {1111/111/11/1}

Atom   0C    basis set group =>   1
Atom   1O    basis set group =>   2
Atom   2C    basis set group =>   1
Atom   3C    basis set group =>   1
Atom   4C    basis set group =>   1
Atom   5C    basis set group =>   1
Atom   6C    basis set group =>   1
Atom   7C    basis set group =>   1
Atom   8C    basis set group =>   1
Atom   9O    basis set group =>   2
Atom  10C    basis set group =>   1
Atom  11O    basis set group =>   2
Atom  12C    basis set group =>   1
Atom  13C    basis set group =>   1
Atom  14N    basis set group =>   3
Atom  15C    basis set group =>   1
Atom  16C    basis set group =>   1
Atom  17C    basis set group =>   1
Atom  18H    basis set group =>   4
Atom  19H    basis set group =>   4
Atom  20H    basis set group =>   4
Atom  21H    basis set group =>   4
Atom  22H    basis set group =>   4
Atom  23H    basis set group =>   4
Atom  24H    basis set group =>   4
Atom  25H    basis set group =>   4
Atom  26H    basis set group =>   4
Atom  27H    basis set group =>   4
Atom  28H    basis set group =>   4
---------------------------------
AUXILIARY/C BASIS SET INFORMATION
---------------------------------
There are 4 groups of distinct atoms

 Group   1 Type C   : 9s7p6d4f2g contracted to 9s7p6d4f2g pattern {111111111/1111111/111111/1111/11}
 Group   2 Type O   : 9s7p6d4f2g contracted to 9s7p6d4f2g pattern {111111111/1111111/111111/1111/11}
 Group   3 Type N   : 9s7p6d4f2g contracted to 9s7p6d4f2g pattern {111111111/1111111/111111/1111/11}
 Group   4 Type H   : 4s3p2d1f contracted to 4s3p2d1f pattern {1111/111/11/1}

Atom   0C    basis set group =>   1
Atom   1O    basis set group =>   2
Atom   2C    basis set group =>   1
Atom   3C    basis set group =>   1
Atom   4C    basis set group =>   1
Atom   5C    basis set group =>   1
Atom   6C    basis set group =>   1
Atom   7C    basis set group =>   1
Atom   8C    basis set group =>   1
Atom   9O    basis set group =>   2
Atom  10C    basis set group =>   1
Atom  11O    basis set group =>   2
Atom  12C    basis set group =>   1
Atom  13C    basis set group =>   1
Atom  14N    basis set group =>   3
Atom  15C    basis set group =>   1
Atom  16C    basis set group =>   1
Atom  17C    basis set group =>   1
Atom  18H    basis set group =>   4
Atom  19H    basis set group =>   4
Atom  20H    basis set group =>   4
Atom  21H    basis set group =>   4
Atom  22H    basis set group =>   4
Atom  23H    basis set group =>   4
Atom  24H    basis set group =>   4
Atom  25H    basis set group =>   4
Atom  26H    basis set group =>   4
Atom  27H    basis set group =>   4
Atom  28H    basis set group =>   4


           ************************************************************
           *        Program running with 4 parallel MPI-processes     *
           *              working on a common directory               *
           ************************************************************
------------------------------------------------------------------------------
                           ORCA GTO INTEGRAL CALCULATION
                           -- RI-GTO INTEGRALS CHOSEN --
------------------------------------------------------------------------------
------------------------------------------------------------------------------
                   ___                                                        
                  /   \      - P O W E R E D   B Y -                         
                 /     \                                                     
                 |  |  |   _    _      __       _____    __    __             
                 |  |  |  | |  | |    /  \     |  _  \  |  |  /  |          
                  \  \/   | |  | |   /    \    | | | |  |  | /  /          
                 / \  \   | |__| |  /  /\  \   | |_| |  |  |/  /          
                |  |  |   |  __  | /  /__\  \  |    /   |      \           
                |  |  |   | |  | | |   __   |  |    \   |  |\   \          
                \     /   | |  | | |  |  |  |  | |\  \  |  | \   \       
                 \___/    |_|  |_| |__|  |__|  |_| \__\ |__|  \__/        
                                                                              
                      - O R C A' S   B I G   F R I E N D -                    
                                      &                                       
                       - I N T E G R A L  F E E D E R -                       
                                                                              
 v1 FN, 2020, v2 2021                                                         
------------------------------------------------------------------------------


Reading SHARK input file optpbed3-b2plyp-test-510.SHARKINP.tmp ... ok
----------------------
SHARK INTEGRAL PACKAGE
----------------------

Number of atoms                             ...     29
Number of basis functions                   ...   1090
Number of shells                            ...    426
Maximum angular momentum                    ...      3
Integral batch strategy                     ... SHARK/LIBINT Hybrid
RI-J (if used) integral strategy            ... SPLIT-RIJ (Revised 2003 algorithm where possible)
Printlevel                                  ...      1
Contraction scheme used                     ... PARTIAL GENERAL contraction
Coulomb Range Separation                    ... NOT USED
Exchange Range Separation                   ... NOT USED
Finite Nucleus Model                        ... NOT USED
Auxiliary Coulomb fitting basis             ... AVAILABLE
   # of basis functions in Aux-J            ...   1752
   # of shells in Aux-J                     ...    560
   Maximum angular momentum in Aux-J        ...      4
Auxiliary J/K fitting basis                 ... NOT available
Auxiliary Correlation fitting basis         ... AVAILABLE
   # of basis functions in Aux-C            ...   2238
   # of shells in Aux-C                     ...    614
   Maximum angular momentum in Aux-C        ...      4
Auxiliary 'external' fitting basis          ... NOT available
Integral threshold                          ...     2.500000e-11
Primitive cut-off                           ...     2.500000e-12
Primitive pair pre-selection threshold      ...     2.500000e-12

Calculating pre-screening integrals         ... done (  0.3 sec) Dimension = 426
Calculating pre-screening integrals (ORCA)  ... done (  0.5 sec) Dimension = 318
Organizing shell pair data                  ... done (  1.1 sec)
Shell pair information
Total number of shell pairs                 ...     90951
Shell pairs after pre-screening             ...     62121
Total number of primitive shell pairs       ...    117457
Primitive shell pairs kept                  ...     72989
          la=0 lb=0:  14162 shell pairs
          la=1 lb=0:  15674 shell pairs
          la=1 lb=1:   3745 shell pairs
          la=2 lb=0:  10503 shell pairs
          la=2 lb=1:   5012 shell pairs
          la=2 lb=2:   1738 shell pairs
          la=3 lb=0:   5929 shell pairs
          la=3 lb=1:   2839 shell pairs
          la=3 lb=2:   1938 shell pairs
          la=3 lb=3:    581 shell pairs

Calculating one electron integrals          ... done (  0.3 sec)
Calculating RI/J V-Matrix + Cholesky decomp.... done (  0.4 sec)
Calculating RI/C V-Matrix + Cholesky decomp.... done (  0.5 sec)
Calculating Nuclear repulsion               ... done (  0.0 sec) ENN=   1241.744461864308 Eh

SHARK setup successfully completed in   4.8 seconds

Maximum memory used throughout the entire GTOINT-calculation: 95.3 MB


           ************************************************************
           *        Program running with 4 parallel MPI-processes     *
           *              working on a common directory               *
           ************************************************************
-------------------------------------------------------------------------------
                                 ORCA SCF
-------------------------------------------------------------------------------

------------
SCF SETTINGS
------------
Hamiltonian:
 Density Functional     Method          .... DFT(GTOs)
 Exchange Functional    Exchange        .... PBE
   PBE kappa parameter   XKappa         ....  0.804000
   PBE mue parameter    XMuePBE         ....  0.219520
 Correlation Functional Correlation     .... PBE
   PBE beta parameter  CBetaPBE         ....  0.066725
 LDA part of GGA corr.  LDAOpt          .... PW91-LDA
 Gradients option       PostSCFGGA      .... off
 Hybrid DFT is turned on
   Fraction HF Exchange ScalHFX         ....  0.250000
   Scaling of DF-GGA-X  ScalDFX         ....  0.750000
   Scaling of DF-GGA-C  ScalDFC         ....  1.000000
   Scaling of DF-LDA-C  ScalLDAC        ....  1.000000
   Perturbative correction              ....  0.000000
   Density functional embedding theory  .... OFF
   NL short-range parameter             ....  6.900000
 RI-approximation to the Coulomb term is turned on
   Number of AuxJ basis functions       .... 1752
   RIJ-COSX (HFX calculated with COS-X)).... on


General Settings:
 Integral files         IntName         .... optpbed3-b2plyp-test-510
 Hartree-Fock type      HFTyp           .... RHF
 Total Charge           Charge          ....    0
 Multiplicity           Mult            ....    1
 Number of Electrons    NEL             ....  126
 Basis Dimension        Dim             ....  982
 Nuclear Repulsion      ENuc            ....   1241.7444618643 Eh

Convergence Acceleration:
 DIIS                   CNVDIIS         .... on
   Start iteration      DIISMaxIt       ....    12
   Startup error        DIISStart       ....  0.200000
   # of expansion vecs  DIISMaxEq       ....     5
   Bias factor          DIISBfac        ....   1.050
   Max. coefficient     DIISMaxC        ....  10.000
 Trust-Rad. Augm. Hess. CNVTRAH         .... auto
   Auto Start mean grad. ratio tolernc. ....  1.125000
   Auto Start start iteration           ....    20
   Auto Start num. interpolation iter.  ....    10
   Max. Number of Micro iterations      ....    16
   Max. Number of Macro iterations      .... Maxiter - #DIIS iter
   Number of Davidson start vectors     ....     2
   Converg. threshold I  (grad. norm)   ....   1.000e-05
   Converg. threshold II (energy diff.) ....   1.000e-08
   Grad. Scal. Fac. for Micro threshold ....   0.100
   Minimum threshold for Micro iter.    ....   0.010
   NR start threshold (gradient norm)   ....   0.001
   Initial trust radius                 ....   0.400
   Minimum AH scaling param. (alpha)    ....   1.000
   Maximum AH scaling param. (alpha)    .... 1000.000
   Orbital update algorithm             .... Taylor
   White noise on init. David. guess    .... on
   Maximum white noise                  ....   0.010
   Quad. conv. algorithm                .... NR
 SOSCF                  CNVSOSCF        .... on
   Start iteration      SOSCFMaxIt      ....   150
   Startup grad/error   SOSCFStart      ....  0.003300
 Level Shifting         CNVShift        .... on
   Level shift para.    LevelShift      ....    0.2500
   Turn off err/grad.   ShiftErr        ....    0.0010
 Zerner damping         CNVZerner       .... off
 Static damping         CNVDamp         .... on
   Fraction old density DampFac         ....    0.7000
   Max. Damping (<1)    DampMax         ....    0.9800
   Min. Damping (>=0)   DampMin         ....    0.0000
   Turn off err/grad.   DampErr         ....    0.1000
 Fernandez-Rico         CNVRico         .... off

SCF Procedure:
 Maximum # iterations   MaxIter         ....   125
 SCF integral mode      SCFMode         .... Direct
   Integral package                     .... SHARK and LIBINT hybrid scheme
 Reset frequency        DirectResetFreq ....    20
 Integral Threshold     Thresh          ....  2.500e-11 Eh
 Primitive CutOff       TCut            ....  2.500e-12 Eh

Convergence Tolerance:
 Convergence Check Mode ConvCheckMode   .... Total+1el-Energy
 Convergence forced     ConvForced      .... 0
 Energy Change          TolE            ....  1.000e-08 Eh
 1-El. energy change                    ....  1.000e-05 Eh
 Orbital Gradient       TolG            ....  1.000e-05
 Orbital Rotation angle TolX            ....  1.000e-05
 DIIS Error             TolErr          ....  5.000e-07


Diagonalization of the overlap matrix:
Smallest eigenvalue                        ... 2.873e-07
Time for diagonalization                   ...    0.332 sec
Threshold for overlap eigenvalues          ... 1.000e-08
Number of eigenvalues below threshold      ... 0
Time for construction of square roots      ...    0.195 sec
Total time needed                          ...    0.533 sec

Time for model grid setup =    0.946 sec

------------------------------
INITIAL GUESS: MODEL POTENTIAL
------------------------------
Loading Hartree-Fock densities                     ... done
Calculating cut-offs                               ... done
Initializing the effective Hamiltonian             ... done
Setting up the integral package (SHARK)            ... done
Starting the Coulomb interaction                   ... done (   2.5 sec)
Reading the grid                                   ... done
Mapping shells                                     ... done
Starting the XC term evaluation                    ... done (   2.5 sec)
  promolecular density results
     # of electrons  =    125.991010281
     EX              =   -105.949451534
     EC              =     -4.261292667
     EX+EC           =   -110.210744200
Transforming the Hamiltonian                       ... done (   0.2 sec)
Diagonalizing the Hamiltonian                      ... done (   0.3 sec)
Back transforming the eigenvectors                 ... done (   0.1 sec)
Now organizing SCF variables                       ... done
                      ------------------
                      INITIAL GUESS DONE (   6.6 sec)
                      ------------------
-------------------
DFT GRID GENERATION
-------------------

General Integration Accuracy     IntAcc      ... 4.388
Radial Grid Type                 RadialGrid  ... OptM3 with GC (2021)
Angular Grid (max. ang.)         AngularGrid ... 4 (Lebedev-302)
Angular grid pruning method      GridPruning ... 4 (adaptive)
Weight generation scheme         WeightScheme... Becke
Basis function cutoff            BFCut       ... 1.0000e-11
Integration weight cutoff        WCut        ... 1.0000e-14
Angular grids for H and He will be reduced by one unit
Partially contracted basis set               ... off
Rotationally invariant grid construction     ... off

Total number of grid points                  ...   147417
Total number of batches                      ...     2320
Average number of points per batch           ...       63
Average number of grid points per atom       ...     5083
Time for grid setup =    2.933 sec

--------------------
COSX GRID GENERATION
--------------------

GRIDX 1
-------
General Integration Accuracy     IntAcc      ... 3.816
Radial Grid Type                 RadialGrid  ... OptM3 with GC (2021)
Angular Grid (max. ang.)         AngularGrid ... 1 (Lebedev-50)
Angular grid pruning method      GridPruning ... 4 (adaptive)
Weight generation scheme         WeightScheme... Becke
Basis function cutoff            BFCut       ... 1.0000e-11
Integration weight cutoff        WCut        ... 1.0000e-14
Angular grids for H and He will be reduced by one unit
Partially contracted basis set               ... on
Rotationally invariant grid construction     ... off

Total number of grid points                  ...    18754
Total number of batches                      ...      309
Average number of points per batch           ...       60
Average number of grid points per atom       ...      647
UseSFitting                                  ... on

GRIDX 2
-------
General Integration Accuracy     IntAcc      ... 4.020
Radial Grid Type                 RadialGrid  ... OptM3 with GC (2021)
Angular Grid (max. ang.)         AngularGrid ... 2 (Lebedev-110)
Angular grid pruning method      GridPruning ... 4 (adaptive)
Weight generation scheme         WeightScheme... Becke
Basis function cutoff            BFCut       ... 1.0000e-11
Integration weight cutoff        WCut        ... 1.0000e-14
Angular grids for H and He will be reduced by one unit
Partially contracted basis set               ... on
Rotationally invariant grid construction     ... off

Total number of grid points                  ...    45073
Total number of batches                      ...      718
Average number of points per batch           ...       62
Average number of grid points per atom       ...     1554
UseSFitting                                  ... on

GRIDX 3
-------
General Integration Accuracy     IntAcc      ... 4.338
Radial Grid Type                 RadialGrid  ... OptM3 with GC (2021)
Angular Grid (max. ang.)         AngularGrid ... 3 (Lebedev-194)
Angular grid pruning method      GridPruning ... 4 (adaptive)
Weight generation scheme         WeightScheme... Becke
Basis function cutoff            BFCut       ... 1.0000e-11
Integration weight cutoff        WCut        ... 1.0000e-14
Angular grids for H and He will be reduced by one unit
Partially contracted basis set               ... on
Rotationally invariant grid construction     ... off

Total number of grid points                  ...    97143
Total number of batches                      ...     1535
Average number of points per batch           ...       63
Average number of grid points per atom       ...     3350
UseSFitting                                  ... on

Time for X-Grid setup             =    7.443 sec


--------------------
CPCM SOLVATION MODEL
--------------------
CPCM parameters:
  Epsilon                                         ...       2.2706
  Refrac                                          ...       1.5011
  Rsolv                                           ...       1.3000
  Surface type                                    ... GAUSSIAN VDW
  Epsilon function type                           ...         CPCM
Solvent:                                     ... BENZENE
SMD-CDS solvent descriptors:
  Soln                                       ...    1.5011
  Soln25                                     ...    1.4972
  Sola                                       ...    0.0000
  Solb                                       ...    0.1400
  Solg                                       ...   40.6200
  Solc                                       ...    1.0000
  Solh                                       ...    0.0000
Radii:
 Radius for C  used is    3.4960 Bohr (=   1.8500 Ang.)
 Radius for O  used is    4.3350 Bohr (=   2.2940 Ang.)
 Radius for N  used is    3.5716 Bohr (=   1.8900 Ang.)
 Radius for H  used is    2.2677 Bohr (=   1.2000 Ang.)
Calculating surface                               ...        done! (  0.0s)
GEPOL surface points                              ...         1561
GEPOL Volume                                      ...    1876.3251
GEPOL Surface-area                                ...     983.6127
Calculating surface distance matrix               ...        done! (  0.0s)
Performing Cholesky decomposition & store         ...        done! (  0.2s)
Overall time for CPCM initialization              ...                 0.2s
 re-compute Schwartz prescreening matrix in partically contracted basis (1) ...done (   0.237 sec)
--------------
SCF ITERATIONS
--------------
ITER       Energy         Delta-E        Max-DP      RMS-DP      [F,P]     Damp
               ***  Starting incremental Fock matrix formation  ***
  0   -819.5167164143   0.000000000000 0.40846554  0.00157466  0.2988607 0.7000
  1   -819.6956044157  -0.178888001436 0.31140678  0.00120409  0.1151057 0.7000
                               ***Turning on DIIS***
  2   -819.7682286657  -0.072624250028 0.66006779  0.00266139  0.0449672 0.0000
  3   -819.8873703258  -0.119141660119 0.09217270  0.00048207  0.0496141 0.0000
  4   -819.9089815154  -0.021611189534 0.01581100  0.00015991  0.0261056 0.0000
  5   -819.9106520403  -0.001670524966 0.01188108  0.00007309  0.0101000 0.0000
                      *** Initiating the SOSCF procedure ***
                           *** Shutting down DIIS ***
                      *** Re-Reading the Fockian *** 
                      *** Removing any level shift *** 
ITER      Energy       Delta-E        Grad      Rot      Max-DP    RMS-DP
  6   -819.91076664  -0.0001145986  0.000389  0.000389  0.016277  0.000049
               *** Restarting incremental Fock matrix formation ***
  7   -819.91077692  -0.0000102779  0.000189  0.001278  0.055398  0.000657
  8   -819.91077836  -0.0000014481  0.000205  0.000764  0.014190  0.000202
  9   -819.91078005  -0.0000016890  0.000066  0.000413  0.020356  0.000223
 10   -819.91078022  -0.0000001702  0.000039  0.000109  0.011282  0.000082
 11   -819.91078038  -0.0000001513  0.000026  0.000126  0.013148  0.000091
 12   -819.91078039  -0.0000000133  0.000011  0.000036  0.041080  0.000112
 13   -819.91078038   0.0000000128  0.000007  0.000014  0.051192  0.000143
 14   -819.91078038  -0.0000000061  0.000004  0.000006  0.016911  0.000125
                  ***Gradient check signals convergence***
              ***Rediagonalizing the Fockian in SOSCF/NRSCF***

               *****************************************************
               *                     SUCCESS                       *
               *           SCF CONVERGED AFTER  15 CYCLES          *
               *****************************************************

Old exchange energy                            =    -26.965727559 Eh
New exchange energy                            =    -26.965684728 Eh
Exchange energy change after final integration =      0.000042830 Eh
Total energy after final integration           =   -819.910737553 Eh
Final COS-X integration done in                =   132.940 sec

SMD CDS free energy correction energy :                -6.32823     Kcal/mol
Total Energy after SMD CDS correction =              -819.920822233 Eh

----------------
TOTAL SCF ENERGY
----------------

Total Energy       :         -819.92082223 Eh          -22311.17985 eV

Components:
Nuclear Repulsion  :         1241.74446186 Eh           33789.58464 eV
Electronic Energy  :        -2061.66528410 Eh          -56100.76449 eV
One Electron Energy:        -3579.88330637 Eh          -97413.57718 eV
Two Electron Energy:         1518.21802228 Eh           41312.81269 eV
Max COSX asymmetry :            0.00016059 Eh               0.00437 eV
CPCM Dielectric    :           -0.00840139 Eh              -0.22861 eV
SMD CDS (Gcds)     :           -0.01008468 Eh              -0.27442 eV

Virial components:
Potential Energy   :        -1635.22729714 Eh          -44496.79693 eV
Kinetic Energy     :          815.30647491 Eh           22185.61708 eV
Virial Ratio       :            2.00565965


DFT components:
N(Alpha)           :       62.999887555660 electrons
N(Beta)            :       62.999887555660 electrons
N(Total)           :      125.999775111320 electrons
E(X)               :      -80.750101371904 Eh       
E(C)               :       -4.260928170685 Eh       
E(XC)              :      -85.011029542589 Eh       
DFET-embed. en.    :        0.000000000000 Eh       
CPCM Solvation Model Properties:
Surface-charge          :           -0.03964508
Charge-correction       :            0.00014512 Eh               0.00395 eV
Free-energy (cav+disp)  :           -0.01008468 Eh              -0.27442 eV

---------------
SCF CONVERGENCE
---------------

  Last Energy change         ...   -1.5514e-09  Tolerance :   1.0000e-08
  Last MAX-Density change    ...    2.8866e-15  Tolerance :   1.0000e-07
  Last RMS-Density change    ...    1.6395e-17  Tolerance :   5.0000e-09
  Last Orbital Gradient      ...    1.5373e-06  Tolerance :   1.0000e-05
  Last Orbital Rotation      ...    7.7336e-06  Tolerance :   1.0000e-05

             **** THE GBW FILE WAS UPDATED (optpbed3-b2plyp-test-510.gbw) ****
             **** DENSITY optpbed3-b2plyp-test-510.scfp WAS UPDATED ****
             **** ENERGY FILE WAS UPDATED (optpbed3-b2plyp-test-510.en.tmp) ****
             **** THE GBW FILE WAS UPDATED (optpbed3-b2plyp-test-510.gbw) ****
             **** DENSITY optpbed3-b2plyp-test-510.scfp WAS UPDATED ****
----------------
ORBITAL ENERGIES
----------------

  NO   OCC          E(Eh)            E(eV) 
   0   2.0000     -19.298042      -525.1264 
   1   2.0000     -19.251770      -523.8673 
   2   2.0000     -19.207771      -522.6700 
   3   2.0000     -14.413804      -392.2195 
   4   2.0000     -10.369175      -282.1596 
   5   2.0000     -10.314715      -280.6777 
   6   2.0000     -10.298581      -280.2386 
   7   2.0000     -10.296885      -280.1925 
   8   2.0000     -10.275617      -279.6138 
   9   2.0000     -10.272449      -279.5275 
  10   2.0000     -10.253887      -279.0225 
  11   2.0000     -10.247096      -278.8377 
  12   2.0000     -10.245173      -278.7853 
  13   2.0000     -10.241316      -278.6804 
  14   2.0000     -10.239572      -278.6329 
  15   2.0000     -10.233458      -278.4666 
  16   2.0000     -10.228255      -278.3250 
  17   2.0000     -10.223309      -278.1904 
  18   2.0000      -1.174177       -31.9510 
  19   2.0000      -1.109691       -30.1962 
  20   2.0000      -1.077017       -29.3071 
  21   2.0000      -0.996163       -27.1070 
  22   2.0000      -0.915381       -24.9088 
  23   2.0000      -0.864304       -23.5189 
  24   2.0000      -0.822798       -22.3895 
  25   2.0000      -0.793875       -21.6024 
  26   2.0000      -0.780381       -21.2352 
  27   2.0000      -0.751782       -20.4570 
  28   2.0000      -0.729469       -19.8499 
  29   2.0000      -0.700466       -19.0606 
  30   2.0000      -0.675560       -18.3829 
  31   2.0000      -0.646306       -17.5869 
  32   2.0000      -0.632699       -17.2166 
  33   2.0000      -0.607340       -16.5266 
  34   2.0000      -0.570233       -15.5168 
  35   2.0000      -0.564549       -15.3621 
  36   2.0000      -0.522064       -14.2061 
  37   2.0000      -0.518346       -14.1049 
  38   2.0000      -0.512683       -13.9508 
  39   2.0000      -0.502882       -13.6841 
  40   2.0000      -0.490919       -13.3586 
  41   2.0000      -0.474697       -12.9172 
  42   2.0000      -0.465088       -12.6557 
  43   2.0000      -0.458533       -12.4773 
  44   2.0000      -0.445777       -12.1302 
  45   2.0000      -0.442743       -12.0477 
  46   2.0000      -0.439416       -11.9571 
  47   2.0000      -0.433099       -11.7852 
  48   2.0000      -0.426462       -11.6046 
  49   2.0000      -0.412351       -11.2206 
  50   2.0000      -0.401910       -10.9365 
  51   2.0000      -0.395624       -10.7655 
  52   2.0000      -0.388366       -10.5680 
  53   2.0000      -0.380166       -10.3448 
  54   2.0000      -0.372738       -10.1427 
  55   2.0000      -0.362251        -9.8574 
  56   2.0000      -0.349026        -9.4975 
  57   2.0000      -0.337602        -9.1866 
  58   2.0000      -0.315851        -8.5947 
  59   2.0000      -0.296520        -8.0687 
  60   2.0000      -0.280221        -7.6252 
  61   2.0000      -0.247655        -6.7390 
  62   2.0000      -0.229799        -6.2532 
  63   0.0000      -0.082001        -2.2314 
  64   0.0000      -0.042730        -1.1627 
  65   0.0000      -0.017444        -0.4747 
  66   0.0000       0.004256         0.1158 
  67   0.0000       0.010061         0.2738 
  68   0.0000       0.011219         0.3053 
  69   0.0000       0.012797         0.3482 
  70   0.0000       0.025623         0.6972 
  71   0.0000       0.026220         0.7135 
  72   0.0000       0.032334         0.8798 
  73   0.0000       0.034023         0.9258 
  74   0.0000       0.042689         1.1616 
  75   0.0000       0.044664         1.2154 
  76   0.0000       0.048952         1.3320 
  77   0.0000       0.050225         1.3667 
  78   0.0000       0.054906         1.4941 
  79   0.0000       0.060023         1.6333 
  80   0.0000       0.064012         1.7419 
  81   0.0000       0.072611         1.9758 
  82   0.0000       0.073725         2.0062 
  83   0.0000       0.075930         2.0662 
  84   0.0000       0.078009         2.1227 
  85   0.0000       0.083484         2.2717 
  86   0.0000       0.087195         2.3727 
  87   0.0000       0.088888         2.4188 
  88   0.0000       0.095705         2.6043 
  89   0.0000       0.102395         2.7863 
  90   0.0000       0.108847         2.9619 
  91   0.0000       0.111264         3.0276 
  92   0.0000       0.111545         3.0353 
  93   0.0000       0.112855         3.0709 
  94   0.0000       0.113859         3.0983 
  95   0.0000       0.120889         3.2896 
  96   0.0000       0.124067         3.3760 
  97   0.0000       0.125855         3.4247 
  98   0.0000       0.127817         3.4781 
  99   0.0000       0.130743         3.5577 
 100   0.0000       0.130933         3.5629 
 101   0.0000       0.135321         3.6823 
 102   0.0000       0.140676         3.8280 
 103   0.0000       0.144732         3.9384 
 104   0.0000       0.146165         3.9774 
 105   0.0000       0.150163         4.0862 
 106   0.0000       0.150896         4.1061 
 107   0.0000       0.153006         4.1635 
 108   0.0000       0.155935         4.2432 
 109   0.0000       0.157831         4.2948 
 110   0.0000       0.163760         4.4561 
 111   0.0000       0.163800         4.4572 
 112   0.0000       0.166794         4.5387 
 113   0.0000       0.171400         4.6640 
 114   0.0000       0.173816         4.7298 
 115   0.0000       0.176644         4.8067 
 116   0.0000       0.178126         4.8471 
 117   0.0000       0.181134         4.9289 
 118   0.0000       0.184499         5.0205 
 119   0.0000       0.186401         5.0722 
 120   0.0000       0.191593         5.2135 
 121   0.0000       0.193482         5.2649 
 122   0.0000       0.196074         5.3355 
 123   0.0000       0.198454         5.4002 
 124   0.0000       0.200489         5.4556 
 125   0.0000       0.206762         5.6263 
 126   0.0000       0.207156         5.6370 
 127   0.0000       0.207629         5.6499 
 128   0.0000       0.210656         5.7323 
 129   0.0000       0.215309         5.8589 
 130   0.0000       0.218475         5.9450 
 131   0.0000       0.218608         5.9486 
 132   0.0000       0.226077         6.1519 
 133   0.0000       0.228002         6.2042 
 134   0.0000       0.230655         6.2764 
 135   0.0000       0.233456         6.3527 
 136   0.0000       0.235148         6.3987 
 137   0.0000       0.239059         6.5051 
 138   0.0000       0.243394         6.6231 
 139   0.0000       0.247236         6.7276 
 140   0.0000       0.249909         6.8004 
 141   0.0000       0.252227         6.8634 
 142   0.0000       0.257144         6.9972 
 143   0.0000       0.257420         7.0048 
 144   0.0000       0.261814         7.1243 
 145   0.0000       0.267389         7.2760 
 146   0.0000       0.268180         7.2975 
 147   0.0000       0.270623         7.3640 
 148   0.0000       0.274626         7.4729 
 149   0.0000       0.275245         7.4898 
 150   0.0000       0.279657         7.6099 
 151   0.0000       0.284976         7.7546 
 152   0.0000       0.285757         7.7758 
 153   0.0000       0.287747         7.8300 
 154   0.0000       0.295883         8.0514 
 155   0.0000       0.297692         8.1006 
 156   0.0000       0.301040         8.1917 
 157   0.0000       0.306309         8.3351 
 158   0.0000       0.311450         8.4750 
 159   0.0000       0.315559         8.5868 
 160   0.0000       0.319806         8.7024 
 161   0.0000       0.323300         8.7975 
 162   0.0000       0.326873         8.8947 
 163   0.0000       0.328586         8.9413 
 164   0.0000       0.331025         9.0076 
 165   0.0000       0.334719         9.1082 
 166   0.0000       0.338853         9.2207 
 167   0.0000       0.345539         9.4026 
 168   0.0000       0.345664         9.4060 
 169   0.0000       0.349576         9.5124 
 170   0.0000       0.351822         9.5736 
 171   0.0000       0.355732         9.6800 
 172   0.0000       0.356371         9.6973 
 173   0.0000       0.360806         9.8180 
 174   0.0000       0.366098         9.9620 
 175   0.0000       0.370987        10.0951 
 176   0.0000       0.373871        10.1735 
 177   0.0000       0.382138        10.3985 
 178   0.0000       0.382246        10.4014 
 179   0.0000       0.384977        10.4758 
 180   0.0000       0.388715        10.5775 
 181   0.0000       0.388876        10.5819 
 182   0.0000       0.395979        10.7751 
 183   0.0000       0.398083        10.8324 
 184   0.0000       0.401591        10.9279 
 185   0.0000       0.403701        10.9853 
 186   0.0000       0.404707        11.0127 
 187   0.0000       0.405831        11.0432 
 188   0.0000       0.408701        11.1213 
 189   0.0000       0.409977        11.1560 
 190   0.0000       0.416632        11.3371 
 191   0.0000       0.418381        11.3847 
 192   0.0000       0.419474        11.4145 
 193   0.0000       0.429049        11.6750 
 194   0.0000       0.429678        11.6921 
 195   0.0000       0.435131        11.8405 
 196   0.0000       0.439804        11.9677 
 197   0.0000       0.444434        12.0937 
 198   0.0000       0.448076        12.1928 
 199   0.0000       0.450251        12.2520 
[...]
   Transformed RI Coulomb         ...     0.84 sec
   Transformed RI-exchange        ...   442.88 sec
   (ab|v) reading and digestion   ...   396.82 sec
   Final sigma-completion         ...     0.01 sec
   Done building sigma-vectors             Size of expansion space: 50
   Lowest Energy          :     0.143081106484
   Maximum Energy change  :     0.000004685455 (vector 6)
   Maximum residual norm  :     0.000001786924

                       ****Iteration    9****
              <<< Entering MO-section for Build Sigma(Double) >>>
   Forming the XC and CPCM contribution:
   Time for densities:            0.256
   Time for XC-Integration:      21.046
   Time for LR-CPCM terms:        9.824
   Time for Sigma-Completion:     0.234
   Time for building 10 sigma-vectors
   Data Preparation Phase         ...     0.01 sec
   Transformed RI Coulomb         ...     0.86 sec
   Transformed RI-exchange        ...   457.42 sec
   (ab|v) reading and digestion   ...   382.99 sec
   Final sigma-completion         ...     0.01 sec
   Done building sigma-vectors             Size of expansion space: 60
   Lowest Energy          :     0.143081106469
   Maximum Energy change  :     0.000888908039 (vector 9)
   Maximum residual norm  :     0.000112149758

                       ****Iteration   10****
              <<< Entering MO-section for Build Sigma(Double) >>>
   Forming the XC and CPCM contribution:
   Time for densities:            0.260
   Time for XC-Integration:      22.308
   Time for LR-CPCM terms:        9.926
   Time for Sigma-Completion:     0.198
   Time for building 10 sigma-vectors
   Data Preparation Phase         ...     0.01 sec
   Transformed RI Coulomb         ...     0.88 sec
   Transformed RI-exchange        ...   461.74 sec
   (ab|v) reading and digestion   ...   432.61 sec
   Final sigma-completion         ...     0.01 sec
   Done building sigma-vectors             Size of expansion space: 70
   Lowest Energy          :     0.143081106468
   Maximum Energy change  :     0.000217868720 (vector 9)
   Maximum residual norm  :     0.000021643388
   Rebuilding the expansion space

                       ****Iteration   11****
              <<< Entering MO-section for Build Sigma(Double) >>>
   Forming the XC and CPCM contribution:
   Time for densities:            0.572
   Time for XC-Integration:      43.040
   Time for LR-CPCM terms:       15.858
   Time for Sigma-Completion:     0.391
   Time for building 20 sigma-vectors
   Data Preparation Phase         ...     0.02 sec
   Transformed RI Coulomb         ...     1.51 sec
   Transformed RI-exchange        ...   925.83 sec
   (ab|v) reading and digestion   ...   875.05 sec
   Final sigma-completion         ...     0.01 sec
   Done building sigma-vectors             Size of expansion space: 20
   Lowest Energy          :     0.143081106469
   Maximum Energy change  :     0.000028399351 (vector 9)
   Maximum residual norm  :     0.000004549835

                       ****Iteration   12****
              <<< Entering MO-section for Build Sigma(Double) >>>
   Forming the XC and CPCM contribution:
   Time for densities:            0.261
   Time for XC-Integration:      21.596
   Time for LR-CPCM terms:        9.457
   Time for Sigma-Completion:     0.189
   Time for building 9 sigma-vectors
   Data Preparation Phase         ...     0.01 sec
   Transformed RI Coulomb         ...     0.85 sec
   Transformed RI-exchange        ...   400.19 sec
   (ab|v) reading and digestion   ...   373.14 sec
   Final sigma-completion         ...     0.01 sec
   Done building sigma-vectors             Size of expansion space: 29
   Lowest Energy          :     0.143081106469
   Maximum Energy change  :     0.000008521130 (vector 9)
   Maximum residual norm  :     0.000001242803

                       ****Iteration   13****
              <<< Entering MO-section for Build Sigma(Double) >>>
   Forming the XC and CPCM contribution:
   Time for densities:            0.231
   Time for XC-Integration:      18.103
   Time for LR-CPCM terms:        8.638
   Time for Sigma-Completion:     0.156
   Time for building 8 sigma-vectors
   Data Preparation Phase         ...     0.01 sec
   Transformed RI Coulomb         ...     0.81 sec
   Transformed RI-exchange        ...   312.37 sec
   (ab|v) reading and digestion   ...   244.46 sec
   Final sigma-completion         ...     0.01 sec
   Done building sigma-vectors             Size of expansion space: 37
   Lowest Energy          :     0.143081106469
   Maximum Energy change  :     0.000002196857 (vector 9)
   Maximum residual norm  :     0.000000404489

      *** CONVERGENCE OF RESIDUAL NORM REACHED ***

Storing the converged CI vectors               ... optpbed3-b2plyp-test-510_job2.cis1

                 *** DAVIDSON DONE ***

Total time for solving the CIS problem:  7157.514sec

------------------
DOUBLES CORRECTION (Double precision version)
------------------

The (D) correction will be scaled by  0.2700
Doing v(i,a)*T(i,a) terms (RI)                    ... ok
Doing u(i,j,a,b) terms for state   0              ... ok
Doing u(i,j,a,b) terms for state   1              ... ok
Doing u(i,j,a,b) terms for state   2              ... ok
Doing u(i,j,a,b) terms for state   3              ... ok
Doing u(i,j,a,b) terms for state   4              ... ok
Doing u(i,j,a,b) terms for state   5              ... ok
Doing u(i,j,a,b) terms for state   6              ... ok
Doing u(i,j,a,b) terms for state   7              ... ok
Doing u(i,j,a,b) terms for state   8              ... ok
Doing u(i,j,a,b) terms for state   9              ... ok

Contributions to the (D) correction(s) (in eV)

STATE  Final   Init.   Total   v(ext)   v(int)  v(3)    u
       omega   omega     (D)                             
-----------------------------------------------------------------------------
   0   3.486   3.893  -0.407   0.692   1.024  -0.060  -2.063
   1   3.856   4.343  -0.486   0.723   0.788  -0.032  -1.965
   2   3.806   4.401  -0.595   0.665   1.011  -0.041  -2.230
   3   4.570   4.970  -0.400   0.575   1.012  -0.059  -1.929
   4   4.423   5.021  -0.598   0.594   1.001  -0.038  -2.154
   5   5.394   5.547  -0.153   0.041   1.016  -0.002  -1.208
   6   5.300   5.843  -0.543   0.570   0.970  -0.094  -1.990
   7   5.698   5.889  -0.191   0.050   1.007  -0.002  -1.247
   8   5.232   5.907  -0.675   0.594   0.925  -0.045  -2.148
   9   5.299   5.916  -0.618   0.696   0.778  -0.029  -2.063

(D)-timings
 V(i,a)*T(i,a) terms           ...   509.693 sec
 U(i,j,a,b) 3-internal         ...    11.023 sec
 U(i,j,a,b) 3-external         ...   307.876 sec
 U(i,j,a,b) pair terms         ...   221.314 sec
 Total measured time           ...  1873.510 sec

 Time for (ab|v) I/O           ...    78.471 sec


------------------------------------
TD-DFT/TDA EXCITED STATES (SINGLETS)
------------------------------------

the weight of the individual excitations are printed if larger than 1.0e-02

STATE  1:  E=   0.128119 au      3.486 eV    28118.9 cm**-1 <S**2> =   0.000000
    62a ->  63a  :     0.953930 (c= -0.97669338)

STATE  2:  E=   0.141719 au      3.856 eV    31103.7 cm**-1 <S**2> =   0.000000
    59a ->  63a  :     0.866549 (c= -0.93088593)
    59a ->  64a  :     0.065459 (c= -0.25584974)

STATE  3:  E=   0.139885 au      3.806 eV    30701.3 cm**-1 <S**2> =   0.000000
    58a ->  63a  :     0.011365 (c=  0.10660816)
    61a ->  63a  :     0.699843 (c= -0.83656610)
    61a ->  64a  :     0.025436 (c=  0.15948799)
    61a ->  68a  :     0.013888 (c= -0.11784868)
    62a ->  64a  :     0.122499 (c=  0.34999869)
    62a ->  68a  :     0.096978 (c=  0.31141357)

STATE  4:  E=   0.167955 au      4.570 eV    36861.8 cm**-1 <S**2> =   0.000000
    61a ->  63a  :     0.068934 (c=  0.26255228)
    61a ->  64a  :     0.041620 (c= -0.20401002)
    61a ->  68a  :     0.052999 (c= -0.23021512)
    62a ->  64a  :     0.743836 (c=  0.86245927)
    62a ->  68a  :     0.052659 (c= -0.22947455)

STATE  5:  E=   0.162559 au      4.423 eV    35677.7 cm**-1 <S**2> =   0.000000
    60a ->  63a  :     0.024870 (c= -0.15770211)
    61a ->  63a  :     0.159173 (c=  0.39896467)
    61a ->  64a  :     0.471138 (c=  0.68639488)
    62a ->  64a  :     0.027344 (c=  0.16535878)
    62a ->  68a  :     0.249396 (c=  0.49939563)
    62a ->  71a  :     0.013951 (c= -0.11811237)

STATE  6:  E=   0.198212 au      5.394 eV    43502.4 cm**-1 <S**2> =   0.000000
    62a ->  65a  :     0.506551 (c= -0.71172372)
    62a ->  66a  :     0.196700 (c=  0.44350917)
    62a ->  67a  :     0.028782 (c= -0.16965127)
    62a ->  70a  :     0.069981 (c= -0.26453870)
    62a ->  72a  :     0.142811 (c= -0.37790399)

STATE  7:  E=   0.194777 au      5.300 eV    42748.6 cm**-1 <S**2> =   0.000000
    60a ->  63a  :     0.285799 (c=  0.53460202)
    60a ->  64a  :     0.011491 (c= -0.10719838)
    61a ->  63a  :     0.010734 (c= -0.10360701)
    61a ->  64a  :     0.321888 (c=  0.56735140)
    62a ->  68a  :     0.291337 (c= -0.53975669)

STATE  8:  E=   0.209388 au      5.698 eV    45955.3 cm**-1 <S**2> =   0.000000
    62a ->  65a  :     0.162325 (c= -0.40289624)
    62a ->  66a  :     0.704940 (c= -0.83960728)
    62a ->  70a  :     0.023946 (c= -0.15474467)
    62a ->  72a  :     0.024147 (c= -0.15539426)
    62a ->  79a  :     0.010703 (c= -0.10345295)

STATE  9:  E=   0.192266 au      5.232 eV    42197.6 cm**-1 <S**2> =   0.000000
    57a ->  63a  :     0.013573 (c= -0.11650425)
    60a ->  63a  :     0.575995 (c= -0.75894349)
    61a ->  63a  :     0.016279 (c= -0.12758852)
    61a ->  64a  :     0.038481 (c=  0.19616603)
    62a ->  68a  :     0.228615 (c= -0.47813695)
    62a ->  71a  :     0.025080 (c= -0.15836637)
    62a ->  74a  :     0.028428 (c=  0.16860553)

STATE 10:  E=   0.194728 au      5.299 eV    42737.8 cm**-1 <S**2> =   0.000000
    56a ->  63a  :     0.069109 (c=  0.26288565)
    56a ->  64a  :     0.010964 (c=  0.10470732)
    57a ->  63a  :     0.481367 (c= -0.69380619)
    57a ->  64a  :     0.064534 (c= -0.25403572)
    57a ->  78a  :     0.011048 (c= -0.10511143)
    59a ->  64a  :     0.092265 (c=  0.30375100)
    59a ->  78a  :     0.023550 (c=  0.15345907)
    59a ->  80a  :     0.012996 (c=  0.11400121)
    59a ->  88a  :     0.014544 (c=  0.12059703)
    59a ->  94a  :     0.010734 (c= -0.10360556)
    60a ->  63a  :     0.017483 (c=  0.13222416)
    62a ->  66a  :     0.013476 (c= -0.11608684)


-----------------------------
TD-DFT/TDA-EXCITATION SPECTRA
-----------------------------

Center of mass = (  0.6281, -0.5181, -0.1083)
Calculating the Dipole integrals                  ... done
Transforming integrals                            ... done
Calculating the Linear Momentum integrals         ... done
Transforming integrals                            ... done
Calculating angular momentum integrals            ... done
Transforming integrals                            ... done

-----------------------------------------------------------------------------
         ABSORPTION SPECTRUM VIA TRANSITION ELECTRIC DIPOLE MOMENTS
-----------------------------------------------------------------------------
State   Energy    Wavelength  fosc         T2        TX        TY        TZ  
        (cm-1)      (nm)                 (au**2)    (au)      (au)      (au) 
-----------------------------------------------------------------------------
   1   28118.9    355.6   0.494086915   5.78469   2.07342   1.21420  -0.10641
   2   31103.7    321.5   0.001538220   0.01628  -0.00820   0.00397   0.12727
   3   30701.3    325.7   0.022920555   0.24578   0.19417  -0.45607   0.00885
   4   36861.8    271.3   0.068635506   0.61298  -0.39589   0.67529  -0.01520
   5   35677.7    280.3   0.099190683   0.91527   0.48088   0.82596  -0.04260
   6   43502.4    229.9   0.005936356   0.04492  -0.01140   0.01414   0.21117
   7   42748.6    233.9   0.963147333   7.41730   2.34073  -1.39202  -0.02316
   8   45955.3    217.6   0.000658281   0.00472   0.05939   0.00460   0.03418
   9   42197.6    237.0   0.766400420   5.97921   2.42738  -0.29139  -0.04628
  10   42737.8    234.0   0.018973636   0.14616  -0.35773   0.03578   0.13001

-----------------------------------------------------------------------------
         ABSORPTION SPECTRUM VIA TRANSITION VELOCITY DIPOLE MOMENTS
-----------------------------------------------------------------------------
State   Energy    Wavelength   fosc        P2         PX        PY        PZ  
        (cm-1)      (nm)                 (au**2)     (au)      (au)      (au) 
-----------------------------------------------------------------------------
   1   28118.9    355.6   0.119402701   0.02295  -0.14510  -0.04298   0.00673
   2   31103.7    321.5   0.000006903   0.00000   0.00115   0.00012   0.00036
   3   30701.3    325.7   0.002504593   0.00053   0.00227   0.02280  -0.00076
   4   36861.8    271.3   0.007618577   0.00192   0.04181   0.01294  -0.00202
   5   35677.7    280.3   0.016505034   0.00402  -0.03963  -0.04947   0.00276
   6   43502.4    229.9   0.003943001   0.00117   0.00118  -0.00175  -0.03417
   7   42748.6    233.9   0.398463272   0.11642  -0.28937   0.18077   0.00181
   8   45955.3    217.6   0.000515995   0.00016  -0.00760  -0.00186  -0.01004
   9   42197.6    237.0   0.333083515   0.09606  -0.30955   0.00232   0.01533
  10   42737.8    234.0   0.009945874   0.00291   0.04705   0.00357   0.02605

-------------------------------------------------------------------
                             CD SPECTRUM
-------------------------------------------------------------------
State  Energy     Wavelength     R         MX        MY        MZ   
       (cm-1)       (nm)     (1e40*cgs)   (au)      (au)      (au)  
-------------------------------------------------------------------
   1   28118.9    355.6      1.10321   0.00849   0.00676   0.22059
   2   31103.7    321.5     -0.65044   0.07664   0.06293  -0.00787
   3   30701.3    325.7     -0.09239   0.01018   0.01185   0.36520
   4   36861.8    271.3      1.35240  -0.00888  -0.00491  -0.17569
   5   35677.7    280.3      0.32484   0.00544   0.00360   0.11511
   6   43502.4    229.9     -1.41927   0.02828  -0.04361  -0.00981
   7   42748.6    233.9     -7.75167   0.01849   0.02711   0.95002
   8   45955.3    217.6      2.60311   0.08625   0.17340  -0.01165
   9   42197.6    237.0     77.71164   0.07750   0.03084   0.30908
  10   42737.8    234.0    -72.95381   0.43263   0.19154  -0.05256

-------------------------------------------------------------------
         CD SPECTRUM VIA TRANSITION VELOCITY DIPOLE MOMENTS        
-------------------------------------------------------------------
State  Energy     Wavelength     R         MX        MY        MZ   
       (cm-1)       (nm)     (1e40*cgs)   (au)      (au)      (au)  
-------------------------------------------------------------------
   1   28118.9    355.6     -0.14134   0.00849   0.00676   0.22059
   2   31103.7    321.5      0.30878   0.07664   0.06293  -0.00787
   3   30701.3    325.7      0.05265   0.01018   0.01185   0.36520
   4   36861.8    271.3     -0.22337  -0.00888  -0.00491  -0.17569
   5   35677.7    280.3     -0.22109   0.00544   0.00360   0.11511
   6   43502.4    229.9      1.05846   0.02828  -0.04361  -0.00981
   7   42748.6    233.9      3.05968   0.01849   0.02711   0.95002
   8   45955.3    217.6     -1.93746   0.08625   0.17340  -0.01165
   9   42197.6    237.0    -47.03301   0.07750   0.03084   0.30908
  10   42737.8    234.0     47.62074   0.43263   0.19154  -0.05256

Total run time:     9038.264 sec

           *** ORCA-CIS/TD-DFT FINISHED WITHOUT ERROR ***

Maximum memory used throughout the entire CIS-calculation: 1016.0 MB

-----------------------
CIS/TD-DFT TOTAL ENERGY
-----------------------

    E(SCF)  =   -819.192995651 Eh
    DE(CIS) =      0.128119343 Eh (Root  1)
    ----------------------------- ---------
    E(tot)  =   -819.064876308 Eh



-------------------------------------------------------------------------------
                          DFT DISPERSION CORRECTION                            
                                                                               
                              DFTD3 V3.1  Rev 1                                
                          USING Becke-Johnson damping                          
-------------------------------------------------------------------------------
The B2PLYP functional is recognized
Active option DFTDOPT                   ...         4   

molecular C6(AA) [au] = 10375.617785 


            DFT-D V3
 parameters
 s6 scaling factor         :     0.6400 
 a1 scaling factor         :     0.3065 
 s8 scaling factor         :     0.9147 
 a2 scaling factor         :     5.0570 
 ad hoc parameters k1-k3   :    16.0000     1.3333    -4.0000 

 Edisp/kcal,au: -18.395129871029  -0.029314502281 
 E6   /kcal   : -10.272248602 
 E8   /kcal   :  -8.122881269 
 % E8         :  44.157781576 

-------------------------   ----------------
Dispersion correction           -0.029314502
-------------------------   ----------------


-------------------------   --------------------
FINAL SINGLE POINT ENERGY      -819.094190810305
-------------------------   --------------------


                            ***************************************
                            *     ORCA property calculations      *
                            ***************************************


  WARNING: The energy has been calculated at the MP2 level but the densities
           used in the property calculations are still SCF densities
           MP2 response densities have not been calculated 
           use %mp2 Density relaxed end
           or  %mp2 Density unrelaxed end

                                    ---------------------
                                    Active property flags
                                    ---------------------
   (+) Dipole Moment


------------------------------------------------------------------------------
                       ORCA ELECTRIC PROPERTIES CALCULATION
------------------------------------------------------------------------------

Dipole Moment Calculation                       ... on
Quadrupole Moment Calculation                   ... off
Polarizability Calculation                      ... off
GBWName                                         ... optpbed3-b2plyp-test-510_job2.gbw
Electron density                                ... optpbed3-b2plyp-test-510_job2.scfp
The origin for moment calculation is the CENTER OF MASS  = ( 0.628067, -0.518083 -0.108334)

-------------
DIPOLE MOMENT
-------------
                                X             Y             Z
Electronic contribution:      7.05833      -8.36236       0.08161
Nuclear contribution   :     -8.48219       8.62493      -0.05675
                        -----------------------------------------
Total Dipole Moment    :     -1.42386       0.26257       0.02487
                        -----------------------------------------
Magnitude (a.u.)       :      1.44808
Magnitude (Debye)      :      3.68073



--------------------
Rotational spectrum 
--------------------
 
Rotational constants in cm-1:     0.025747     0.009604     0.007014 
Rotational constants in MHz :   771.867505   287.924358   210.259522 

 Dipole components along the rotational axes: 
x,y,z [a.u.] :    -1.425186    -0.256281    -0.010297 
x,y,z [Debye]:    -3.622536    -0.651415    -0.026172 

 

Timings for individual modules:

Sum of individual times         ...    11048.335 sec (= 184.139 min)
GTO integral calculation        ...        5.013 sec (=   0.084 min)   0.0 %
SCF iterations                  ...     1062.738 sec (=  17.712 min)   9.6 %
MP2 module                      ...      939.480 sec (=  15.658 min)   8.5 %
CIS module                      ...     9041.104 sec (= 150.685 min)  81.8 %



                             ****ORCA TERMINATED NORMALLY****
TOTAL RUN TIME: 0 days 5 hours 6 minutes 27 seconds 902 msec
