
                                 *****************
                                 * O   R   C   A *
                                 *****************

                                            #,                                       
                                            ###                                      
                                            ####                                     
                                            #####                                    
                                            ######                                   
                                           ########,                                 
                                     ,,################,,,,,                         
                               ,,#################################,,                 
                          ,,##########################################,,             
                       ,#########################################, ''#####,          
                    ,#############################################,,   '####,        
                  ,##################################################,,,,####,       
                ,###########''''           ''''###############################       
              ,#####''   ,,,,##########,,,,          '''####'''          '####       
            ,##' ,,,,###########################,,,                        '##       
           ' ,,###''''                  '''############,,,                           
         ,,##''                                '''############,,,,        ,,,,,,###''
      ,#''                                            '''#######################'''  
     '                                                          ''''####''''         
             ,#######,   #######,   ,#######,      ##                                
            ,#'     '#,  ##    ##  ,#'     '#,    #''#        ######   ,####,        
            ##       ##  ##   ,#'  ##            #'  '#       #        #'  '#        
            ##       ##  #######   ##           ,######,      #####,   #    #        
            '#,     ,#'  ##    ##  '#,     ,#' ,#      #,         ##   #,  ,#        
             '#######'   ##     ##  '#######'  #'      '#     #####' # '####'        



                  #######################################################
                  #                        -***-                        #
                  #          Department of theory and spectroscopy      #
                  #    Directorship and core code : Frank Neese         #
                  #        Max Planck Institute fuer Kohlenforschung    #
                  #                Kaiser Wilhelm Platz 1               #
                  #                 D-45470 Muelheim/Ruhr               #
                  #                      Germany                        #
                  #                                                     #
                  #                  All rights reserved                #
                  #                        -***-                        #
                  #######################################################


                         Program Version 5.0.2 -  RELEASE  -


 With contributions from (in alphabetic order):
   Daniel Aravena         : Magnetic Suceptibility
   Michael Atanasov       : Ab Initio Ligand Field Theory (pilot matlab implementation)
   Alexander A. Auer      : GIAO ZORA, VPT2 properties, NMR spectrum
   Ute Becker             : Parallelization
   Giovanni Bistoni       : ED, misc. LED, open-shell LED, HFLD
   Martin Brehm           : Molecular dynamics
   Dmytro Bykov           : SCF Hessian
   Vijay G. Chilkuri      : MRCI spin determinant printing, contributions to CSF-ICE
   Dipayan Datta          : RHF DLPNO-CCSD density
   Achintya Kumar Dutta   : EOM-CC, STEOM-CC
   Dmitry Ganyushin       : Spin-Orbit,Spin-Spin,Magnetic field MRCI
   Miquel Garcia          : C-PCM and meta-GGA Hessian, CC/C-PCM, Gaussian charge scheme
   Yang Guo               : DLPNO-NEVPT2, F12-NEVPT2, CIM, IAO-localization
   Andreas Hansen         : Spin unrestricted coupled pair/coupled cluster methods
   Benjamin Helmich-Paris : MC-RPA, TRAH-SCF, COSX integrals
   Lee Huntington         : MR-EOM, pCC
   Robert Izsak           : Overlap fitted RIJCOSX, COSX-SCS-MP3, EOM
   Marcus Kettner         : VPT2
   Christian Kollmar      : KDIIS, OOCD, Brueckner-CCSD(T), CCSD density, CASPT2, CASPT2-K
   Simone Kossmann        : Meta GGA functionals, TD-DFT gradient, OOMP2, MP2 Hessian
   Martin Krupicka        : Initial AUTO-CI
   Lucas Lang             : DCDCAS
   Marvin Lechner         : AUTO-CI (C++ implementation), FIC-MRCC
   Dagmar Lenk            : GEPOL surface, SMD
   Dimitrios Liakos       : Extrapolation schemes; Compound Job, initial MDCI parallelization
   Dimitrios Manganas     : Further ROCIS development; embedding schemes
   Dimitrios Pantazis     : SARC Basis sets
   Anastasios Papadopoulos: AUTO-CI, single reference methods and gradients
   Taras Petrenko         : DFT Hessian,TD-DFT gradient, ASA, ECA, R-Raman, ABS, FL, XAS/XES, NRVS
   Peter Pinski           : DLPNO-MP2, DLPNO-MP2 Gradient
   Christoph Reimann      : Effective Core Potentials
   Marius Retegan         : Local ZFS, SOC
   Christoph Riplinger    : Optimizer, TS searches, QM/MM, DLPNO-CCSD(T), (RO)-DLPNO pert. Triples
   Tobias Risthaus        : Range-separated hybrids, TD-DFT gradient, RPA, STAB
   Michael Roemelt        : Original ROCIS implementation
   Masaaki Saitow         : Open-shell DLPNO-CCSD energy and density
   Barbara Sandhoefer     : DKH picture change effects
   Avijit Sen             : IP-ROCIS
   Kantharuban Sivalingam : CASSCF convergence, NEVPT2, FIC-MRCI
   Bernardo de Souza      : ESD, SOC TD-DFT
   Georgi Stoychev        : AutoAux, RI-MP2 NMR, DLPNO-MP2 response
   Willem Van den Heuvel  : Paramagnetic NMR
   Boris Wezisla          : Elementary symmetry handling
   Frank Wennmohs         : Technical directorship


 We gratefully acknowledge several colleagues who have allowed us to
 interface, adapt or use parts of their codes:
   Stefan Grimme, W. Hujo, H. Kruse, P. Pracht,  : VdW corrections, initial TS optimization,
                  C. Bannwarth, S. Ehlert          DFT functionals, gCP, sTDA/sTD-DF
   Ed Valeev, F. Pavosevic, A. Kumar             : LibInt (2-el integral package), F12 methods
   Garnet Chan, S. Sharma, J. Yang, R. Olivares  : DMRG
   Ulf Ekstrom                                   : XCFun DFT Library
   Mihaly Kallay                                 : mrcc  (arbitrary order and MRCC methods)
   Jiri Pittner, Ondrej Demel                    : Mk-CCSD
   Frank Weinhold                                : gennbo (NPA and NBO analysis)
   Christopher J. Cramer and Donald G. Truhlar   : smd solvation model
   Lars Goerigk                                  : TD-DFT with DH, B97 family of functionals
   V. Asgeirsson, H. Jonsson                     : NEB implementation
   FAccTs GmbH                                   : IRC, NEB, NEB-TS, DLPNO-Multilevel, CI-OPT
                                                   MM, QMMM, 2- and 3-layer-ONIOM, Crystal-QMMM,
                                                   LR-CPCM, SF, NACMEs, symmetry and pop. for TD-DFT,
                                                   nearIR, NL-DFT gradient (VV10), updates on ESD,
                                                   ML-optimized integration grids
   S Lehtola, MJT Oliveira, MAL Marques          : LibXC Library
   Liviu Ungur et al                             : ANISO software


 Your calculation uses the libint2 library for the computation of 2-el integrals
 For citations please refer to: http://libint.valeyev.net

 Your ORCA version has been built with support for libXC version: 5.1.0
 For citations please refer to: https://tddft.org/programs/libxc/

 This ORCA versions uses:
   CBLAS   interface :  Fast vector & matrix operations
   LAPACKE interface :  Fast linear algebra routines
   SCALAPACK package :  Parallel linear algebra routines
   Shared memory     :  Shared parallel matrices
   BLAS/LAPACK       :  OpenBLAS 0.3.15  USE64BITINT DYNAMIC_ARCH NO_AFFINITY Sandybridge SINGLE_THREADED
        Core in use  :  Sandybridge
   Copyright (c) 2011-2014, The OpenBLAS Project


Your calculation utilizes the atom-pairwise dispersion correction
with the Becke-Johnson damping scheme (D3BJ)
Cite in your paper:
S.Grimme, S.Ehrlich, L.Goerigk, J Comput Chem, (2011), 32, 1456–1465 
S.Grimme, J.Antony, S.Ehrlich and H.Krieg, J.Chem.Phys., 132, (2010), 154104 
   

Your calculation utilizes the SMD solvation module
Please cite in your paper:
A.V. Marenich, C.J. Cramer, D.G. Truhlar J. Phys. Chem. B, 113, (2009), 6378 

================================================================================

----- Orbital basis set information -----
Your calculation utilizes the basis: aug-cc-pVTZ 
    H, B-Ne : Obtained from the ccRepo (grant-hill.group.shef.ac.uk/ccrepo) Feb. 2017
              R. A. Kendall, T. H. Dunning, Jr., R. J. Harrison, J. Chem. Phys. 96, 6796 (1992)
         He : Obtained from the ccRepo (grant-hill.group.shef.ac.uk/ccrepo) Feb. 2017
              D. E. Woon, T. H. Dunning, Jr., J. Chem. Phys. 100, 2975 (1994)
  Li-Be, Na : Obtained from the ccRepo (grant-hill.group.shef.ac.uk/ccrepo) Feb. 2017
              B. P. Prascher, D. E. Woon, K. A. Peterson, T. H. Dunning, Jr., A. K. Wilson, Theor. Chem. Acc. 128, 69 (2011)
         Mg : Obtained from the Peterson Research Group Website (tyr0.chem.wsu.edu/~kipeters) Feb. 2017
              B. P. Prascher, D. E. Woon, K. A. Peterson, T. H. Dunning, Jr., A. K. Wilson, Theor. Chem. Acc. 128, 69 (2011)
      Al-Ar : Obtained from the ccRepo (grant-hill.group.shef.ac.uk/ccrepo) Feb. 2017
              D. E. Woon, T. H. Dunning, Jr., J. Chem. Phys. 98, 1358 (1993)
      Sc-Zn : Obtained from the ccRepo (grant-hill.group.shef.ac.uk/ccrepo) Feb. 2017
              N. B. Balabanov, K. A. Peterson, J. Chem. Phys. 123, 064107 (2005)
              N. B. Balabanov, K. A. Peterson, J. Chem. Phys. 125, 074110 (2006)
      Ga-Kr : Obtained from the ccRepo (grant-hill.group.shef.ac.uk/ccrepo) Feb. 2017
              A. K. Wilson, D. E. Woon, K. A. Peterson, T. H. Dunning, Jr., J. Chem. Phys. 110, 7667 (1999)
     Ag, Au : Obtained from the Peterson Research Group Website (tyr0.chem.wsu.edu/~kipeters) Feb. 2017
              K. A. Peterson, C. Puzzarini, Theor. Chem. Acc. 114, 283 (2005)

The basis set includes element-specific modifications.

Your calculation utilizes the basis: cc-pVTZ 
       H, B-Ne : Obtained from the ccRepo (grant-hill.group.shef.ac.uk/ccrepo) Feb. 2017
                 T. H. Dunning, Jr., J. Chem. Phys. 90, 1007 (1989)
            He : Obtained from the ccRepo (grant-hill.group.shef.ac.uk/ccrepo) Feb. 2017
                 D. E. Woon, T. H. Dunning, Jr., J. Chem. Phys. 100, 2975 (1994)
  Li-Be, Na-Mg : Obtained from the ccRepo (grant-hill.group.shef.ac.uk/ccrepo) Feb. 2017
                 B. P. Prascher, D. E. Woon, K. A. Peterson, T. H. Dunning, Jr., A. K. Wilson, Theor. Chem. Acc. 128, 69 (2011)
         Al-Ar : Obtained from the ccRepo (grant-hill.group.shef.ac.uk/ccrepo) Feb. 2017
                 D. E. Woon, T. H. Dunning, Jr., J. Chem. Phys. 98, 1358 (1993)
            Ca : Obtained from the Peterson Research Group Website (tyr0.chem.wsu.edu/~kipeters) Feb. 2017
                 J. Koput, K. A. Peterson, J. Phys. Chem. 106, 9595 (2002)
         Sc-Zn : Obtained from the ccRepo (grant-hill.group.shef.ac.uk/ccrepo) Feb. 2017
                 N. B. Balabanov, K. A. Peterson, J. Chem. Phys. 123, 064107 (2005)
                 N. B. Balabanov, K. A. Peterson, J. Chem. Phys. 125, 074110 (2006)
         Ga-Kr : Obtained from the ccRepo (grant-hill.group.shef.ac.uk/ccrepo) Feb. 2017
                 A. K. Wilson, D. E. Woon, K. A. Peterson, T. H. Dunning, Jr., J. Chem. Phys. 110, 7667 (1999)
             Y : Obtained from the ccRepo (grant-hill.group.shef.ac.uk/ccrepo) Feb. 2017
                 K. A. Peterson, D. Figgen, M. Dolg, H. Stoll, J. Chem. Phys. 126, 124101 (2007)
        Ag, Au : Obtained from the Peterson Research Group Website (tyr0.chem.wsu.edu/~kipeters) Feb. 2017
                 K. A. Peterson, C. Puzzarini, Theor. Chem. Acc. 114, 283 (2005)

----- AuxJ basis set information -----
Your calculation utilizes the auxiliary basis: aug-cc-pVTZ/JK 
  H, B-F, Al-Cl, Ga-Br : Obtained from the TURBOMOLE 7.0 basis set library

The basis set includes element-specific modifications.

Your calculation utilizes the auxiliary basis: cc-pVTZ/JK 
  H, B-F, Al-Cl, Ga-Br : Obtained from the TURBOMOLE 7.0 basis set library

----- AuxC basis set information -----
Your calculation utilizes the auxiliary basis: aug-cc-pVTZ/C 
  H-He, B-F, Al-Ar, Ga-Kr : Obtained from the EMSL Basis Set Exchange (bse.pnl.gov) Feb. 2017
                            F. Weigend, A. Kohn, C. Hattig, J. Chem. Phys. 116, 3175 (2002)
                   Be, Mg : Obtained from the TURBOMOLE 7.0 basis set library
                            C. Haettig, Phys. Chem. Chem. Phys. 7, 59 (2005)
                       Ne : Obtained from the EMSL Basis Set Exchange (bse.pnl.gov) Feb. 2017
                            C. Haettig, Phys. Chem. Chem. Phys. 7, 59 (2005)
                            F. Weigend, A. Kohn, C. Hattig, J. Chem. Phys. 116, 3175 (2002)
                    Sc-Zn : Obtained from the EMSL Basis Set Exchange (bse.pnl.gov) Feb. 2017
                            J. G. Hill, J. A. Platts, J. Chem. Phys. 128, 044104 (2008)

The basis set includes element-specific modifications.

Your calculation utilizes the auxiliary basis: cc-pVTZ/C 
  Obtained from the EMSL Basis Set Exchange (bse.pnl.gov) Feb. 2017
  H-He, B-F, Al-Ar, Ga-Kr : F. Weigend, A. Kohn, C. Hattig, J. Chem. Phys. 116, 3175 (2002)
             Li-Be, Na-Mg : C. Haettig, Phys. Chem. Chem. Phys. 7, 59 (2005)
                       Ne : C. Haettig, Phys. Chem. Chem. Phys. 7, 59 (2005)
                            F. Weigend, A. Kohn, C. Hattig, J. Chem. Phys. 116, 3175 (2002)
                    Sc-Zn : J. G. Hill, J. A. Platts, J. Chem. Phys. 128, 044104 (2008)

================================================================================
                                        WARNINGS
                       Please study these warnings very carefully!
================================================================================


WARNING: Geometry Optimization
  ===> : Switching off AutoStart
         For restart on a previous wavefunction, please use MOREAD

INFO   : the flag for use of the SHARK integral package has been found!



***************************************
The coordinates will be read from file: 
***************************************


Your calculation utilizes the atom-pairwise dispersion correction
with the Becke-Johnson damping scheme (D3BJ)
Cite in your paper:
S.Grimme, S.Ehrlich, L.Goerigk, J Comput Chem, (2011), 32, 1456–1465 
S.Grimme, J.Antony, S.Ehrlich and H.Krieg, J.Chem.Phys., 132, (2010), 154104 
   

Your calculation utilizes the SMD solvation module
Please cite in your paper:
A.V. Marenich, C.J. Cramer, D.G. Truhlar J. Phys. Chem. B, 113, (2009), 6378 

================================================================================

----- Orbital basis set information -----
Your calculation utilizes the basis: aug-cc-pVTZ 
    H, B-Ne : Obtained from the ccRepo (grant-hill.group.shef.ac.uk/ccrepo) Feb. 2017
              R. A. Kendall, T. H. Dunning, Jr., R. J. Harrison, J. Chem. Phys. 96, 6796 (1992)
         He : Obtained from the ccRepo (grant-hill.group.shef.ac.uk/ccrepo) Feb. 2017
              D. E. Woon, T. H. Dunning, Jr., J. Chem. Phys. 100, 2975 (1994)
  Li-Be, Na : Obtained from the ccRepo (grant-hill.group.shef.ac.uk/ccrepo) Feb. 2017
              B. P. Prascher, D. E. Woon, K. A. Peterson, T. H. Dunning, Jr., A. K. Wilson, Theor. Chem. Acc. 128, 69 (2011)
         Mg : Obtained from the Peterson Research Group Website (tyr0.chem.wsu.edu/~kipeters) Feb. 2017
              B. P. Prascher, D. E. Woon, K. A. Peterson, T. H. Dunning, Jr., A. K. Wilson, Theor. Chem. Acc. 128, 69 (2011)
      Al-Ar : Obtained from the ccRepo (grant-hill.group.shef.ac.uk/ccrepo) Feb. 2017
              D. E. Woon, T. H. Dunning, Jr., J. Chem. Phys. 98, 1358 (1993)
      Sc-Zn : Obtained from the ccRepo (grant-hill.group.shef.ac.uk/ccrepo) Feb. 2017
              N. B. Balabanov, K. A. Peterson, J. Chem. Phys. 123, 064107 (2005)
              N. B. Balabanov, K. A. Peterson, J. Chem. Phys. 125, 074110 (2006)
      Ga-Kr : Obtained from the ccRepo (grant-hill.group.shef.ac.uk/ccrepo) Feb. 2017
              A. K. Wilson, D. E. Woon, K. A. Peterson, T. H. Dunning, Jr., J. Chem. Phys. 110, 7667 (1999)
     Ag, Au : Obtained from the Peterson Research Group Website (tyr0.chem.wsu.edu/~kipeters) Feb. 2017
              K. A. Peterson, C. Puzzarini, Theor. Chem. Acc. 114, 283 (2005)

The basis set includes element-specific modifications.

Your calculation utilizes the basis: cc-pVTZ 
       H, B-Ne : Obtained from the ccRepo (grant-hill.group.shef.ac.uk/ccrepo) Feb. 2017
                 T. H. Dunning, Jr., J. Chem. Phys. 90, 1007 (1989)
            He : Obtained from the ccRepo (grant-hill.group.shef.ac.uk/ccrepo) Feb. 2017
                 D. E. Woon, T. H. Dunning, Jr., J. Chem. Phys. 100, 2975 (1994)
  Li-Be, Na-Mg : Obtained from the ccRepo (grant-hill.group.shef.ac.uk/ccrepo) Feb. 2017
                 B. P. Prascher, D. E. Woon, K. A. Peterson, T. H. Dunning, Jr., A. K. Wilson, Theor. Chem. Acc. 128, 69 (2011)
         Al-Ar : Obtained from the ccRepo (grant-hill.group.shef.ac.uk/ccrepo) Feb. 2017
                 D. E. Woon, T. H. Dunning, Jr., J. Chem. Phys. 98, 1358 (1993)
            Ca : Obtained from the Peterson Research Group Website (tyr0.chem.wsu.edu/~kipeters) Feb. 2017
                 J. Koput, K. A. Peterson, J. Phys. Chem. 106, 9595 (2002)
         Sc-Zn : Obtained from the ccRepo (grant-hill.group.shef.ac.uk/ccrepo) Feb. 2017
                 N. B. Balabanov, K. A. Peterson, J. Chem. Phys. 123, 064107 (2005)
                 N. B. Balabanov, K. A. Peterson, J. Chem. Phys. 125, 074110 (2006)
         Ga-Kr : Obtained from the ccRepo (grant-hill.group.shef.ac.uk/ccrepo) Feb. 2017
                 A. K. Wilson, D. E. Woon, K. A. Peterson, T. H. Dunning, Jr., J. Chem. Phys. 110, 7667 (1999)
             Y : Obtained from the ccRepo (grant-hill.group.shef.ac.uk/ccrepo) Feb. 2017
                 K. A. Peterson, D. Figgen, M. Dolg, H. Stoll, J. Chem. Phys. 126, 124101 (2007)
        Ag, Au : Obtained from the Peterson Research Group Website (tyr0.chem.wsu.edu/~kipeters) Feb. 2017
                 K. A. Peterson, C. Puzzarini, Theor. Chem. Acc. 114, 283 (2005)

----- AuxJ basis set information -----
Your calculation utilizes the auxiliary basis: aug-cc-pVTZ/JK 
  H, B-F, Al-Cl, Ga-Br : Obtained from the TURBOMOLE 7.0 basis set library

The basis set includes element-specific modifications.

Your calculation utilizes the auxiliary basis: cc-pVTZ/JK 
  H, B-F, Al-Cl, Ga-Br : Obtained from the TURBOMOLE 7.0 basis set library

----- AuxC basis set information -----
Your calculation utilizes the auxiliary basis: aug-cc-pVTZ/C 
  H-He, B-F, Al-Ar, Ga-Kr : Obtained from the EMSL Basis Set Exchange (bse.pnl.gov) Feb. 2017
                            F. Weigend, A. Kohn, C. Hattig, J. Chem. Phys. 116, 3175 (2002)
                   Be, Mg : Obtained from the TURBOMOLE 7.0 basis set library
                            C. Haettig, Phys. Chem. Chem. Phys. 7, 59 (2005)
                       Ne : Obtained from the EMSL Basis Set Exchange (bse.pnl.gov) Feb. 2017
                            C. Haettig, Phys. Chem. Chem. Phys. 7, 59 (2005)
                            F. Weigend, A. Kohn, C. Hattig, J. Chem. Phys. 116, 3175 (2002)
                    Sc-Zn : Obtained from the EMSL Basis Set Exchange (bse.pnl.gov) Feb. 2017
                            J. G. Hill, J. A. Platts, J. Chem. Phys. 128, 044104 (2008)

The basis set includes element-specific modifications.

Your calculation utilizes the auxiliary basis: cc-pVTZ/C 
  Obtained from the EMSL Basis Set Exchange (bse.pnl.gov) Feb. 2017
  H-He, B-F, Al-Ar, Ga-Kr : F. Weigend, A. Kohn, C. Hattig, J. Chem. Phys. 116, 3175 (2002)
             Li-Be, Na-Mg : C. Haettig, Phys. Chem. Chem. Phys. 7, 59 (2005)
                       Ne : C. Haettig, Phys. Chem. Chem. Phys. 7, 59 (2005)
                            F. Weigend, A. Kohn, C. Hattig, J. Chem. Phys. 116, 3175 (2002)
                    Sc-Zn : J. G. Hill, J. A. Platts, J. Chem. Phys. 128, 044104 (2008)

================================================================================
                                        WARNINGS
                       Please study these warnings very carefully!
================================================================================

INFO   : Checking CIS options ...
  ===> : (D) CORRECTION FOUND - SETTING MODE=3
  ===> : JK MODE FOUND - ACTIVATING RI-MP2 CODE
  ===> : MP2 AND CIS FOUND - CHECKING
WARNING: CIS(D) and MP2 runs must have the same orbital window
  ===> : adjusting orbital windows

WARNING: No MP2 level density has been requested!
         To caclulate MP2 level properties use
         %mp2 Density relaxed end
         or
         %mp2 Density unrelaxed end
         Otherwise for double-hybrid DFT only the energy is correct!

WARNING: The frozen-core approximation is turned on by default for 
         the MP2 part of double-hybrid DFT.

INFO   : the flag for use of the SHARK integral package has been found!

================================================================================
                                       INPUT FILE
================================================================================
NAME = optpbed3-b2plyp-test-270.inp
|  1> ! pbe0 d3bj aug-cc-PVTZ RIJCOSX Opt
|  2> %maxcore 4000
|  3> %basis
|  4>  AuxJ "aug-cc-PVTZ/JK"
|  5>  AuxC "aug-cc-PVTZ/C"
|  6>  newGTO H "cc-PVTZ" end
|  7>  newAuxJGTO H "cc-PVTZ/JK" end
|  8>  newAuxCGTO H "cc-PVTZ/C" end
|  9> end
| 10> %cpcm
| 11>  SMD true
| 12>  SMDsolvent "dichloromethane"
| 13> end
| 14> %pal nprocs 4 end
| 15> * xyz 0 1
| 16> C         -6.46520        2.08390       -1.58440
| 17> O         -6.12750        1.03060       -0.71710
| 18> C         -4.81390        0.74840       -0.51950
| 19> C         -3.75080        1.41700       -1.10670
| 20> C         -2.44350        1.05040       -0.83850
| 21> C         -2.16020       -0.00060        0.02890
| 22> C         -0.82220       -0.43300        0.35120
| 23> C          0.33330        0.08060       -0.10850
| 24> C          1.59880       -0.44600        0.29460
| 25> N          1.81730       -1.44240        1.11760
| 26> C          3.16090       -1.56680        1.18390
| 27> C          3.74950       -0.61870        0.37870
| 28> C          5.12710       -0.30470        0.07940
| 29> C          6.16510       -1.03700        0.65970
| 30> C          7.47920       -0.73000        0.36810
| 31> C          7.78040        0.30630       -0.50200
| 32> C          6.75640        1.03760       -1.08170
| 33> C          5.43910        0.73750       -0.79580
| 34> O          2.73950        0.09470       -0.18700
| 35> C         -3.23790       -0.67710        0.62290
| 36> C         -4.54540       -0.32340        0.36550
| 37> O         -5.64270       -0.92700        0.89940
| 38> C         -5.44720       -1.99930        1.78710
| 39> H         -7.55330        2.12410       -1.58660
| 40> H         -6.10860        1.89830       -2.60310
| 41> H         -6.06910        3.04140       -1.23000
| 42> H         -3.93320        2.23630       -1.78400
| 43> H         -1.64340        1.59400       -1.31400
| 44> H         -0.74150       -1.26340        1.04010
| 45> H          0.37630        0.90890       -0.79910
| 46> H          3.61420       -2.31830        1.79670
| 47> H          5.93490       -1.84420        1.33730
| 48> H          8.27570       -1.30170        0.82150
| 49> H          8.80990        0.54240       -0.72670
| 50> H          6.98710        1.84590       -1.76020
| 51> H          4.63850        1.30510       -1.24560
| 52> H         -3.01670       -1.49130        1.29470
| 53> H         -4.92750       -2.83360        1.30410
| 54> H         -6.44480       -2.32020        2.08270
| 55> H         -4.88850       -1.69020        2.67680
| 56> *
| 57> 
| 58> 
| 59> $new_job
| 60> ! b2plyp aug-cc-PVTZ RIJCOSX SP
| 61> %maxcore 4000
| 62> %basis
| 63>  AuxJ "aug-cc-PVTZ/JK"
| 64>  AuxC "aug-cc-PVTZ/C"
| 65>  newGTO H "cc-PVTZ" end
| 66>  newAuxJGTO H "cc-PVTZ/JK" end
| 67>  newAuxCGTO H "cc-PVTZ/C" end
| 68> end
| 69> %cpcm
| 70>  SMD true
| 71>  SMDsolvent "dichloromethane"
| 72> end
| 73> %pal nprocs 4 end
| 74> %tddft
| 75>  nroots 10
| 76>  maxdim 7
| 77> end
| 78> * xyzfile 0 1
| 79> 
| 80>                          ****END OF INPUT****
================================================================================


                 $$$$$$$$$$$$$$$$$$$$$$$$$$$$$$$$$$$$$$$$$$$$$$ 
                 $ THERE ARE  2 JOBS TO BE PROCESSED THIS RUN $
                 $$$$$$$$$$$$$$$$$$$$$$$$$$$$$$$$$$$$$$$$$$$$$$ 




                 $$$$$$$$$$$$$$$$  JOB NUMBER  1 $$$$$$$$$$$$$$


                       *****************************
                       * Geometry Optimization Run *
                       *****************************

Geometry optimization settings:
Update method            Update   .... BFGS
Choice of coordinates    CoordSys .... Z-matrix Internals
Initial Hessian          InHess   .... Almoef's Model

Convergence Tolerances:
Energy Change            TolE     ....  5.0000e-06 Eh
Max. Gradient            TolMAXG  ....  3.0000e-04 Eh/bohr
RMS Gradient             TolRMSG  ....  1.0000e-04 Eh/bohr
Max. Displacement        TolMAXD  ....  4.0000e-03 bohr
RMS Displacement         TolRMSD  ....  2.0000e-03 bohr
Strict Convergence                ....  False
------------------------------------------------------------------------------
                        ORCA OPTIMIZATION COORDINATE SETUP
------------------------------------------------------------------------------

The optimization will be done in new redundant internal coordinates
Making redundant internal coordinates   ...  (new redundants) done
Evaluating the initial hessian          ...  (Almloef) done
Evaluating the coordinates              ...  done
Calculating the B-matrix                .... done
Calculating the G-matrix                .... done
Diagonalizing the G-matrix              .... done
Small eigenvalue found = 1.151e-03
Small eigenvalue found = 6.820e-03
Small eigenvalue found = 7.415e-03
Small eigenvalue found = 1.069e-02
Small eigenvalue found = 1.108e-02
Small eigenvalue found = 2.225e-02
Small eigenvalue found = 2.655e-02
The first mode is                       ....   81
The number of degrees of freedom        ....  114

    -----------------------------------------------------------------
                    Redundant Internal Coordinates


    -----------------------------------------------------------------
         Definition                    Initial Value    Approx d2E/dq
    -----------------------------------------------------------------
      1. B(O   1,C   0)                  1.4056         0.528443   
      2. B(C   2,O   1)                  1.3580         0.629350   
      3. B(C   3,C   2)                  1.3864         0.633193   
      4. B(C   4,C   3)                  1.3840         0.638802   
      5. B(C   5,C   4)                  1.3918         0.620568   
      6. B(C   6,C   5)                  1.4426         0.515016   
      7. B(C   7,C   6)                  1.3455         0.735840   
      8. B(C   8,C   7)                  1.4287         0.541923   
      9. B(N   9,C   8)                  1.3107         0.748901   
     10. B(C  10,N   9)                  1.3510         0.645860   
     11. B(C  11,C  10)                  1.3761         0.657495   
     12. B(C  12,C  11)                  1.4443         0.511836   
     13. B(C  13,C  12)                  1.3966         0.609859   
     14. B(C  14,C  13)                  1.3806         0.646678   
     15. B(C  15,C  14)                  1.3863         0.633443   
     16. B(C  16,C  15)                  1.3854         0.635365   
     17. B(C  17,C  16)                  1.3810         0.645870   
     18. B(C  17,C  12)                  1.3962         0.610626   
     19. B(O  18,C  11)                  1.3598         0.625256   
     20. B(O  18,C   8)                  1.3511         0.645544   
     21. B(C  19,C   5)                  1.4043         0.592924   
     22. B(C  20,C  19)                  1.3787         0.651191   
     23. B(C  20,C   2)                  1.4157         0.568606   
     24. B(O  21,C  20)                  1.3614         0.621558   
     25. B(C  22,O  21)                  1.4057         0.528189   
     26. B(H  23,C   0)                  1.0888         0.361632   
     27. B(H  24,C   0)                  1.0952         0.353347   
     28. B(H  25,C   0)                  1.0951         0.353382   
     29. B(H  26,C   3)                  1.0785         0.375578   
     30. B(H  27,C   4)                  1.0779         0.376537   
     31. B(H  28,C   6)                  1.0820         0.370880   
     32. B(H  29,C   7)                  1.0793         0.374556   
     33. B(H  30,C  10)                  1.0704         0.386984   
     34. B(H  31,C  13)                  1.0788         0.375292   
     35. B(H  32,C  14)                  1.0802         0.373305   
     36. B(H  33,C  15)                  1.0799         0.373763   
     37. B(H  34,C  16)                  1.0802         0.373236   
     38. B(H  35,C  17)                  1.0796         0.374179   
     39. B(H  36,C  19)                  1.0785         0.375636   
     40. B(H  37,C  22)                  1.0952         0.353304   
     41. B(H  38,C  22)                  1.0888         0.361644   
     42. B(H  39,C  22)                  1.0951         0.353410   
     43. A(H  24,C   0,H  25)          109.3554         0.289122   
     44. A(O   1,C   0,H  24)          111.6374         0.340361   
     45. A(H  23,C   0,H  25)          109.2579         0.290174   
     46. A(H  23,C   0,H  24)          109.2549         0.290170   
     47. A(O   1,C   0,H  25)          111.6299         0.340367   
     48. A(O   1,C   0,H  23)          105.6050         0.341683   
     49. A(C   0,O   1,C   2)          118.5481         0.417466   
     50. A(O   1,C   2,C   3)          125.4432         0.434028   
     51. A(C   3,C   2,C  20)          118.9780         0.428990   
     52. A(O   1,C   2,C  20)          115.5788         0.425728   
     53. A(C   4,C   3,H  26)          118.8596         0.357242   
     54. A(C   2,C   3,C   4)          120.9652         0.438067   
     55. A(C   2,C   3,H  26)          120.1752         0.356708   
     56. A(C   3,C   4,H  27)          118.8229         0.357397   
     57. A(C   5,C   4,H  27)          120.3093         0.355644   
     58. A(C   3,C   4,C   5)          120.8678         0.436479   
     59. A(C   4,C   5,C   6)          123.6661         0.419945   
     60. A(C   4,C   5,C  19)          118.1109         0.430667   
     61. A(C   6,C   5,C  19)          118.2230         0.416549   
     62. A(C   7,C   6,H  28)          116.5165         0.365179   
     63. A(C   5,C   6,H  28)          116.1980         0.343752   
     64. A(C   5,C   6,C   7)          127.2855         0.432957   
     65. A(C   8,C   7,H  29)          115.3475         0.347281   
     66. A(C   6,C   7,H  29)          123.0788         0.365797   
     67. A(C   6,C   7,C   8)          121.5737         0.436944   
     68. A(N   9,C   8,O  18)          112.7869         0.446488   
     69. A(C   7,C   8,O  18)          119.9829         0.424006   
     70. A(C   7,C   8,N   9)          127.2301         0.435458   
     71. A(C   8,N   9,C  10)          105.4629         0.446527   
     72. A(N   9,C  10,H  30)          120.9252         0.357510   
     73. A(C  11,C  10,H  30)          129.6096         0.360834   
     74. A(N   9,C  10,C  11)          109.4652         0.439028   
     75. A(C  12,C  11,O  18)          120.5434         0.417321   
     76. A(C  10,C  11,O  18)          106.6894         0.436468   
     77. A(C  10,C  11,C  12)          132.7672         0.423833   
     78. A(C  11,C  12,C  13)          120.5852         0.418182   
     79. A(C  13,C  12,C  17)          119.0624         0.431597   
     80. A(C  11,C  12,C  17)          120.3524         0.418276   
     81. A(C  12,C  13,C  14)          120.2033         0.436074   
     82. A(C  14,C  13,H  31)          120.1434         0.357941   
     83. A(C  12,C  13,H  31)          119.6533         0.354396   
     84. A(C  13,C  14,C  15)          120.3712         0.439068   
     85. A(C  15,C  14,H  32)          119.9264         0.356364   
     86. A(C  13,C  14,H  32)          119.7024         0.357618   
     87. A(C  14,C  15,C  16)          119.7773         0.437672   
     88. A(C  16,C  15,H  33)          120.1438         0.356622   
     89. A(C  14,C  15,H  33)          120.0788         0.356438   
     90. A(C  17,C  16,H  34)          119.7591         0.357531   
     91. A(C  15,C  16,H  34)          119.9953         0.356536   
     92. A(C  15,C  16,C  17)          120.2456         0.439209   
     93. A(C  16,C  17,H  35)          120.4571         0.357684   
     94. A(C  12,C  17,H  35)          119.2028         0.354293   
     95. A(C  12,C  17,C  16)          120.3401         0.436075   
     96. A(C   8,O  18,C  11)          105.5955         0.432181   
     97. A(C  20,C  19,H  36)          120.2958         0.358421   
     98. A(C   5,C  19,H  36)          118.0197         0.352765   
     99. A(C   5,C  19,C  20)          121.6846         0.434412   
    100. A(C   2,C  20,O  21)          115.3386         0.424780   
    101. A(C   2,C  20,C  19)          119.3935         0.431154   
    102. A(C  19,C  20,O  21)          125.2680         0.435246   
    103. A(C  20,O  21,C  22)          118.2784         0.416505   
    104. A(O  21,C  22,H  38)          105.5948         0.341658   
    105. A(O  21,C  22,H  37)          111.6290         0.340327   
    106. A(H  38,C  22,H  39)          109.2721         0.290179   
    107. A(H  37,C  22,H  39)          109.3430         0.289120   
    108. A(O  21,C  22,H  39)          111.6348         0.340344   
    109. A(H  37,C  22,H  38)          109.2679         0.290166   
    110. D(C   2,O   1,C   0,H  24)     61.3849         0.022170   
    111. D(C   2,O   1,C   0,H  23)   -179.9858         0.022170   
    112. D(C   2,O   1,C   0,H  25)    -61.3570         0.022170   
    113. D(C   3,C   2,O   1,C   0)     -0.0138         0.029124   
    114. D(C  20,C   2,O   1,C   0)    179.9886         0.029124   
    115. D(H  26,C   3,C   2,C  20)    179.9934         0.027817   
    116. D(C   4,C   3,C   2,O   1)    179.9955         0.027817   
    117. D(C   4,C   3,C   2,C  20)     -0.0070         0.027817   
    118. D(H  26,C   3,C   2,O   1)     -0.0041         0.027817   
    119. D(H  27,C   4,C   3,C   2)   -179.9958         0.028345   
    120. D(C   5,C   4,C   3,C   2)      0.0018         0.028345   
    121. D(C   5,C   4,C   3,H  26)   -179.9985         0.028345   
    122. D(H  27,C   4,C   3,H  26)      0.0039         0.028345   
    123. D(C   6,C   5,C   4,H  27)      0.0035         0.026651   
    124. D(C   6,C   5,C   4,C   3)   -179.9940         0.026651   
    125. D(C  19,C   5,C   4,H  27)   -179.9972         0.026651   
    126. D(C  19,C   5,C   4,C   3)      0.0052         0.026651   
    127. D(H  28,C   6,C   5,C  19)      0.0229         0.018082   
    128. D(C   7,C   6,C   5,C   4)      0.0326         0.018082   
    129. D(H  28,C   6,C   5,C   4)   -179.9779         0.018082   
    130. D(C   7,C   6,C   5,C  19)   -179.9666         0.018082   
    131. D(H  29,C   7,C   6,H  28)   -179.9999         0.038475   
    132. D(H  29,C   7,C   6,C   5)     -0.0105         0.038475   
    133. D(C   8,C   7,C   6,H  28)     -0.0036         0.038475   
    134. D(C   8,C   7,C   6,C   5)    179.9859         0.038475   
    135. D(O  18,C   8,C   7,H  29)      0.0059         0.020071   
    136. D(O  18,C   8,C   7,C   6)   -179.9907         0.020071   
    137. D(N   9,C   8,C   7,H  29)   -179.9899         0.020071   
    138. D(N   9,C   8,C   7,C   6)      0.0135         0.020071   
    139. D(C  10,N   9,C   8,O  18)      0.0044         0.042583   
    140. D(C  10,N   9,C   8,C   7)   -179.9996         0.042583   
    141. D(H  30,C  10,N   9,C   8)    179.9966         0.030796   
    142. D(C  11,C  10,N   9,C   8)     -0.0013         0.030796   
    143. D(O  18,C  11,C  10,H  30)   -179.9998         0.030149   
    144. D(O  18,C  11,C  10,N   9)     -0.0021         0.030149   
    145. D(C  12,C  11,C  10,H  30)     -0.0030         0.030149   
    146. D(C  12,C  11,C  10,N   9)    179.9947         0.030149   
    147. D(C  17,C  12,C  11,O  18)      0.0212         0.017856   
    148. D(C  17,C  12,C  11,C  10)   -179.9753         0.017856   
    149. D(C  13,C  12,C  11,O  18)   -179.9871         0.017856   
    150. D(C  13,C  12,C  11,C  10)      0.0164         0.017856   
    151. D(H  31,C  13,C  12,C  17)    179.9972         0.025686   
    152. D(H  31,C  13,C  12,C  11)      0.0053         0.025686   
    153. D(C  14,C  13,C  12,C  17)     -0.0037         0.025686   
    154. D(C  14,C  13,C  12,C  11)   -179.9956         0.025686   
    155. D(H  32,C  14,C  13,H  31)     -0.0001         0.029097   
    156. D(H  32,C  14,C  13,C  12)   -179.9992         0.029097   
    157. D(C  15,C  14,C  13,H  31)    179.9990         0.029097   
    158. D(C  15,C  14,C  13,C  12)     -0.0001         0.029097   
    159. D(H  33,C  15,C  14,H  32)     -0.0046         0.027840   
    160. D(H  33,C  15,C  14,C  13)    179.9963         0.027840   
    161. D(C  16,C  15,C  14,H  32)   -179.9952         0.027840   
    162. D(C  16,C  15,C  14,C  13)      0.0057         0.027840   
    163. D(H  34,C  16,C  15,H  33)      0.0071         0.028021   
    164. D(H  34,C  16,C  15,C  14)    179.9977         0.028021   
    165. D(C  17,C  16,C  15,H  33)   -179.9982         0.028021   
    166. D(C  17,C  16,C  15,C  14)     -0.0076         0.028021   
    167. D(C  12,C  17,C  16,C  15)      0.0038         0.029019   
    168. D(H  35,C  17,C  12,C  13)   -179.9956         0.025755   
    169. D(H  35,C  17,C  12,C  11)     -0.0037         0.025755   
    170. D(C  16,C  17,C  12,C  13)      0.0019         0.025755   
    171. D(C  12,C  17,C  16,H  34)    179.9985         0.029019   
    172. D(C  16,C  17,C  12,C  11)    179.9937         0.025755   
    173. D(H  35,C  17,C  16,H  34)     -0.0041         0.029019   
    174. D(H  35,C  17,C  16,C  15)   -179.9988         0.029019   
    175. D(C   8,O  18,C  11,C  12)   -179.9927         0.028718   
    176. D(C   8,O  18,C  11,C  10)      0.0046         0.028718   
    177. D(C  11,O  18,C   8,N   9)     -0.0058         0.030764   
    178. D(C  11,O  18,C   8,C   7)    179.9979         0.030764   
    179. D(H  36,C  19,C   5,C   6)     -0.0062         0.024205   
    180. D(H  36,C  19,C   5,C   4)    179.9946         0.024205   
    181. D(C  20,C  19,C   5,C   6)    179.9921         0.024205   
    182. D(C  20,C  19,C   5,C   4)     -0.0071         0.024205   
    183. D(O  21,C  20,C  19,H  36)      0.0004         0.029533   
    184. D(O  21,C  20,C  19,C   5)   -179.9979         0.029533   
    185. D(C   2,C  20,C  19,H  36)   -179.9997         0.029533   
    186. D(C   2,C  20,C  19,C   5)      0.0020         0.029533   
    187. D(O  21,C  20,C   2,C   3)   -179.9950         0.022174   
    188. D(O  21,C  20,C   2,O   1)      0.0028         0.022174   
    189. D(C  19,C  20,C   2,C   3)      0.0051         0.022174   
    190. D(C  19,C  20,C   2,O   1)   -179.9972         0.022174   
    191. D(C  22,O  21,C  20,C  19)      0.0073         0.028355   
    192. D(C  22,O  21,C  20,C   2)   -179.9926         0.028355   
    193. D(H  39,C  22,O  21,C  20)     61.3569         0.022148   
    194. D(H  38,C  22,O  21,C  20)    179.9992         0.022148   
    195. D(H  37,C  22,O  21,C  20)    -61.3665         0.022148   
    -----------------------------------------------------------------

Number of atoms                         .... 40
Number of degrees of freedom            .... 195

         *************************************************************
         *                GEOMETRY OPTIMIZATION CYCLE   1            *
         *************************************************************
---------------------------------
CARTESIAN COORDINATES (ANGSTROEM)
---------------------------------
  C     -6.465200    2.083900   -1.584400
  O     -6.127500    1.030600   -0.717100
  C     -4.813900    0.748400   -0.519500
  C     -3.750800    1.417000   -1.106700
  C     -2.443500    1.050400   -0.838500
  C     -2.160200   -0.000600    0.028900
  C     -0.822200   -0.433000    0.351200
  C      0.333300    0.080600   -0.108500
  C      1.598800   -0.446000    0.294600
  N      1.817300   -1.442400    1.117600
  C      3.160900   -1.566800    1.183900
  C      3.749500   -0.618700    0.378700
  C      5.127100   -0.304700    0.079400
  C      6.165100   -1.037000    0.659700
  C      7.479200   -0.730000    0.368100
  C      7.780400    0.306300   -0.502000
  C      6.756400    1.037600   -1.081700
  C      5.439100    0.737500   -0.795800
  O      2.739500    0.094700   -0.187000
  C     -3.237900   -0.677100    0.622900
  C     -4.545400   -0.323400    0.365500
  O     -5.642700   -0.927000    0.899400
  C     -5.447200   -1.999300    1.787100
  H     -7.553300    2.124100   -1.586600
  H     -6.108600    1.898300   -2.603100
  H     -6.069100    3.041400   -1.230000
  H     -3.933200    2.236300   -1.784000
  H     -1.643400    1.594000   -1.314000
  H     -0.741500   -1.263400    1.040100
  H      0.376300    0.908900   -0.799100
  H      3.614200   -2.318300    1.796700
  H      5.934900   -1.844200    1.337300
  H      8.275700   -1.301700    0.821500
  H      8.809900    0.542400   -0.726700
  H      6.987100    1.845900   -1.760200
  H      4.638500    1.305100   -1.245600
  H     -3.016700   -1.491300    1.294700
  H     -4.927500   -2.833600    1.304100
  H     -6.444800   -2.320200    2.082700
  H     -4.888500   -1.690200    2.676800

----------------------------
CARTESIAN COORDINATES (A.U.)
----------------------------
  NO LB      ZA    FRAG     MASS         X           Y           Z
   0 C     6.0000    0    12.011  -12.217457    3.938000   -2.994082
   1 O     8.0000    0    15.999  -11.579297    1.947552   -1.355123
   2 C     6.0000    0    12.011   -9.096953    1.414271   -0.981713
   3 C     6.0000    0    12.011   -7.087985    2.677742   -2.091360
   4 C     6.0000    0    12.011   -4.617546    1.984968   -1.584535
   5 C     6.0000    0    12.011   -4.082186   -0.001134    0.054613
   6 C     6.0000    0    12.011   -1.553733   -0.818251    0.663672
   7 C     6.0000    0    12.011    0.629846    0.152312   -0.205035
   8 C     6.0000    0    12.011    3.021294   -0.842818    0.556713
   9 N     7.0000    0    14.007    3.434199   -2.725741    2.111958
  10 C     6.0000    0    12.011    5.973235   -2.960823    2.237247
  11 C     6.0000    0    12.011    7.085528   -1.169174    0.715639
  12 C     6.0000    0    12.011    9.688815   -0.575800    0.150044
  13 C     6.0000    0    12.011   11.650351   -1.959646    1.246652
  14 C     6.0000    0    12.011   14.133640   -1.379500    0.695608
  15 C     6.0000    0    12.011   14.702825    0.578823   -0.948643
  16 C     6.0000    0    12.011   12.767746    1.960780   -2.044117
  17 C     6.0000    0    12.011   10.278409    1.393673   -1.503844
  18 O     8.0000    0    15.999    5.176905    0.178957   -0.353379
  19 C     6.0000    0    12.011   -6.118744   -1.279534    1.177110
  20 C     6.0000    0    12.011   -8.589561   -0.611137    0.690695
  21 O     8.0000    0    15.999  -10.663158   -1.751776    1.699620
  22 C     6.0000    0    12.011  -10.293716   -3.778129    3.377130
  23 H     1.0000    0     1.008  -14.273668    4.013967   -2.998239
  24 H     1.0000    0     1.008  -11.543581    3.587267   -4.919146
  25 H     1.0000    0     1.008  -11.468937    5.747413   -2.324363
  26 H     1.0000    0     1.008   -7.432671    4.225995   -3.371271
  27 H     1.0000    0     1.008   -3.105576    3.012223   -2.483100
  28 H     1.0000    0     1.008   -1.401232   -2.387480    1.965504
  29 H     1.0000    0     1.008    0.711104    1.717572   -1.510080
  30 H     1.0000    0     1.008    6.829848   -4.380952    3.395271
  31 H     1.0000    0     1.008   11.215336   -3.485033    2.527131
  32 H     1.0000    0     1.008   15.638807   -2.459857    1.552410
  33 H     1.0000    0     1.008   16.648298    1.024987   -1.373264
  34 H     1.0000    0     1.008   13.203705    3.488245   -3.326296
  35 H     1.0000    0     1.008    8.765495    2.466282   -2.353843
  36 H     1.0000    0     1.008   -5.700737   -2.818149    2.446628
  37 H     1.0000    0     1.008   -9.311626   -5.354728    2.464392
  38 H     1.0000    0     1.008  -12.178907   -4.384543    3.935733
  39 H     1.0000    0     1.008   -9.237926   -3.194015    5.058419

--------------------------------
INTERNAL COORDINATES (ANGSTROEM)
--------------------------------
 C      0   0   0     0.000000000000     0.00000000     0.00000000
 O      1   0   0     1.405592924712     0.00000000     0.00000000
 C      2   1   0     1.358023401860   118.54811580     0.00000000
 C      3   2   1     1.386366261130   125.44315284     0.00000000
 C      4   3   2     1.383965350000   120.96517177   179.99548185
 C      5   4   3     1.391848644789   120.86784053     0.00000000
 C      6   5   4     1.442598714127   123.66606098   180.00598313
 C      7   6   5     1.345469917910   127.28552233     0.03264609
 C      8   7   6     1.428736301772   121.57372077   179.98585262
 N      9   8   7     1.310680819269   127.23014240     0.00000000
 C     10   9   8     1.350974466820   105.46292035   180.00044972
 C     11  10   9     1.376114315746   109.46521013     0.00000000
 C     12  11  10     1.444284684541   132.76720033   179.99471899
 C     13  12  11     1.396587047054   120.58518385     0.00000000
 C     14  13  12     1.380629700535   120.20331693   180.00441729
 C     15  14  13     1.386258684373   120.37116650     0.00000000
 C     16  15  14     1.385434148561   119.77734765     0.00000000
 C     17  16  15     1.380969988812   120.24562558     0.00000000
 O      9   8   7     1.351107523478   119.98293657   180.00925081
 C      6   5   4     1.404252662451   118.11092031     0.00000000
 C     20   6   5     1.378736631848   121.68456756     0.00000000
 O     21  20   6     1.361414507048   125.26796412   180.00208734
 C     22  21  20     1.405723596586   118.27838271     0.00000000
 H      1   2   3     1.088844566502   105.60496650   180.01421452
 H      1   2   3     1.095153235853   111.63737465    61.38494686
 H      1   2   3     1.095125937963   111.62987060   298.64301323
 H      4   3   2     1.078544176193   120.17521382     0.00000000
 H      5   4   3     1.077850277172   118.82289693   180.00423628
 H      7   6   5     1.081970360038   116.19795605   180.02208703
 H      8   7   6     1.079285990829   123.07880632     0.00000000
 H     11  10   9     1.070400383034   120.92519395   179.99663994
 H     14  13  12     1.078751889917   119.65327862     0.00000000
 H     15  14  13     1.080196602476   119.70240059   180.00083425
 H     16  15  14     1.079862745908   120.07882085   179.99631357
 H     17  16  15     1.080247022676   119.99530908   179.99770234
 H     18  17  16     1.079560169699   120.45706535   180.00120603
 H     20   6   5     1.078501886878   118.01965464   179.99455485
 H     23  22  21     1.095186550319   111.62896277   298.63348899
 H     23  22  21     1.088835125260   105.59476812   179.99924974
 H     23  22  21     1.095104830598   111.63476092    61.35685388

---------------------------
INTERNAL COORDINATES (A.U.)
---------------------------
 C      0   0   0     0.000000000000     0.00000000     0.00000000
 O      1   0   0     2.656185683483     0.00000000     0.00000000
 C      2   1   0     2.566292312972   118.54811580     0.00000000
 C      3   2   1     2.619852554844   125.44315284     0.00000000
 C      4   3   2     2.615315490336   120.96517177   179.99548185
 C      5   4   3     2.630212758520   120.86784053     0.00000000
 C      6   5   4     2.726116490846   123.66606098   180.00598313
 C      7   6   5     2.542569666279   127.28552233     0.03264609
 C      8   7   6     2.699920327940   121.57372077   179.98585262
 N      9   8   7     2.476827797402   127.23014240     0.00000000
 C     10   9   8     2.552971756210   105.46292035   180.00044972
 C     11  10   9     2.600479185728   109.46521013     0.00000000
 C     12  11  10     2.729302513200   132.76720033   179.99471899
 C     13  12  11     2.639167041115   120.58518385     0.00000000
 C     14  13  12     2.609012026369   120.20331693   180.00441729
 C     15  14  13     2.619649264235   120.37116650     0.00000000
 C     16  15  14     2.618091117363   119.77734765     0.00000000
 C     17  16  15     2.609655078019   120.24562558     0.00000000
 O      9   8   7     2.553223196855   119.98293657   180.00925081
 C      6   5   4     2.653652954862   118.11092031     0.00000000
 C     20   6   5     2.605434644998   121.68456756     0.00000000
 O     21  20   6     2.572700573068   125.26796412   180.00208734
 C     22  21  20     2.656432617539   118.27838271     0.00000000
 H      1   2   3     2.057618033096   105.60496650   180.01421452
 H      1   2   3     2.069539690440   111.63737465    61.38494686
 H      1   2   3     2.069488104904   111.62987060   298.64301323
 H      4   3   2     2.038153116341   120.17521382     0.00000000
 H      5   4   3     2.036841837226   118.82289693   180.00423628
 H      7   6   5     2.044627665491   116.19795605   180.02208703
 H      8   7   6     2.039554942845   123.07880632     0.00000000
 H     11  10   9     2.022763577579   120.92519395   179.99663994
 H     14  13  12     2.038545638394   119.65327862     0.00000000
 H     15  14  13     2.041275749471   119.70240059   180.00083425
 H     16  15  14     2.040644851990   120.07882085   179.99631357
 H     17  16  15     2.041371029841   119.99530908   179.99770234
 H     18  17  16     2.040073065820   120.45706535   180.00120603
 H     20   6   5     2.038073201117   118.01965464   179.99455485
 H     23  22  21     2.069602645657   111.62896277   298.63348899
 H     23  22  21     2.057600191735   105.59476812   179.99924974
 H     23  22  21     2.069448217765   111.63476092    61.35685388

---------------------
BASIS SET INFORMATION
---------------------
There are 4 groups of distinct atoms

 Group   1 Type C   : 19s6p3d2f contracted to 5s4p3d2f pattern {88111/3111/111/11}
 Group   2 Type O   : 19s6p3d2f contracted to 5s4p3d2f pattern {88111/3111/111/11}
 Group   3 Type N   : 19s6p3d2f contracted to 5s4p3d2f pattern {88111/3111/111/11}
 Group   4 Type H   : 5s2p1d contracted to 3s2p1d pattern {311/11/1}

Atom   0C    basis set group =>   1
Atom   1O    basis set group =>   2
Atom   2C    basis set group =>   1
Atom   3C    basis set group =>   1
Atom   4C    basis set group =>   1
Atom   5C    basis set group =>   1
Atom   6C    basis set group =>   1
Atom   7C    basis set group =>   1
Atom   8C    basis set group =>   1
Atom   9N    basis set group =>   3
Atom  10C    basis set group =>   1
Atom  11C    basis set group =>   1
Atom  12C    basis set group =>   1
Atom  13C    basis set group =>   1
Atom  14C    basis set group =>   1
Atom  15C    basis set group =>   1
Atom  16C    basis set group =>   1
Atom  17C    basis set group =>   1
Atom  18O    basis set group =>   2
Atom  19C    basis set group =>   1
Atom  20C    basis set group =>   1
Atom  21O    basis set group =>   2
Atom  22C    basis set group =>   1
Atom  23H    basis set group =>   4
Atom  24H    basis set group =>   4
Atom  25H    basis set group =>   4
Atom  26H    basis set group =>   4
Atom  27H    basis set group =>   4
Atom  28H    basis set group =>   4
Atom  29H    basis set group =>   4
Atom  30H    basis set group =>   4
Atom  31H    basis set group =>   4
Atom  32H    basis set group =>   4
Atom  33H    basis set group =>   4
Atom  34H    basis set group =>   4
Atom  35H    basis set group =>   4
Atom  36H    basis set group =>   4
Atom  37H    basis set group =>   4
Atom  38H    basis set group =>   4
Atom  39H    basis set group =>   4
---------------------------------
AUXILIARY/J BASIS SET INFORMATION
---------------------------------
There are 4 groups of distinct atoms

 Group   1 Type C   : 10s7p5d2f1g contracted to 10s7p5d2f1g pattern {1111111111/1111111/11111/11/1}
 Group   2 Type O   : 10s7p5d2f1g contracted to 10s7p5d2f1g pattern {1111111111/1111111/11111/11/1}
 Group   3 Type N   : 10s7p5d2f1g contracted to 10s7p5d2f1g pattern {1111111111/1111111/11111/11/1}
 Group   4 Type H   : 4s3p2d1f contracted to 4s3p2d1f pattern {1111/111/11/1}

Atom   0C    basis set group =>   1
Atom   1O    basis set group =>   2
Atom   2C    basis set group =>   1
Atom   3C    basis set group =>   1
Atom   4C    basis set group =>   1
Atom   5C    basis set group =>   1
Atom   6C    basis set group =>   1
Atom   7C    basis set group =>   1
Atom   8C    basis set group =>   1
Atom   9N    basis set group =>   3
Atom  10C    basis set group =>   1
Atom  11C    basis set group =>   1
Atom  12C    basis set group =>   1
Atom  13C    basis set group =>   1
Atom  14C    basis set group =>   1
Atom  15C    basis set group =>   1
Atom  16C    basis set group =>   1
Atom  17C    basis set group =>   1
Atom  18O    basis set group =>   2
Atom  19C    basis set group =>   1
Atom  20C    basis set group =>   1
Atom  21O    basis set group =>   2
Atom  22C    basis set group =>   1
Atom  23H    basis set group =>   4
Atom  24H    basis set group =>   4
Atom  25H    basis set group =>   4
Atom  26H    basis set group =>   4
Atom  27H    basis set group =>   4
Atom  28H    basis set group =>   4
Atom  29H    basis set group =>   4
Atom  30H    basis set group =>   4
Atom  31H    basis set group =>   4
Atom  32H    basis set group =>   4
Atom  33H    basis set group =>   4
Atom  34H    basis set group =>   4
Atom  35H    basis set group =>   4
Atom  36H    basis set group =>   4
Atom  37H    basis set group =>   4
Atom  38H    basis set group =>   4
Atom  39H    basis set group =>   4
---------------------------------
AUXILIARY/C BASIS SET INFORMATION
---------------------------------
There are 4 groups of distinct atoms

 Group   1 Type C   : 9s7p6d4f2g contracted to 9s7p6d4f2g pattern {111111111/1111111/111111/1111/11}
 Group   2 Type O   : 9s7p6d4f2g contracted to 9s7p6d4f2g pattern {111111111/1111111/111111/1111/11}
 Group   3 Type N   : 9s7p6d4f2g contracted to 9s7p6d4f2g pattern {111111111/1111111/111111/1111/11}
 Group   4 Type H   : 4s3p2d1f contracted to 4s3p2d1f pattern {1111/111/11/1}

Atom   0C    basis set group =>   1
Atom   1O    basis set group =>   2
Atom   2C    basis set group =>   1
Atom   3C    basis set group =>   1
Atom   4C    basis set group =>   1
Atom   5C    basis set group =>   1
Atom   6C    basis set group =>   1
Atom   7C    basis set group =>   1
Atom   8C    basis set group =>   1
Atom   9N    basis set group =>   3
Atom  10C    basis set group =>   1
Atom  11C    basis set group =>   1
Atom  12C    basis set group =>   1
Atom  13C    basis set group =>   1
Atom  14C    basis set group =>   1
Atom  15C    basis set group =>   1
Atom  16C    basis set group =>   1
Atom  17C    basis set group =>   1
Atom  18O    basis set group =>   2
Atom  19C    basis set group =>   1
Atom  20C    basis set group =>   1
Atom  21O    basis set group =>   2
Atom  22C    basis set group =>   1
Atom  23H    basis set group =>   4
Atom  24H    basis set group =>   4
Atom  25H    basis set group =>   4
Atom  26H    basis set group =>   4
Atom  27H    basis set group =>   4
Atom  28H    basis set group =>   4
Atom  29H    basis set group =>   4
Atom  30H    basis set group =>   4
Atom  31H    basis set group =>   4
Atom  32H    basis set group =>   4
Atom  33H    basis set group =>   4
Atom  34H    basis set group =>   4
Atom  35H    basis set group =>   4
Atom  36H    basis set group =>   4
Atom  37H    basis set group =>   4
Atom  38H    basis set group =>   4
Atom  39H    basis set group =>   4


           ************************************************************
           *        Program running with 4 parallel MPI-processes     *
           *              working on a common directory               *
           ************************************************************
------------------------------------------------------------------------------
                           ORCA GTO INTEGRAL CALCULATION
                           -- RI-GTO INTEGRALS CHOSEN --
------------------------------------------------------------------------------
------------------------------------------------------------------------------
                   ___                                                        
                  /   \      - P O W E R E D   B Y -                         
                 /     \                                                     
                 |  |  |   _    _      __       _____    __    __             
                 |  |  |  | |  | |    /  \     |  _  \  |  |  /  |          
                  \  \/   | |  | |   /    \    | | | |  |  | /  /          
                 / \  \   | |__| |  /  /\  \   | |_| |  |  |/  /          
                |  |  |   |  __  | /  /__\  \  |    /   |      \           
                |  |  |   | |  | | |   __   |  |    \   |  |\   \          
                \     /   | |  | | |  |  |  |  | |\  \  |  | \   \       
                 \___/    |_|  |_| |__|  |__|  |_| \__\ |__|  \__/        
                                                                              
                      - O R C A' S   B I G   F R I E N D -                    
                                      &                                       
                       - I N T E G R A L  F E E D E R -                       
                                                                              
 v1 FN, 2020, v2 2021                                                         
------------------------------------------------------------------------------


Reading SHARK input file optpbed3-b2plyp-test-270.SHARKINP.tmp ... ok
----------------------
SHARK INTEGRAL PACKAGE
----------------------

Number of atoms                             ...     40
Number of basis functions                   ...   1434
Number of shells                            ...    562
Maximum angular momentum                    ...      3
Integral batch strategy                     ... SHARK/LIBINT Hybrid
RI-J (if used) integral strategy            ... SPLIT-RIJ (Revised 2003 algorithm where possible)
Printlevel                                  ...      1
Contraction scheme used                     ... PARTIAL GENERAL contraction
Coulomb Range Separation                    ... NOT USED
Exchange Range Separation                   ... NOT USED
Finite Nucleus Model                        ... NOT USED
Auxiliary Coulomb fitting basis             ... AVAILABLE
   # of basis functions in Aux-J            ...   2327
   # of shells in Aux-J                     ...    745
   Maximum angular momentum in Aux-J        ...      4
Auxiliary J/K fitting basis                 ... NOT available
Auxiliary Correlation fitting basis         ... AVAILABLE
   # of basis functions in Aux-C            ...   2948
   # of shells in Aux-C                     ...    814
   Maximum angular momentum in Aux-C        ...      4
Auxiliary 'external' fitting basis          ... NOT available
Integral threshold                          ...     2.500000e-11
Primitive cut-off                           ...     2.500000e-12
Primitive pair pre-selection threshold      ...     2.500000e-12

Calculating pre-screening integrals         ... done (  0.4 sec) Dimension = 562
Calculating pre-screening integrals (ORCA)  ... done (  0.8 sec) Dimension = 424
Organizing shell pair data                  ... done (  1.0 sec)
Shell pair information
Total number of shell pairs                 ...    158203
Shell pairs after pre-screening             ...     85254
Total number of primitive shell pairs       ...    206523
Primitive shell pairs kept                  ...     99674
          la=0 lb=0:  19437 shell pairs
          la=1 lb=0:  22369 shell pairs
          la=1 lb=1:   5600 shell pairs
          la=2 lb=0:  13983 shell pairs
          la=2 lb=1:   7141 shell pairs
          la=2 lb=2:   2352 shell pairs
          la=3 lb=0:   7434 shell pairs
          la=3 lb=1:   3814 shell pairs
          la=3 lb=2:   2450 shell pairs
          la=3 lb=3:    674 shell pairs

Calculating one electron integrals          ... done (  0.3 sec)
Calculating RI/J V-Matrix + Cholesky decomp.... done (  0.6 sec)
Calculating RI/C V-Matrix + Cholesky decomp.... done (  0.8 sec)
Calculating Nuclear repulsion               ... done (  0.0 sec) ENN=   1660.216616835970 Eh

SHARK setup successfully completed in   6.5 seconds

Maximum memory used throughout the entire GTOINT-calculation: 145.2 MB


           ************************************************************
           *        Program running with 4 parallel MPI-processes     *
           *              working on a common directory               *
           ************************************************************
-------------------------------------------------------------------------------
                                 ORCA SCF
-------------------------------------------------------------------------------

------------
SCF SETTINGS
------------
Hamiltonian:
 Density Functional     Method          .... DFT(GTOs)
 Exchange Functional    Exchange        .... PBE
   PBE kappa parameter   XKappa         ....  0.804000
   PBE mue parameter    XMuePBE         ....  0.219520
 Correlation Functional Correlation     .... PBE
   PBE beta parameter  CBetaPBE         ....  0.066725
 LDA part of GGA corr.  LDAOpt          .... PW91-LDA
 Gradients option       PostSCFGGA      .... off
 Hybrid DFT is turned on
   Fraction HF Exchange ScalHFX         ....  0.250000
   Scaling of DF-GGA-X  ScalDFX         ....  0.750000
   Scaling of DF-GGA-C  ScalDFC         ....  1.000000
   Scaling of DF-LDA-C  ScalLDAC        ....  1.000000
   Perturbative correction              ....  0.000000
   Density functional embedding theory  .... OFF
   NL short-range parameter             ....  6.900000
 RI-approximation to the Coulomb term is turned on
   Number of AuxJ basis functions       .... 2327
   RIJ-COSX (HFX calculated with COS-X)).... on


General Settings:
 Integral files         IntName         .... optpbed3-b2plyp-test-270
 Hartree-Fock type      HFTyp           .... RHF
 Total Charge           Charge          ....    0
 Multiplicity           Mult            ....    1
 Number of Electrons    NEL             ....  162
 Basis Dimension        Dim             .... 1296
 Nuclear Repulsion      ENuc            ....   1660.2166168360 Eh

Convergence Acceleration:
 DIIS                   CNVDIIS         .... on
   Start iteration      DIISMaxIt       ....    12
   Startup error        DIISStart       ....  0.200000
   # of expansion vecs  DIISMaxEq       ....     5
   Bias factor          DIISBfac        ....   1.050
   Max. coefficient     DIISMaxC        ....  10.000
 Trust-Rad. Augm. Hess. CNVTRAH         .... auto
   Auto Start mean grad. ratio tolernc. ....  1.125000
   Auto Start start iteration           ....    20
   Auto Start num. interpolation iter.  ....    10
   Max. Number of Micro iterations      ....    16
   Max. Number of Macro iterations      .... Maxiter - #DIIS iter
   Number of Davidson start vectors     ....     2
   Converg. threshold I  (grad. norm)   ....   1.000e-05
   Converg. threshold II (energy diff.) ....   1.000e-08
   Grad. Scal. Fac. for Micro threshold ....   0.100
   Minimum threshold for Micro iter.    ....   0.010
   NR start threshold (gradient norm)   ....   0.001
   Initial trust radius                 ....   0.400
   Minimum AH scaling param. (alpha)    ....   1.000
   Maximum AH scaling param. (alpha)    .... 1000.000
   Orbital update algorithm             .... Taylor
   White noise on init. David. guess    .... on
   Maximum white noise                  ....   0.010
   Quad. conv. algorithm                .... NR
 SOSCF                  CNVSOSCF        .... on
   Start iteration      SOSCFMaxIt      ....   150
   Startup grad/error   SOSCFStart      ....  0.003300
 Level Shifting         CNVShift        .... on
   Level shift para.    LevelShift      ....    0.2500
   Turn off err/grad.   ShiftErr        ....    0.0010
 Zerner damping         CNVZerner       .... off
 Static damping         CNVDamp         .... on
   Fraction old density DampFac         ....    0.7000
   Max. Damping (<1)    DampMax         ....    0.9800
   Min. Damping (>=0)   DampMin         ....    0.0000
   Turn off err/grad.   DampErr         ....    0.1000
 Fernandez-Rico         CNVRico         .... off

SCF Procedure:
 Maximum # iterations   MaxIter         ....   125
 SCF integral mode      SCFMode         .... Direct
   Integral package                     .... SHARK and LIBINT hybrid scheme
 Reset frequency        DirectResetFreq ....    20
 Integral Threshold     Thresh          ....  2.500e-11 Eh
 Primitive CutOff       TCut            ....  2.500e-12 Eh

Convergence Tolerance:
 Convergence Check Mode ConvCheckMode   .... Total+1el-Energy
 Convergence forced     ConvForced      .... 0
 Energy Change          TolE            ....  1.000e-08 Eh
 1-El. energy change                    ....  1.000e-05 Eh
 Orbital Gradient       TolG            ....  1.000e-05
 Orbital Rotation angle TolX            ....  1.000e-05
 DIIS Error             TolErr          ....  5.000e-07


Diagonalization of the overlap matrix:
Smallest eigenvalue                        ... 3.390e-07
Time for diagonalization                   ...    0.462 sec
Threshold for overlap eigenvalues          ... 1.000e-08
Number of eigenvalues below threshold      ... 0
Time for construction of square roots      ...    0.660 sec
Total time needed                          ...    1.130 sec

Time for model grid setup =    1.913 sec

------------------------------
INITIAL GUESS: MODEL POTENTIAL
------------------------------
Loading Hartree-Fock densities                     ... done
Calculating cut-offs                               ... done
Initializing the effective Hamiltonian             ... done
Setting up the integral package (SHARK)            ... done
Starting the Coulomb interaction                   ... done (   4.0 sec)
Reading the grid                                   ... done
Mapping shells                                     ... done
Starting the XC term evaluation                    ... done (   2.4 sec)
  promolecular density results
     # of electrons  =    161.995863574
     EX              =   -133.312295489
     EC              =     -5.444188274
     EX+EC           =   -138.756483763
Transforming the Hamiltonian                       ... done (   0.3 sec)
Diagonalizing the Hamiltonian                      ... done (   0.5 sec)
Back transforming the eigenvectors                 ... done (   0.1 sec)
Now organizing SCF variables                       ... done
                      ------------------
                      INITIAL GUESS DONE (   9.3 sec)
                      ------------------
-------------------
DFT GRID GENERATION
-------------------

General Integration Accuracy     IntAcc      ... 4.388
Radial Grid Type                 RadialGrid  ... OptM3 with GC (2021)
Angular Grid (max. ang.)         AngularGrid ... 4 (Lebedev-302)
Angular grid pruning method      GridPruning ... 4 (adaptive)
Weight generation scheme         WeightScheme... Becke
Basis function cutoff            BFCut       ... 1.0000e-11
Integration weight cutoff        WCut        ... 1.0000e-14
Angular grids for H and He will be reduced by one unit
Partially contracted basis set               ... off
Rotationally invariant grid construction     ... off

Total number of grid points                  ...   198286
Total number of batches                      ...     3120
Average number of points per batch           ...       63
Average number of grid points per atom       ...     4957
Time for grid setup =    3.640 sec

--------------------
COSX GRID GENERATION
--------------------

GRIDX 1
-------
General Integration Accuracy     IntAcc      ... 3.816
Radial Grid Type                 RadialGrid  ... OptM3 with GC (2021)
Angular Grid (max. ang.)         AngularGrid ... 1 (Lebedev-50)
Angular grid pruning method      GridPruning ... 4 (adaptive)
Weight generation scheme         WeightScheme... Becke
Basis function cutoff            BFCut       ... 1.0000e-11
Integration weight cutoff        WCut        ... 1.0000e-14
Angular grids for H and He will be reduced by one unit
Partially contracted basis set               ... on
Rotationally invariant grid construction     ... off

Total number of grid points                  ...    25231
Total number of batches                      ...      416
Average number of points per batch           ...       60
Average number of grid points per atom       ...      631
UseSFitting                                  ... on

GRIDX 2
-------
General Integration Accuracy     IntAcc      ... 4.020
Radial Grid Type                 RadialGrid  ... OptM3 with GC (2021)
Angular Grid (max. ang.)         AngularGrid ... 2 (Lebedev-110)
Angular grid pruning method      GridPruning ... 4 (adaptive)
Weight generation scheme         WeightScheme... Becke
Basis function cutoff            BFCut       ... 1.0000e-11
Integration weight cutoff        WCut        ... 1.0000e-14
Angular grids for H and He will be reduced by one unit
Partially contracted basis set               ... on
Rotationally invariant grid construction     ... off

Total number of grid points                  ...    59896
Total number of batches                      ...      956
Average number of points per batch           ...       62
Average number of grid points per atom       ...     1497
UseSFitting                                  ... on

GRIDX 3
-------
General Integration Accuracy     IntAcc      ... 4.338
Radial Grid Type                 RadialGrid  ... OptM3 with GC (2021)
Angular Grid (max. ang.)         AngularGrid ... 3 (Lebedev-194)
Angular grid pruning method      GridPruning ... 4 (adaptive)
Weight generation scheme         WeightScheme... Becke
Basis function cutoff            BFCut       ... 1.0000e-11
Integration weight cutoff        WCut        ... 1.0000e-14
Angular grids for H and He will be reduced by one unit
Partially contracted basis set               ... on
Rotationally invariant grid construction     ... off

Total number of grid points                  ...   129261
Total number of batches                      ...     2040
Average number of points per batch           ...       63
Average number of grid points per atom       ...     3232
UseSFitting                                  ... on

Time for X-Grid setup             =    9.158 sec


--------------------
CPCM SOLVATION MODEL
--------------------
CPCM parameters:
  Epsilon                                         ...       8.9300
  Refrac                                          ...       1.4242
  Rsolv                                           ...       1.3000
  Surface type                                    ... GAUSSIAN VDW
  Epsilon function type                           ...         CPCM
Solvent:                                     ... DICHLOROMETHANE
SMD-CDS solvent descriptors:
  Soln                                       ...    1.4242
  Soln25                                     ...    1.4212
  Sola                                       ...    0.1000
  Solb                                       ...    0.0500
  Solg                                       ...   39.1500
  Solc                                       ...    0.0000
  Solh                                       ...    0.6670
Radii:
 Radius for C  used is    3.4960 Bohr (=   1.8500 Ang.)
 Radius for O  used is    3.9949 Bohr (=   2.1140 Ang.)
 Radius for N  used is    3.5716 Bohr (=   1.8900 Ang.)
 Radius for H  used is    2.2677 Bohr (=   1.2000 Ang.)
Calculating surface                               ...        done! (  0.0s)
GEPOL surface points                              ...         2250
GEPOL Volume                                      ...    2241.6948
GEPOL Surface-area                                ...    1243.2029
Calculating surface distance matrix               ...        done! (  0.1s)
Performing Cholesky decomposition & store         ...        done! (  0.4s)
Overall time for CPCM initialization              ...                 0.5s
 re-compute Schwartz prescreening matrix in partically contracted basis (1) ...done (   0.315 sec)
--------------
SCF ITERATIONS
--------------
ITER       Energy         Delta-E        Max-DP      RMS-DP      [F,P]     Damp
               ***  Starting incremental Fock matrix formation  ***
  0  -1013.3988802246   0.000000000000 0.30331129  0.00189000  0.2078459 0.7000
  1  -1013.5926854423  -0.193805217692 0.31009307  0.00167829  0.0977440 0.7000
                               ***Turning on DIIS***
  2  -1013.6814153018  -0.088729859527 0.72353731  0.00380030  0.0379095 0.0000
  3  -1013.8157012482  -0.134285946465 0.14832608  0.00060364  0.0473316 0.0000
  4  -1013.8437146578  -0.028013409515 0.02034866  0.00016253  0.0086613 0.0000
  5  -1013.8449558523  -0.001241194496 0.01452313  0.00007425  0.0053661 0.0000
                      *** Initiating the SOSCF procedure ***
                           *** Shutting down DIIS ***
                      *** Re-Reading the Fockian *** 
                      *** Removing any level shift *** 
ITER      Energy       Delta-E        Grad      Rot      Max-DP    RMS-DP
  6  -1013.84507045  -0.0001145954  0.000317  0.000317  0.016220  0.000058
               *** Restarting incremental Fock matrix formation ***
  7  -1013.84501558   0.0000548674  0.000291  0.001242  0.371186  0.001648
  8  -1013.84500750   0.0000080844  0.000505  0.000789  0.033109  0.000138
  9  -1013.84502000  -0.0000125014  0.000030  0.000171  0.037689  0.000130
 10  -1013.84502002  -0.0000000211  0.000030  0.000067  0.018893  0.000093
 11  -1013.84502019  -0.0000001714  0.000004  0.000018  0.019426  0.000096
 12  -1013.84502015   0.0000000349  0.000005  0.000006  0.045197  0.000112
                  ***Gradient check signals convergence***
              ***Rediagonalizing the Fockian in SOSCF/NRSCF***

               *****************************************************
               *                     SUCCESS                       *
               *           SCF CONVERGED AFTER  13 CYCLES          *
               *****************************************************

Old exchange energy                            =    -33.985403220 Eh
New exchange energy                            =    -33.985247109 Eh
Exchange energy change after final integration =      0.000156111 Eh
Total energy after final integration           =  -1013.844864066 Eh
Final COS-X integration done in                =   188.871 sec

SMD CDS free energy correction energy :                -5.50735     Kcal/mol
Total Energy after SMD CDS correction =             -1013.853640585 Eh

----------------
TOTAL SCF ENERGY
----------------

Total Energy       :        -1013.85364058 Eh          -27588.36013 eV

Components:
Nuclear Repulsion  :         1660.21661684 Eh           45176.79089 eV
Electronic Energy  :        -2674.07025742 Eh          -72765.15101 eV
One Electron Energy:        -4674.77574645 Eh         -127207.11515 eV
Two Electron Energy:         2000.70548903 Eh           54441.96413 eV
Max COSX asymmetry :            0.00004125 Eh               0.00112 eV
CPCM Dielectric    :           -0.02369741 Eh              -0.64484 eV
SMD CDS (Gcds)     :           -0.00877652 Eh              -0.23882 eV

Virial components:
Potential Energy   :        -2021.98288696 Eh          -55020.95157 eV
Kinetic Energy     :         1008.12924638 Eh           27432.59144 eV
Virial Ratio       :            2.00567823


DFT components:
N(Alpha)           :       80.999983287556 electrons
N(Beta)            :       80.999983287556 electrons
N(Total)           :      161.999966575112 electrons
E(X)               :     -101.722898681053 Eh       
E(C)               :       -5.444616884827 Eh       
E(XC)              :     -107.167515565880 Eh       
DFET-embed. en.    :        0.000000000000 Eh       
CPCM Solvation Model Properties:
Surface-charge          :           -0.06287423
Charge-correction       :            0.00014768 Eh               0.00402 eV
Free-energy (cav+disp)  :           -0.00877652 Eh              -0.23882 eV

---------------
SCF CONVERGENCE
---------------

  Last Energy change         ...   -2.2731e-08  Tolerance :   1.0000e-08
  Last MAX-Density change    ...    4.8850e-15  Tolerance :   1.0000e-07
  Last RMS-Density change    ...    1.8328e-17  Tolerance :   5.0000e-09
  Last Orbital Gradient      ...    1.8783e-06  Tolerance :   1.0000e-05
  Last Orbital Rotation      ...    7.5035e-06  Tolerance :   1.0000e-05

             **** THE GBW FILE WAS UPDATED (optpbed3-b2plyp-test-270.gbw) ****
             **** DENSITY optpbed3-b2plyp-test-270.scfp WAS UPDATED ****
             **** ENERGY FILE WAS UPDATED (optpbed3-b2plyp-test-270.en.tmp) ****
             **** THE GBW FILE WAS UPDATED (optpbed3-b2plyp-test-270.gbw) ****
             **** DENSITY optpbed3-b2plyp-test-270.scfp WAS UPDATED ****
----------------
ORBITAL ENERGIES
----------------

  NO   OCC          E(Eh)            E(eV) 
   0   2.0000     -19.294524      -525.0307 
   1   2.0000     -19.246885      -523.7344 
   2   2.0000     -19.243204      -523.6342 
   3   2.0000     -14.383467      -391.3940 
   4   2.0000     -10.317742      -280.7600 
   5   2.0000     -10.292823      -280.0820 
   6   2.0000     -10.290395      -280.0159 
   7   2.0000     -10.289944      -280.0036 
   8   2.0000     -10.264740      -279.3178 
   9   2.0000     -10.263292      -279.2784 
  10   2.0000     -10.251554      -278.9590 
  11   2.0000     -10.250695      -278.9356 
  12   2.0000     -10.240075      -278.6466 
  13   2.0000     -10.238452      -278.6024 
  14   2.0000     -10.235052      -278.5099 
  15   2.0000     -10.231821      -278.4220 
  16   2.0000     -10.230307      -278.3808 
  17   2.0000     -10.229436      -278.3571 
  18   2.0000     -10.228995      -278.3451 
  19   2.0000     -10.228985      -278.3448 
  20   2.0000     -10.228424      -278.3296 
  21   2.0000     -10.227133      -278.2944 
  22   2.0000     -10.226759      -278.2842 
  23   2.0000      -1.175643       -31.9909 
  24   2.0000      -1.112748       -30.2794 
  25   2.0000      -1.091819       -29.7099 
  26   2.0000      -0.957626       -26.0583 
  27   2.0000      -0.897596       -24.4248 
  28   2.0000      -0.893096       -24.3024 
[...]
   Time for XC-Integration:      38.160
   Time for LR-CPCM terms:       23.596
   Time for Sigma-Completion:     0.572
   Time for building 20 sigma-vectors
   Data Preparation Phase         ...     0.03 sec
   Transformed RI Coulomb         ...     1.84 sec
   Transformed RI-exchange        ...  1373.33 sec
   (ab|v) reading and digestion   ...  1306.82 sec
   Final sigma-completion         ...     0.03 sec
   Done building sigma-vectors             Size of expansion space: 20
   Lowest Energy          :     0.132105790869
   Maximum Energy change  :     0.000090853320 (vector 9)
   Maximum residual norm  :     0.000014497118

                       ****Iteration   12****
              <<< Entering MO-section for Build Sigma(Double) >>>
   Forming the XC and CPCM contribution:
   Time for densities:            0.355
   Time for XC-Integration:      19.958
   Time for LR-CPCM terms:       15.362
   Time for Sigma-Completion:     0.303
   Time for building 10 sigma-vectors
   Data Preparation Phase         ...     0.01 sec
   Transformed RI Coulomb         ...     1.08 sec
   Transformed RI-exchange        ...   677.04 sec
   (ab|v) reading and digestion   ...   645.94 sec
   Final sigma-completion         ...     0.02 sec
   Done building sigma-vectors             Size of expansion space: 30
   Lowest Energy          :     0.132105790869
   Maximum Energy change  :     0.000034598781 (vector 9)
   Maximum residual norm  :     0.000005045173

                       ****Iteration   13****
              <<< Entering MO-section for Build Sigma(Double) >>>
   Forming the XC and CPCM contribution:
   Time for densities:            0.340
   Time for XC-Integration:      20.151
   Time for LR-CPCM terms:       14.604
   Time for Sigma-Completion:     0.272
   Time for building 9 sigma-vectors
   Data Preparation Phase         ...     0.01 sec
   Transformed RI Coulomb         ...     1.07 sec
   Transformed RI-exchange        ...   672.89 sec
   (ab|v) reading and digestion   ...   646.86 sec
   Final sigma-completion         ...     0.02 sec
   Done building sigma-vectors             Size of expansion space: 39
   Lowest Energy          :     0.132105790869
   Maximum Energy change  :     0.000010642068 (vector 9)
   Maximum residual norm  :     0.000002196673

                       ****Iteration   14****
              <<< Entering MO-section for Build Sigma(Double) >>>
   Forming the XC and CPCM contribution:
   Time for densities:            0.321
   Time for XC-Integration:      17.731
   Time for LR-CPCM terms:       14.233
   Time for Sigma-Completion:     0.291
   Time for building 9 sigma-vectors
   Data Preparation Phase         ...     0.01 sec
   Transformed RI Coulomb         ...     1.06 sec
   Transformed RI-exchange        ...   643.54 sec
   (ab|v) reading and digestion   ...   618.40 sec
   Final sigma-completion         ...     0.02 sec
   Done building sigma-vectors             Size of expansion space: 48
   Lowest Energy          :     0.132105790869
   Maximum Energy change  :     0.000005077873 (vector 9)
   Maximum residual norm  :     0.000000871009

      *** CONVERGENCE OF RESIDUAL NORM REACHED ***

Storing the converged CI vectors               ... optpbed3-b2plyp-test-270_job2.cis1

                 *** DAVIDSON DONE ***

Total time for solving the CIS problem: 12289.282sec

------------------
DOUBLES CORRECTION (Double precision version)
------------------

The (D) correction will be scaled by  0.2700
Doing v(i,a)*T(i,a) terms (RI)                    ... ok
Doing u(i,j,a,b) terms for state   0              ... ok
Doing u(i,j,a,b) terms for state   1              ... ok
Doing u(i,j,a,b) terms for state   2              ... ok
Doing u(i,j,a,b) terms for state   3              ... ok
Doing u(i,j,a,b) terms for state   4              ... ok
Doing u(i,j,a,b) terms for state   5              ... ok
Doing u(i,j,a,b) terms for state   6              ... ok
Doing u(i,j,a,b) terms for state   7              ... ok
Doing u(i,j,a,b) terms for state   8              ... ok
Doing u(i,j,a,b) terms for state   9              ... ok

Contributions to the (D) correction(s) (in eV)

STATE  Final   Init.   Total   v(ext)   v(int)  v(3)    u
       omega   omega     (D)                             
-----------------------------------------------------------------------------
   0   3.358   3.595  -0.236   0.646   1.025  -0.051  -1.857
   1   4.336   4.673  -0.337   0.539   0.990  -0.070  -1.796
   2   4.229   4.780  -0.552   0.560   0.973  -0.032  -2.053
   3   4.518   5.007  -0.489   0.522   0.970  -0.034  -1.948
   4   4.883   5.028  -0.146   0.042   1.026  -0.002  -1.212
   5   4.560   5.115  -0.555   0.526   0.974  -0.026  -2.030
   6   4.989   5.187  -0.198   0.034   1.018  -0.002  -1.249
   7   5.240   5.428  -0.189   0.036   1.027  -0.001  -1.251
   8   5.343   5.552  -0.209   0.037   1.013  -0.002  -1.258
   9   5.110   5.684  -0.575   0.471   0.960  -0.063  -1.941

(D)-timings
 V(i,a)*T(i,a) terms           ...  1977.161 sec
 U(i,j,a,b) 3-internal         ...    23.022 sec
 U(i,j,a,b) 3-external         ...   525.566 sec
 U(i,j,a,b) pair terms         ...   939.963 sec
 Total measured time           ...  7658.940 sec

 Time for (ab|v) I/O           ...   157.859 sec


------------------------------------
TD-DFT/TDA EXCITED STATES (SINGLETS)
------------------------------------

the weight of the individual excitations are printed if larger than 1.0e-02

STATE  1:  E=   0.123418 au      3.358 eV    27087.2 cm**-1 <S**2> =   0.000000
    79a ->  82a  :     0.018776 (c= -0.13702570)
    80a ->  81a  :     0.941099 (c= -0.97010242)

STATE  2:  E=   0.159338 au      4.336 eV    34970.8 cm**-1 <S**2> =   0.000000
    78a ->  82a  :     0.015585 (c=  0.12483809)
    79a ->  81a  :     0.399737 (c= -0.63224737)
    79a ->  82a  :     0.017257 (c=  0.13136464)
    80a ->  82a  :     0.493682 (c= -0.70262521)

STATE  3:  E=   0.155396 au      4.229 eV    34105.4 cm**-1 <S**2> =   0.000000
    78a ->  81a  :     0.145541 (c=  0.38149869)
    78a ->  82a  :     0.012765 (c=  0.11298310)
    79a ->  81a  :     0.270286 (c= -0.51989010)
    79a ->  82a  :     0.059269 (c= -0.24345311)
    79a ->  89a  :     0.021152 (c=  0.14543754)
    79a ->  93a  :     0.017522 (c=  0.13237212)
    80a ->  82a  :     0.263608 (c=  0.51342800)
    80a ->  89a  :     0.086359 (c=  0.29386838)
    80a ->  93a  :     0.052902 (c=  0.23000331)

STATE  4:  E=   0.166020 au      4.518 eV    36437.1 cm**-1 <S**2> =   0.000000
    76a ->  88a  :     0.013365 (c=  0.11560590)
    77a ->  81a  :     0.045962 (c= -0.21438858)
    77a ->  82a  :     0.060526 (c=  0.24602064)
    78a ->  81a  :     0.160706 (c=  0.40088147)
    78a ->  82a  :     0.014278 (c=  0.11949003)
    79a ->  81a  :     0.121066 (c=  0.34794608)
    79a ->  82a  :     0.012908 (c=  0.11361167)
    79a ->  88a  :     0.065281 (c=  0.25550065)
    79a ->  89a  :     0.024766 (c=  0.15737166)
    79a ->  93a  :     0.025143 (c=  0.15856463)
    80a ->  82a  :     0.018196 (c= -0.13489416)
    80a ->  88a  :     0.248787 (c= -0.49878583)
    80a ->  89a  :     0.087455 (c=  0.29572773)
    80a ->  93a  :     0.041690 (c=  0.20418042)

STATE  5:  E=   0.179444 au      4.883 eV    39383.4 cm**-1 <S**2> =   0.000000
    79a ->  83a  :     0.035517 (c=  0.18845955)
    80a ->  84a  :     0.639793 (c= -0.79987087)
    80a ->  85a  :     0.031830 (c=  0.17840922)
    80a ->  86a  :     0.130937 (c=  0.36185269)
    80a ->  87a  :     0.012107 (c= -0.11003305)
    80a ->  90a  :     0.011905 (c=  0.10910994)
    80a ->  91a  :     0.013532 (c= -0.11632804)
    80a ->  92a  :     0.025735 (c= -0.16042134)
    80a ->  95a  :     0.018358 (c= -0.13549130)

STATE  6:  E=   0.167569 au      4.560 eV    36777.1 cm**-1 <S**2> =   0.000000
    77a ->  81a  :     0.065340 (c=  0.25561620)
    77a ->  82a  :     0.079507 (c= -0.28196976)
    78a ->  81a  :     0.101279 (c=  0.31824295)
    78a ->  88a  :     0.015402 (c= -0.12410543)
    79a ->  81a  :     0.129764 (c=  0.36022825)
    79a ->  88a  :     0.075079 (c= -0.27400497)
    79a ->  89a  :     0.021087 (c=  0.14521501)
    80a ->  82a  :     0.087055 (c= -0.29505166)
    80a ->  88a  :     0.251339 (c=  0.50133746)
    80a ->  89a  :     0.045145 (c=  0.21247460)
    80a ->  93a  :     0.041967 (c=  0.20485912)

STATE  7:  E=   0.183350 au      4.989 eV    40240.7 cm**-1 <S**2> =   0.000000
    79a ->  83a  :     0.011584 (c=  0.10762875)
    79a ->  84a  :     0.086965 (c= -0.29489765)
    79a ->  91a  :     0.012194 (c= -0.11042533)
    79a ->  97a  :     0.011043 (c= -0.10508559)
    80a ->  83a  :     0.652376 (c=  0.80769766)
    80a ->  85a  :     0.012388 (c= -0.11130250)
    80a ->  87a  :     0.026840 (c=  0.16382895)
    80a ->  90a  :     0.011987 (c= -0.10948625)
    80a ->  91a  :     0.047653 (c= -0.21829623)
    80a ->  92a  :     0.043978 (c= -0.20970992)
    80a ->  95a  :     0.015139 (c=  0.12303880)

STATE  8:  E=   0.192550 au      5.240 eV    42259.8 cm**-1 <S**2> =   0.000000
    79a ->  87a  :     0.016041 (c=  0.12665502)
    80a ->  83a  :     0.016652 (c=  0.12904436)
    80a ->  84a  :     0.042251 (c=  0.20555064)
    80a ->  85a  :     0.667597 (c=  0.81706589)
    80a ->  86a  :     0.025795 (c= -0.16060768)
    80a ->  87a  :     0.091915 (c= -0.30317546)
    80a ->  91a  :     0.022141 (c=  0.14879771)
    80a ->  92a  :     0.064559 (c= -0.25408506)

STATE  9:  E=   0.196358 au      5.343 eV    43095.6 cm**-1 <S**2> =   0.000000
    79a ->  83a  :     0.117500 (c= -0.34278242)
    79a ->  90a  :     0.014028 (c= -0.11844094)
    80a ->  83a  :     0.017026 (c=  0.13048455)
    80a ->  84a  :     0.053000 (c=  0.23021807)
    80a ->  86a  :     0.561832 (c=  0.74955457)
    80a ->  90a  :     0.055712 (c= -0.23603300)
    80a ->  91a  :     0.023540 (c=  0.15342896)
    80a ->  95a  :     0.013074 (c= -0.11434296)
    80a ->  97a  :     0.039430 (c=  0.19857082)

STATE 10:  E=   0.187773 au      5.110 eV    41211.5 cm**-1 <S**2> =   0.000000
    78a ->  81a  :     0.421319 (c=  0.64909107)
    79a ->  82a  :     0.017520 (c= -0.13236434)
    79a ->  89a  :     0.014156 (c= -0.11898061)
    80a ->  87a  :     0.014002 (c= -0.11833166)
    80a ->  89a  :     0.409110 (c= -0.63961741)
    80a ->  93a  :     0.020321 (c= -0.14255262)
    80a ->  94a  :     0.023496 (c= -0.15328304)


-----------------------------
TD-DFT/TDA-EXCITATION SPECTRA
-----------------------------

Center of mass = (  0.2445, -0.1787,  0.0803)
Calculating the Dipole integrals                  ... done
Transforming integrals                            ... done
Calculating the Linear Momentum integrals         ... done
Transforming integrals                            ... done
Calculating angular momentum integrals            ... done
Transforming integrals                            ... done

-----------------------------------------------------------------------------
         ABSORPTION SPECTRUM VIA TRANSITION ELECTRIC DIPOLE MOMENTS
-----------------------------------------------------------------------------
State   Energy    Wavelength  fosc         T2        TX        TY        TZ  
        (cm-1)      (nm)                 (au**2)    (au)      (au)      (au) 
-----------------------------------------------------------------------------
   1   27087.2    369.2   1.619725857  19.68578  -4.41717   0.36511  -0.20274
   2   34970.8    286.0   0.277766663   2.61487   0.87128   1.05074  -0.86700
   3   34105.4    293.2   0.004888408   0.04719  -0.17868  -0.10832   0.05938
   4   36437.1    274.4   0.031707705   0.28648  -0.18612  -0.37760   0.33054
   5   39383.4    253.9   0.006383941   0.05336  -0.03205  -0.16138  -0.16216
   6   36777.1    271.9   0.002366667   0.02119  -0.11663   0.08703  -0.00300
   7   40240.7    248.5   0.000547474   0.00448   0.01144  -0.05320  -0.03897
   8   42259.8    236.6   0.000360043   0.00280  -0.03150  -0.02982  -0.03039
   9   43095.6    232.0   0.004744374   0.03624  -0.03710   0.11151   0.14977
  10   41211.5    242.7   0.336249001   2.68608   1.54161   0.38507  -0.40155

-----------------------------------------------------------------------------
         ABSORPTION SPECTRUM VIA TRANSITION VELOCITY DIPOLE MOMENTS
-----------------------------------------------------------------------------
State   Energy    Wavelength   fosc        P2         PX        PY        PZ  
        (cm-1)      (nm)                 (au**2)     (au)      (au)      (au) 
-----------------------------------------------------------------------------
   1   27087.2    369.2   1.196105974   0.22143   0.46778  -0.04459   0.02505
   2   34970.8    286.0   0.083103601   0.01986  -0.09235  -0.08202   0.06787
   3   34105.4    293.2   0.000495332   0.00012  -0.00144   0.00928  -0.00522
   4   36437.1    274.4   0.009158594   0.00228   0.01151   0.03447  -0.03099
   5   39383.4    253.9   0.002144556   0.00058   0.00123   0.01804   0.01582
   6   36777.1    271.9   0.001495985   0.00038  -0.00603   0.01283  -0.01323
   7   40240.7    248.5   0.000075843   0.00002  -0.00339   0.00166  -0.00257
   8   42259.8    236.6   0.000118858   0.00003   0.00540   0.00184   0.00134
   9   43095.6    232.0   0.000896382   0.00026   0.00595  -0.00935  -0.01188
  10   41211.5    242.7   0.167690911   0.04723  -0.21710   0.00973   0.00228

-------------------------------------------------------------------
                             CD SPECTRUM
-------------------------------------------------------------------
State  Energy     Wavelength     R         MX        MY        MZ   
       (cm-1)       (nm)     (1e40*cgs)   (au)      (au)      (au)  
-------------------------------------------------------------------
   1   27087.2    369.2     -8.10921  -0.00527  -0.36876  -0.46447
   2   34970.8    286.0    -15.91626  -0.00052   0.04214   0.08948
   3   34105.4    293.2      0.36876   0.00151  -0.02369  -0.02549
   4   36437.1    274.4     -5.82866  -0.00944  -0.03732  -0.08535
   5   39383.4    253.9     -4.92170   0.04372   0.06770  -0.01163
   6   36777.1    271.9      5.78275   0.00864   0.15921   0.19407
   7   40240.7    248.5      0.75031  -0.05700  -0.12043   0.10684
   8   42259.8    236.6     -0.42805   0.03744   0.01741  -0.02601
   9   43095.6    232.0     -0.52092   0.04544  -0.15547   0.11963
  10   41211.5    242.7    -10.79541  -0.01153  -0.22222  -0.20035

-------------------------------------------------------------------
         CD SPECTRUM VIA TRANSITION VELOCITY DIPOLE MOMENTS        
-------------------------------------------------------------------
State  Energy     Wavelength     R         MX        MY        MZ   
       (cm-1)       (nm)     (1e40*cgs)   (au)      (au)      (au)  
-------------------------------------------------------------------
   1   27087.2    369.2      8.94794  -0.00527  -0.36876  -0.46447
   2   34970.8    286.0      7.88410  -0.00052   0.04214   0.08948
   3   34105.4    293.2     -0.26975   0.00151  -0.02369  -0.02549
   4   36437.1    274.4      3.55005  -0.00944  -0.03732  -0.08535
   5   39383.4    253.9      2.86681   0.04372   0.06770  -0.01163
   6   36777.1    271.9     -1.62774   0.00864   0.15921   0.19407
   7   40240.7    248.5     -0.72346  -0.05700  -0.12043   0.10684
   8   42259.8    236.6      0.48836   0.03744   0.01741  -0.02601
   9   43095.6    232.0      0.72723   0.04544  -0.15547   0.11963
  10   41211.5    242.7     -0.29300  -0.01153  -0.22222  -0.20035

Total run time:    19961.979 sec

           *** ORCA-CIS/TD-DFT FINISHED WITHOUT ERROR ***

Maximum memory used throughout the entire CIS-calculation: 2091.5 MB

-----------------------
CIS/TD-DFT TOTAL ENERGY
-----------------------

    E(SCF)  =  -1012.920692812 Eh
    DE(CIS) =      0.123418465 Eh (Root  1)
    ----------------------------- ---------
    E(tot)  =  -1012.797274347 Eh



-------------------------------------------------------------------------------
                          DFT DISPERSION CORRECTION                            
                                                                               
                              DFTD3 V3.1  Rev 1                                
                          USING Becke-Johnson damping                          
-------------------------------------------------------------------------------
The B2PLYP functional is recognized
Active option DFTDOPT                   ...         4   

molecular C6(AA) [au] = 18624.649637 


            DFT-D V3
 parameters
 s6 scaling factor         :     0.6400 
 a1 scaling factor         :     0.3065 
 s8 scaling factor         :     0.9147 
 a2 scaling factor         :     5.0570 
 ad hoc parameters k1-k3   :    16.0000     1.3333    -4.0000 

 Edisp/kcal,au: -23.189185467903  -0.036954315357 
 E6   /kcal   : -13.059438967 
 E8   /kcal   : -10.129746500 
 % E8         :  43.683063014 

-------------------------   ----------------
Dispersion correction           -0.036954315
-------------------------   ----------------


-------------------------   --------------------
FINAL SINGLE POINT ENERGY     -1012.834228662076
-------------------------   --------------------


                            ***************************************
                            *     ORCA property calculations      *
                            ***************************************


  WARNING: The energy has been calculated at the MP2 level but the densities
           used in the property calculations are still SCF densities
           MP2 response densities have not been calculated 
           use %mp2 Density relaxed end
           or  %mp2 Density unrelaxed end

                                    ---------------------
                                    Active property flags
                                    ---------------------
   (+) Dipole Moment


------------------------------------------------------------------------------
                       ORCA ELECTRIC PROPERTIES CALCULATION
------------------------------------------------------------------------------

Dipole Moment Calculation                       ... on
Quadrupole Moment Calculation                   ... off
Polarizability Calculation                      ... off
GBWName                                         ... optpbed3-b2plyp-test-270_job2.gbw
Electron density                                ... optpbed3-b2plyp-test-270_job2.scfp
The origin for moment calculation is the CENTER OF MASS  = ( 0.244495, -0.178709  0.080347)

-------------
DIPOLE MOMENT
-------------
                                X             Y             Z
Electronic contribution:      8.25250      -1.67157       1.09804
Nuclear contribution   :     -8.34357       2.26412      -1.56879
                        -----------------------------------------
Total Dipole Moment    :     -0.09107       0.59255      -0.47076
                        -----------------------------------------
Magnitude (a.u.)       :      0.76225
Magnitude (Debye)      :      1.93748



--------------------
Rotational spectrum 
--------------------
 
Rotational constants in cm-1:     0.027982     0.002429     0.002238 
Rotational constants in MHz :   838.877468    72.820549    67.099947 

 Dipole components along the rotational axes: 
x,y,z [a.u.] :    -0.120379     0.752611     0.010324 
x,y,z [Debye]:    -0.305980     1.912985     0.026241 

 

Timings for individual modules:

Sum of individual times         ...    23656.950 sec (= 394.282 min)
GTO integral calculation        ...        6.730 sec (=   0.112 min)   0.0 %
SCF iterations                  ...     1288.312 sec (=  21.472 min)   5.4 %
MP2 module                      ...     2398.074 sec (=  39.968 min)  10.1 %
CIS module                      ...    19963.833 sec (= 332.731 min)  84.4 %



                             ****ORCA TERMINATED NORMALLY****
TOTAL RUN TIME: 0 days 9 hours 26 minutes 3 seconds 645 msec
