
                                 *****************
                                 * O   R   C   A *
                                 *****************

                                            #,                                       
                                            ###                                      
                                            ####                                     
                                            #####                                    
                                            ######                                   
                                           ########,                                 
                                     ,,################,,,,,                         
                               ,,#################################,,                 
                          ,,##########################################,,             
                       ,#########################################, ''#####,          
                    ,#############################################,,   '####,        
                  ,##################################################,,,,####,       
                ,###########''''           ''''###############################       
              ,#####''   ,,,,##########,,,,          '''####'''          '####       
            ,##' ,,,,###########################,,,                        '##       
           ' ,,###''''                  '''############,,,                           
         ,,##''                                '''############,,,,        ,,,,,,###''
      ,#''                                            '''#######################'''  
     '                                                          ''''####''''         
             ,#######,   #######,   ,#######,      ##                                
            ,#'     '#,  ##    ##  ,#'     '#,    #''#        ######   ,####,        
            ##       ##  ##   ,#'  ##            #'  '#       #        #'  '#        
            ##       ##  #######   ##           ,######,      #####,   #    #        
            '#,     ,#'  ##    ##  '#,     ,#' ,#      #,         ##   #,  ,#        
             '#######'   ##     ##  '#######'  #'      '#     #####' # '####'        



                  #######################################################
                  #                        -***-                        #
                  #          Department of theory and spectroscopy      #
                  #    Directorship and core code : Frank Neese         #
                  #        Max Planck Institute fuer Kohlenforschung    #
                  #                Kaiser Wilhelm Platz 1               #
                  #                 D-45470 Muelheim/Ruhr               #
                  #                      Germany                        #
                  #                                                     #
                  #                  All rights reserved                #
                  #                        -***-                        #
                  #######################################################


                         Program Version 5.0.2 -  RELEASE  -


 With contributions from (in alphabetic order):
   Daniel Aravena         : Magnetic Suceptibility
   Michael Atanasov       : Ab Initio Ligand Field Theory (pilot matlab implementation)
   Alexander A. Auer      : GIAO ZORA, VPT2 properties, NMR spectrum
   Ute Becker             : Parallelization
   Giovanni Bistoni       : ED, misc. LED, open-shell LED, HFLD
   Martin Brehm           : Molecular dynamics
   Dmytro Bykov           : SCF Hessian
   Vijay G. Chilkuri      : MRCI spin determinant printing, contributions to CSF-ICE
   Dipayan Datta          : RHF DLPNO-CCSD density
   Achintya Kumar Dutta   : EOM-CC, STEOM-CC
   Dmitry Ganyushin       : Spin-Orbit,Spin-Spin,Magnetic field MRCI
   Miquel Garcia          : C-PCM and meta-GGA Hessian, CC/C-PCM, Gaussian charge scheme
   Yang Guo               : DLPNO-NEVPT2, F12-NEVPT2, CIM, IAO-localization
   Andreas Hansen         : Spin unrestricted coupled pair/coupled cluster methods
   Benjamin Helmich-Paris : MC-RPA, TRAH-SCF, COSX integrals
   Lee Huntington         : MR-EOM, pCC
   Robert Izsak           : Overlap fitted RIJCOSX, COSX-SCS-MP3, EOM
   Marcus Kettner         : VPT2
   Christian Kollmar      : KDIIS, OOCD, Brueckner-CCSD(T), CCSD density, CASPT2, CASPT2-K
   Simone Kossmann        : Meta GGA functionals, TD-DFT gradient, OOMP2, MP2 Hessian
   Martin Krupicka        : Initial AUTO-CI
   Lucas Lang             : DCDCAS
   Marvin Lechner         : AUTO-CI (C++ implementation), FIC-MRCC
   Dagmar Lenk            : GEPOL surface, SMD
   Dimitrios Liakos       : Extrapolation schemes; Compound Job, initial MDCI parallelization
   Dimitrios Manganas     : Further ROCIS development; embedding schemes
   Dimitrios Pantazis     : SARC Basis sets
   Anastasios Papadopoulos: AUTO-CI, single reference methods and gradients
   Taras Petrenko         : DFT Hessian,TD-DFT gradient, ASA, ECA, R-Raman, ABS, FL, XAS/XES, NRVS
   Peter Pinski           : DLPNO-MP2, DLPNO-MP2 Gradient
   Christoph Reimann      : Effective Core Potentials
   Marius Retegan         : Local ZFS, SOC
   Christoph Riplinger    : Optimizer, TS searches, QM/MM, DLPNO-CCSD(T), (RO)-DLPNO pert. Triples
   Tobias Risthaus        : Range-separated hybrids, TD-DFT gradient, RPA, STAB
   Michael Roemelt        : Original ROCIS implementation
   Masaaki Saitow         : Open-shell DLPNO-CCSD energy and density
   Barbara Sandhoefer     : DKH picture change effects
   Avijit Sen             : IP-ROCIS
   Kantharuban Sivalingam : CASSCF convergence, NEVPT2, FIC-MRCI
   Bernardo de Souza      : ESD, SOC TD-DFT
   Georgi Stoychev        : AutoAux, RI-MP2 NMR, DLPNO-MP2 response
   Willem Van den Heuvel  : Paramagnetic NMR
   Boris Wezisla          : Elementary symmetry handling
   Frank Wennmohs         : Technical directorship


 We gratefully acknowledge several colleagues who have allowed us to
 interface, adapt or use parts of their codes:
   Stefan Grimme, W. Hujo, H. Kruse, P. Pracht,  : VdW corrections, initial TS optimization,
                  C. Bannwarth, S. Ehlert          DFT functionals, gCP, sTDA/sTD-DF
   Ed Valeev, F. Pavosevic, A. Kumar             : LibInt (2-el integral package), F12 methods
   Garnet Chan, S. Sharma, J. Yang, R. Olivares  : DMRG
   Ulf Ekstrom                                   : XCFun DFT Library
   Mihaly Kallay                                 : mrcc  (arbitrary order and MRCC methods)
   Jiri Pittner, Ondrej Demel                    : Mk-CCSD
   Frank Weinhold                                : gennbo (NPA and NBO analysis)
   Christopher J. Cramer and Donald G. Truhlar   : smd solvation model
   Lars Goerigk                                  : TD-DFT with DH, B97 family of functionals
   V. Asgeirsson, H. Jonsson                     : NEB implementation
   FAccTs GmbH                                   : IRC, NEB, NEB-TS, DLPNO-Multilevel, CI-OPT
                                                   MM, QMMM, 2- and 3-layer-ONIOM, Crystal-QMMM,
                                                   LR-CPCM, SF, NACMEs, symmetry and pop. for TD-DFT,
                                                   nearIR, NL-DFT gradient (VV10), updates on ESD,
                                                   ML-optimized integration grids
   S Lehtola, MJT Oliveira, MAL Marques          : LibXC Library
   Liviu Ungur et al                             : ANISO software


 Your calculation uses the libint2 library for the computation of 2-el integrals
 For citations please refer to: http://libint.valeyev.net

 Your ORCA version has been built with support for libXC version: 5.1.0
 For citations please refer to: https://tddft.org/programs/libxc/

 This ORCA versions uses:
   CBLAS   interface :  Fast vector & matrix operations
   LAPACKE interface :  Fast linear algebra routines
   SCALAPACK package :  Parallel linear algebra routines
   Shared memory     :  Shared parallel matrices
   BLAS/LAPACK       :  OpenBLAS 0.3.15  USE64BITINT DYNAMIC_ARCH NO_AFFINITY Haswell SINGLE_THREADED
        Core in use  :  Haswell
   Copyright (c) 2011-2014, The OpenBLAS Project


Your calculation utilizes the atom-pairwise dispersion correction
with the Becke-Johnson damping scheme (D3BJ)
Cite in your paper:
S.Grimme, S.Ehrlich, L.Goerigk, J Comput Chem, (2011), 32, 1456–1465 
S.Grimme, J.Antony, S.Ehrlich and H.Krieg, J.Chem.Phys., 132, (2010), 154104 
   

Your calculation utilizes the SMD solvation module
Please cite in your paper:
A.V. Marenich, C.J. Cramer, D.G. Truhlar J. Phys. Chem. B, 113, (2009), 6378 

================================================================================

----- Orbital basis set information -----
Your calculation utilizes the basis: aug-cc-pVTZ 
    H, B-Ne : Obtained from the ccRepo (grant-hill.group.shef.ac.uk/ccrepo) Feb. 2017
              R. A. Kendall, T. H. Dunning, Jr., R. J. Harrison, J. Chem. Phys. 96, 6796 (1992)
         He : Obtained from the ccRepo (grant-hill.group.shef.ac.uk/ccrepo) Feb. 2017
              D. E. Woon, T. H. Dunning, Jr., J. Chem. Phys. 100, 2975 (1994)
  Li-Be, Na : Obtained from the ccRepo (grant-hill.group.shef.ac.uk/ccrepo) Feb. 2017
              B. P. Prascher, D. E. Woon, K. A. Peterson, T. H. Dunning, Jr., A. K. Wilson, Theor. Chem. Acc. 128, 69 (2011)
         Mg : Obtained from the Peterson Research Group Website (tyr0.chem.wsu.edu/~kipeters) Feb. 2017
              B. P. Prascher, D. E. Woon, K. A. Peterson, T. H. Dunning, Jr., A. K. Wilson, Theor. Chem. Acc. 128, 69 (2011)
      Al-Ar : Obtained from the ccRepo (grant-hill.group.shef.ac.uk/ccrepo) Feb. 2017
              D. E. Woon, T. H. Dunning, Jr., J. Chem. Phys. 98, 1358 (1993)
      Sc-Zn : Obtained from the ccRepo (grant-hill.group.shef.ac.uk/ccrepo) Feb. 2017
              N. B. Balabanov, K. A. Peterson, J. Chem. Phys. 123, 064107 (2005)
              N. B. Balabanov, K. A. Peterson, J. Chem. Phys. 125, 074110 (2006)
      Ga-Kr : Obtained from the ccRepo (grant-hill.group.shef.ac.uk/ccrepo) Feb. 2017
              A. K. Wilson, D. E. Woon, K. A. Peterson, T. H. Dunning, Jr., J. Chem. Phys. 110, 7667 (1999)
     Ag, Au : Obtained from the Peterson Research Group Website (tyr0.chem.wsu.edu/~kipeters) Feb. 2017
              K. A. Peterson, C. Puzzarini, Theor. Chem. Acc. 114, 283 (2005)

The basis set includes element-specific modifications.

Your calculation utilizes the basis: cc-pVTZ 
       H, B-Ne : Obtained from the ccRepo (grant-hill.group.shef.ac.uk/ccrepo) Feb. 2017
                 T. H. Dunning, Jr., J. Chem. Phys. 90, 1007 (1989)
            He : Obtained from the ccRepo (grant-hill.group.shef.ac.uk/ccrepo) Feb. 2017
                 D. E. Woon, T. H. Dunning, Jr., J. Chem. Phys. 100, 2975 (1994)
  Li-Be, Na-Mg : Obtained from the ccRepo (grant-hill.group.shef.ac.uk/ccrepo) Feb. 2017
                 B. P. Prascher, D. E. Woon, K. A. Peterson, T. H. Dunning, Jr., A. K. Wilson, Theor. Chem. Acc. 128, 69 (2011)
         Al-Ar : Obtained from the ccRepo (grant-hill.group.shef.ac.uk/ccrepo) Feb. 2017
                 D. E. Woon, T. H. Dunning, Jr., J. Chem. Phys. 98, 1358 (1993)
            Ca : Obtained from the Peterson Research Group Website (tyr0.chem.wsu.edu/~kipeters) Feb. 2017
                 J. Koput, K. A. Peterson, J. Phys. Chem. 106, 9595 (2002)
         Sc-Zn : Obtained from the ccRepo (grant-hill.group.shef.ac.uk/ccrepo) Feb. 2017
                 N. B. Balabanov, K. A. Peterson, J. Chem. Phys. 123, 064107 (2005)
                 N. B. Balabanov, K. A. Peterson, J. Chem. Phys. 125, 074110 (2006)
         Ga-Kr : Obtained from the ccRepo (grant-hill.group.shef.ac.uk/ccrepo) Feb. 2017
                 A. K. Wilson, D. E. Woon, K. A. Peterson, T. H. Dunning, Jr., J. Chem. Phys. 110, 7667 (1999)
             Y : Obtained from the ccRepo (grant-hill.group.shef.ac.uk/ccrepo) Feb. 2017
                 K. A. Peterson, D. Figgen, M. Dolg, H. Stoll, J. Chem. Phys. 126, 124101 (2007)
        Ag, Au : Obtained from the Peterson Research Group Website (tyr0.chem.wsu.edu/~kipeters) Feb. 2017
                 K. A. Peterson, C. Puzzarini, Theor. Chem. Acc. 114, 283 (2005)

----- AuxJ basis set information -----
Your calculation utilizes the auxiliary basis: aug-cc-pVTZ/JK 
  H, B-F, Al-Cl, Ga-Br : Obtained from the TURBOMOLE 7.0 basis set library

The basis set includes element-specific modifications.

Your calculation utilizes the auxiliary basis: cc-pVTZ/JK 
  H, B-F, Al-Cl, Ga-Br : Obtained from the TURBOMOLE 7.0 basis set library

----- AuxC basis set information -----
Your calculation utilizes the auxiliary basis: aug-cc-pVTZ/C 
  H-He, B-F, Al-Ar, Ga-Kr : Obtained from the EMSL Basis Set Exchange (bse.pnl.gov) Feb. 2017
                            F. Weigend, A. Kohn, C. Hattig, J. Chem. Phys. 116, 3175 (2002)
                   Be, Mg : Obtained from the TURBOMOLE 7.0 basis set library
                            C. Haettig, Phys. Chem. Chem. Phys. 7, 59 (2005)
                       Ne : Obtained from the EMSL Basis Set Exchange (bse.pnl.gov) Feb. 2017
                            C. Haettig, Phys. Chem. Chem. Phys. 7, 59 (2005)
                            F. Weigend, A. Kohn, C. Hattig, J. Chem. Phys. 116, 3175 (2002)
                    Sc-Zn : Obtained from the EMSL Basis Set Exchange (bse.pnl.gov) Feb. 2017
                            J. G. Hill, J. A. Platts, J. Chem. Phys. 128, 044104 (2008)

The basis set includes element-specific modifications.

Your calculation utilizes the auxiliary basis: cc-pVTZ/C 
  Obtained from the EMSL Basis Set Exchange (bse.pnl.gov) Feb. 2017
  H-He, B-F, Al-Ar, Ga-Kr : F. Weigend, A. Kohn, C. Hattig, J. Chem. Phys. 116, 3175 (2002)
             Li-Be, Na-Mg : C. Haettig, Phys. Chem. Chem. Phys. 7, 59 (2005)
                       Ne : C. Haettig, Phys. Chem. Chem. Phys. 7, 59 (2005)
                            F. Weigend, A. Kohn, C. Hattig, J. Chem. Phys. 116, 3175 (2002)
                    Sc-Zn : J. G. Hill, J. A. Platts, J. Chem. Phys. 128, 044104 (2008)

================================================================================
                                        WARNINGS
                       Please study these warnings very carefully!
================================================================================


WARNING: Geometry Optimization
  ===> : Switching off AutoStart
         For restart on a previous wavefunction, please use MOREAD

INFO   : the flag for use of the SHARK integral package has been found!



***************************************
The coordinates will be read from file: 
***************************************


Your calculation utilizes the atom-pairwise dispersion correction
with the Becke-Johnson damping scheme (D3BJ)
Cite in your paper:
S.Grimme, S.Ehrlich, L.Goerigk, J Comput Chem, (2011), 32, 1456–1465 
S.Grimme, J.Antony, S.Ehrlich and H.Krieg, J.Chem.Phys., 132, (2010), 154104 
   

Your calculation utilizes the SMD solvation module
Please cite in your paper:
A.V. Marenich, C.J. Cramer, D.G. Truhlar J. Phys. Chem. B, 113, (2009), 6378 

================================================================================

----- Orbital basis set information -----
Your calculation utilizes the basis: aug-cc-pVTZ 
    H, B-Ne : Obtained from the ccRepo (grant-hill.group.shef.ac.uk/ccrepo) Feb. 2017
              R. A. Kendall, T. H. Dunning, Jr., R. J. Harrison, J. Chem. Phys. 96, 6796 (1992)
         He : Obtained from the ccRepo (grant-hill.group.shef.ac.uk/ccrepo) Feb. 2017
              D. E. Woon, T. H. Dunning, Jr., J. Chem. Phys. 100, 2975 (1994)
  Li-Be, Na : Obtained from the ccRepo (grant-hill.group.shef.ac.uk/ccrepo) Feb. 2017
              B. P. Prascher, D. E. Woon, K. A. Peterson, T. H. Dunning, Jr., A. K. Wilson, Theor. Chem. Acc. 128, 69 (2011)
         Mg : Obtained from the Peterson Research Group Website (tyr0.chem.wsu.edu/~kipeters) Feb. 2017
              B. P. Prascher, D. E. Woon, K. A. Peterson, T. H. Dunning, Jr., A. K. Wilson, Theor. Chem. Acc. 128, 69 (2011)
      Al-Ar : Obtained from the ccRepo (grant-hill.group.shef.ac.uk/ccrepo) Feb. 2017
              D. E. Woon, T. H. Dunning, Jr., J. Chem. Phys. 98, 1358 (1993)
      Sc-Zn : Obtained from the ccRepo (grant-hill.group.shef.ac.uk/ccrepo) Feb. 2017
              N. B. Balabanov, K. A. Peterson, J. Chem. Phys. 123, 064107 (2005)
              N. B. Balabanov, K. A. Peterson, J. Chem. Phys. 125, 074110 (2006)
      Ga-Kr : Obtained from the ccRepo (grant-hill.group.shef.ac.uk/ccrepo) Feb. 2017
              A. K. Wilson, D. E. Woon, K. A. Peterson, T. H. Dunning, Jr., J. Chem. Phys. 110, 7667 (1999)
     Ag, Au : Obtained from the Peterson Research Group Website (tyr0.chem.wsu.edu/~kipeters) Feb. 2017
              K. A. Peterson, C. Puzzarini, Theor. Chem. Acc. 114, 283 (2005)

The basis set includes element-specific modifications.

Your calculation utilizes the basis: cc-pVTZ 
       H, B-Ne : Obtained from the ccRepo (grant-hill.group.shef.ac.uk/ccrepo) Feb. 2017
                 T. H. Dunning, Jr., J. Chem. Phys. 90, 1007 (1989)
            He : Obtained from the ccRepo (grant-hill.group.shef.ac.uk/ccrepo) Feb. 2017
                 D. E. Woon, T. H. Dunning, Jr., J. Chem. Phys. 100, 2975 (1994)
  Li-Be, Na-Mg : Obtained from the ccRepo (grant-hill.group.shef.ac.uk/ccrepo) Feb. 2017
                 B. P. Prascher, D. E. Woon, K. A. Peterson, T. H. Dunning, Jr., A. K. Wilson, Theor. Chem. Acc. 128, 69 (2011)
         Al-Ar : Obtained from the ccRepo (grant-hill.group.shef.ac.uk/ccrepo) Feb. 2017
                 D. E. Woon, T. H. Dunning, Jr., J. Chem. Phys. 98, 1358 (1993)
            Ca : Obtained from the Peterson Research Group Website (tyr0.chem.wsu.edu/~kipeters) Feb. 2017
                 J. Koput, K. A. Peterson, J. Phys. Chem. 106, 9595 (2002)
         Sc-Zn : Obtained from the ccRepo (grant-hill.group.shef.ac.uk/ccrepo) Feb. 2017
                 N. B. Balabanov, K. A. Peterson, J. Chem. Phys. 123, 064107 (2005)
                 N. B. Balabanov, K. A. Peterson, J. Chem. Phys. 125, 074110 (2006)
         Ga-Kr : Obtained from the ccRepo (grant-hill.group.shef.ac.uk/ccrepo) Feb. 2017
                 A. K. Wilson, D. E. Woon, K. A. Peterson, T. H. Dunning, Jr., J. Chem. Phys. 110, 7667 (1999)
             Y : Obtained from the ccRepo (grant-hill.group.shef.ac.uk/ccrepo) Feb. 2017
                 K. A. Peterson, D. Figgen, M. Dolg, H. Stoll, J. Chem. Phys. 126, 124101 (2007)
        Ag, Au : Obtained from the Peterson Research Group Website (tyr0.chem.wsu.edu/~kipeters) Feb. 2017
                 K. A. Peterson, C. Puzzarini, Theor. Chem. Acc. 114, 283 (2005)

----- AuxJ basis set information -----
Your calculation utilizes the auxiliary basis: aug-cc-pVTZ/JK 
  H, B-F, Al-Cl, Ga-Br : Obtained from the TURBOMOLE 7.0 basis set library

The basis set includes element-specific modifications.

Your calculation utilizes the auxiliary basis: cc-pVTZ/JK 
  H, B-F, Al-Cl, Ga-Br : Obtained from the TURBOMOLE 7.0 basis set library

----- AuxC basis set information -----
Your calculation utilizes the auxiliary basis: aug-cc-pVTZ/C 
  H-He, B-F, Al-Ar, Ga-Kr : Obtained from the EMSL Basis Set Exchange (bse.pnl.gov) Feb. 2017
                            F. Weigend, A. Kohn, C. Hattig, J. Chem. Phys. 116, 3175 (2002)
                   Be, Mg : Obtained from the TURBOMOLE 7.0 basis set library
                            C. Haettig, Phys. Chem. Chem. Phys. 7, 59 (2005)
                       Ne : Obtained from the EMSL Basis Set Exchange (bse.pnl.gov) Feb. 2017
                            C. Haettig, Phys. Chem. Chem. Phys. 7, 59 (2005)
                            F. Weigend, A. Kohn, C. Hattig, J. Chem. Phys. 116, 3175 (2002)
                    Sc-Zn : Obtained from the EMSL Basis Set Exchange (bse.pnl.gov) Feb. 2017
                            J. G. Hill, J. A. Platts, J. Chem. Phys. 128, 044104 (2008)

The basis set includes element-specific modifications.

Your calculation utilizes the auxiliary basis: cc-pVTZ/C 
  Obtained from the EMSL Basis Set Exchange (bse.pnl.gov) Feb. 2017
  H-He, B-F, Al-Ar, Ga-Kr : F. Weigend, A. Kohn, C. Hattig, J. Chem. Phys. 116, 3175 (2002)
             Li-Be, Na-Mg : C. Haettig, Phys. Chem. Chem. Phys. 7, 59 (2005)
                       Ne : C. Haettig, Phys. Chem. Chem. Phys. 7, 59 (2005)
                            F. Weigend, A. Kohn, C. Hattig, J. Chem. Phys. 116, 3175 (2002)
                    Sc-Zn : J. G. Hill, J. A. Platts, J. Chem. Phys. 128, 044104 (2008)

================================================================================
                                        WARNINGS
                       Please study these warnings very carefully!
================================================================================

INFO   : Checking CIS options ...
  ===> : (D) CORRECTION FOUND - SETTING MODE=3
  ===> : JK MODE FOUND - ACTIVATING RI-MP2 CODE
  ===> : MP2 AND CIS FOUND - CHECKING
WARNING: CIS(D) and MP2 runs must have the same orbital window
  ===> : adjusting orbital windows

WARNING: No MP2 level density has been requested!
         To caclulate MP2 level properties use
         %mp2 Density relaxed end
         or
         %mp2 Density unrelaxed end
         Otherwise for double-hybrid DFT only the energy is correct!

WARNING: The frozen-core approximation is turned on by default for 
         the MP2 part of double-hybrid DFT.

INFO   : the flag for use of the SHARK integral package has been found!

================================================================================
                                       INPUT FILE
================================================================================
NAME = optpbed3-b2plyp-test-387.inp
|  1> ! pbe0 d3bj aug-cc-PVTZ RIJCOSX Opt
|  2> %maxcore 4000
|  3> %basis
|  4>  AuxJ "aug-cc-PVTZ/JK"
|  5>  AuxC "aug-cc-PVTZ/C"
|  6>  newGTO H "cc-PVTZ" end
|  7>  newAuxJGTO H "cc-PVTZ/JK" end
|  8>  newAuxCGTO H "cc-PVTZ/C" end
|  9> end
| 10> %cpcm
| 11>  SMD true
| 12>  SMDsolvent "acetonitrile"
| 13> end
| 14> %pal nprocs 4 end
| 15> * xyz 0 1
| 16> N         -1.32600        2.46580        0.14660
| 17> C         -1.61200        1.13260       -0.02980
| 18> C         -2.95220        0.72550       -0.16020
| 19> C         -3.30790       -0.59680       -0.31100
| 20> C         -2.33390       -1.59040       -0.35320
| 21> C         -1.01810       -1.20690       -0.21260
| 22> C         -0.63650        0.13610       -0.03050
| 23> C          0.82060        0.18170        0.11540
| 24> C          1.70700        1.21010        0.37850
| 25> C          3.06690        0.92430        0.46380
| 26> C          3.54730       -0.36280        0.30140
| 27> C          2.66600       -1.41070        0.06120
| 28> C          1.31930       -1.12970       -0.02650
| 29> C          0.19100       -2.06810       -0.23690
| 30> O          0.24310       -3.26700       -0.39380
| 31> H         -2.06800        3.10870       -0.07990
| 32> H         -0.40730        2.77420       -0.12200
| 33> H         -3.71920        1.48780       -0.14420
| 34> H         -4.35070       -0.85900       -0.40850
| 35> H         -2.58910       -2.62920       -0.48930
| 36> H          1.37700        2.22470        0.54340
| 37> H          3.75940        1.72880        0.66660
| 38> H          4.60750       -0.55400        0.37280
| 39> H          3.01550       -2.42590       -0.05140
| 40> *
| 41> 
| 42> 
| 43> $new_job
| 44> ! b2plyp aug-cc-PVTZ RIJCOSX SP
| 45> %maxcore 4000
| 46> %basis
| 47>  AuxJ "aug-cc-PVTZ/JK"
| 48>  AuxC "aug-cc-PVTZ/C"
| 49>  newGTO H "cc-PVTZ" end
| 50>  newAuxJGTO H "cc-PVTZ/JK" end
| 51>  newAuxCGTO H "cc-PVTZ/C" end
| 52> end
| 53> %cpcm
| 54>  SMD true
| 55>  SMDsolvent "acetonitrile"
| 56> end
| 57> %pal nprocs 4 end
| 58> %tddft
| 59>  nroots 10
| 60>  maxdim 7
| 61> end
| 62> * xyzfile 0 1
| 63> 
| 64>                          ****END OF INPUT****
================================================================================


                 $$$$$$$$$$$$$$$$$$$$$$$$$$$$$$$$$$$$$$$$$$$$$$ 
                 $ THERE ARE  2 JOBS TO BE PROCESSED THIS RUN $
                 $$$$$$$$$$$$$$$$$$$$$$$$$$$$$$$$$$$$$$$$$$$$$$ 




                 $$$$$$$$$$$$$$$$  JOB NUMBER  1 $$$$$$$$$$$$$$


                       *****************************
                       * Geometry Optimization Run *
                       *****************************

Geometry optimization settings:
Update method            Update   .... BFGS
Choice of coordinates    CoordSys .... Z-matrix Internals
Initial Hessian          InHess   .... Almoef's Model

Convergence Tolerances:
Energy Change            TolE     ....  5.0000e-06 Eh
Max. Gradient            TolMAXG  ....  3.0000e-04 Eh/bohr
RMS Gradient             TolRMSG  ....  1.0000e-04 Eh/bohr
Max. Displacement        TolMAXD  ....  4.0000e-03 bohr
RMS Displacement         TolRMSD  ....  2.0000e-03 bohr
Strict Convergence                ....  False
------------------------------------------------------------------------------
                        ORCA OPTIMIZATION COORDINATE SETUP
------------------------------------------------------------------------------

The optimization will be done in new redundant internal coordinates
Making redundant internal coordinates   ...  (new redundants) done
Evaluating the initial hessian          ...  (Almloef) done
Evaluating the coordinates              ...  done
Calculating the B-matrix                .... done
Calculating the G-matrix                .... done
Diagonalizing the G-matrix              .... done
Small eigenvalue found = 2.178e-02
The first mode is                       ....   66
The number of degrees of freedom        ....   66

    -----------------------------------------------------------------
                    Redundant Internal Coordinates


    -----------------------------------------------------------------
         Definition                    Initial Value    Approx d2E/dq
    -----------------------------------------------------------------
      1. B(C   1,N   0)                  1.3749         0.591528   
      2. B(C   2,C   1)                  1.4067         0.587567   
      3. B(C   3,C   2)                  1.3776         0.653952   
      4. B(C   4,C   3)                  1.3920         0.620195   
      5. B(C   5,C   4)                  1.3777         0.653577   
      6. B(C   6,C   5)                  1.4080         0.584845   
      7. B(C   6,C   1)                  1.3945         0.614567   
      8. B(C   7,C   6)                  1.4651         0.474163   
      9. B(C   8,C   7)                  1.3829         0.641204   
     10. B(C   9,C   8)                  1.3922         0.619714   
     11. B(C  10,C   9)                  1.3834         0.640140   
     12. B(C  11,C  10)                  1.3901         0.624483   
     13. B(C  12,C  11)                  1.3785         0.651765   
     14. B(C  12,C   7)                  1.4102         0.580153   
     15. B(C  13,C   5)                  1.4846         0.441300   
     16. B(C  13,C  12)                  1.4825         0.444731   
     17. B(O  14,C  13)                  1.2102         1.083086   
     18. B(H  15,N   0)                  1.0076         0.436597   
     19. B(H  16,N   0)                  1.0056         0.439731   
     20. B(H  17,C   2)                  1.0815         0.371519   
     21. B(H  18,C   3)                  1.0797         0.374028   
     22. B(H  19,C   4)                  1.0783         0.375899   
     23. B(H  20,C   8)                  1.0796         0.374144   
     24. B(H  21,C   9)                  1.0807         0.372620   
     25. B(H  22,C  10)                  1.0797         0.374033   
     26. B(H  23,C  11)                  1.0796         0.374173   
     27. A(C   1,N   0,H  16)          116.9456         0.356789   
     28. A(H  15,N   0,H  16)          114.6486         0.304475   
     29. A(C   1,N   0,H  15)          115.8930         0.356355   
     30. A(N   0,C   1,C   6)          123.1940         0.426931   
     31. A(N   0,C   1,C   2)          119.3861         0.423512   
     32. A(C   2,C   1,C   6)          117.3618         0.429217   
     33. A(C   3,C   2,H  17)          119.6741         0.358007   
     34. A(C   1,C   2,C   3)          122.2710         0.434034   
     35. A(C   1,C   2,H  17)          118.0543         0.351568   
     36. A(C   4,C   3,H  18)          119.9821         0.355204   
     37. A(C   2,C   3,C   4)          120.5169         0.438280   
     38. A(C   2,C   3,H  18)          119.4971         0.358417   
     39. A(C   5,C   4,H  19)          120.4683         0.358687   
     40. A(C   3,C   4,C   5)          117.8054         0.438235   
     41. A(C   3,C   4,H  19)          121.7263         0.355505   
     42. A(C   6,C   5,C  13)          109.5537         0.404315   
     43. A(C   4,C   5,C   6)          122.5167         0.433627   
     44. A(C   4,C   5,C  13)          127.9267         0.412345   
     45. A(C   5,C   6,C   7)          108.1866         0.409482   
     46. A(C   1,C   6,C   7)          132.3322         0.413098   
     47. A(C   1,C   6,C   5)          119.4778         0.428859   
     48. A(C   6,C   7,C  12)          108.2249         0.408899   
     49. A(C   6,C   7,C   8)          132.8080         0.416226   
     50. A(C   8,C   7,C  12)          118.9481         0.431514   
     51. A(C   7,C   8,C   9)          119.0172         0.436666   
     52. A(C   9,C   8,H  20)          118.8255         0.355176   
     53. A(C   7,C   8,H  20)          122.1411         0.357238   
     54. A(C   8,C   9,C  10)          121.5337         0.436535   
     55. A(C  10,C   9,H  21)          119.4798         0.356890   
     56. A(C   8,C   9,H  21)          118.9858         0.354931   
     57. A(C   9,C  10,C  11)          120.0974         0.437139   
     58. A(C  11,C  10,H  22)          120.0310         0.355621   
     59. A(C   9,C  10,H  22)          119.8679         0.357119   
     60. A(C  12,C  11,H  23)          120.0880         0.358236   
     61. A(C  10,C  11,H  23)          121.4429         0.355643   
     62. A(C  10,C  11,C  12)          118.4685         0.438560   
     63. A(C  11,C  12,C  13)          128.5726         0.412709   
     64. A(C   7,C  12,C  13)          109.4976         0.404292   
     65. A(C   7,C  12,C  11)          121.9143         0.432783   
     66. A(C  12,C  13,O  14)          127.7828         0.449155   
     67. A(C   5,C  13,O  14)          127.7208         0.448524   
     68. A(C   5,C  13,C  12)          104.4964         0.385362   
     69. D(C   2,C   1,N   0,H  16)   -156.4422         0.028138   
     70. D(C   6,C   1,N   0,H  15)    166.4737         0.028138   
     71. D(C   6,C   1,N   0,H  16)     26.4058         0.028138   
     72. D(C   2,C   1,N   0,H  15)    -16.3744         0.028138   
     73. D(H  17,C   2,C   1,N   0)      1.6673         0.023748   
     74. D(H  17,C   2,C   1,C   6)    178.9839         0.023748   
     75. D(C   3,C   2,C   1,C   6)     -1.2909         0.023748   
     76. D(C   3,C   2,C   1,N   0)   -178.6075         0.023748   
     77. D(H  18,C   3,C   2,C   1)   -179.9238         0.029802   
     78. D(H  18,C   3,C   2,H  17)     -0.2030         0.029802   
     79. D(C   4,C   3,C   2,C   1)     -0.6445         0.029802   
     80. D(C   4,C   3,C   2,H  17)    179.0764         0.029802   
     81. D(H  19,C   4,C   3,C   2)   -178.8194         0.026617   
     82. D(C   5,C   4,C   3,H  18)   -179.4445         0.026617   
     83. D(C   5,C   4,C   3,C   2)      1.2796         0.026617   
     84. D(H  19,C   4,C   3,H  18)      0.4565         0.026617   
     85. D(C  13,C   5,C   4,H  19)      0.8024         0.029765   
     86. D(C  13,C   5,C   4,C   3)   -179.2953         0.029765   
     87. D(C   6,C   5,C   4,H  19)   -179.8889         0.029765   
     88. D(C   6,C   5,C   4,C   3)      0.0134         0.029765   
     89. D(C   7,C   6,C   5,C  13)     -1.9531         0.023518   
     90. D(C   1,C   6,C   5,C  13)    177.4562         0.023518   
     91. D(C   1,C   6,C   5,C   4)     -1.9651         0.023518   
     92. D(C   7,C   6,C   1,C   2)   -178.2379         0.026108   
     93. D(C   7,C   6,C   1,N   0)     -1.0321         0.026108   
     94. D(C   7,C   6,C   5,C   4)    178.6256         0.023518   
     95. D(C   5,C   6,C   1,C   2)      2.5213         0.026108   
     96. D(C   5,C   6,C   1,N   0)    179.7271         0.026108   
     97. D(C  12,C   7,C   6,C   1)   -177.2558         0.015308   
     98. D(C   8,C   7,C   6,C   5)   -176.2993         0.015308   
     99. D(C   8,C   7,C   6,C   1)      4.3963         0.015308   
    100. D(C  12,C   7,C   6,C   5)      2.0486         0.015308   
    101. D(H  20,C   8,C   7,C  12)   -177.0157         0.028573   
    102. D(H  20,C   8,C   7,C   6)      1.1910         0.028573   
    103. D(C   9,C   8,C   7,C  12)      1.5005         0.028573   
    104. D(C   9,C   8,C   7,C   6)    179.7072         0.028573   
    105. D(H  21,C   9,C   8,H  20)     -1.6082         0.026573   
    106. D(H  21,C   9,C   8,C   7)    179.8259         0.026573   
    107. D(C  10,C   9,C   8,H  20)    178.0849         0.026573   
    108. D(C  10,C   9,C   8,C   7)     -0.4810         0.026573   
    109. D(H  22,C  10,C   9,H  21)     -0.3224         0.028472   
    110. D(H  22,C  10,C   9,C   8)    179.9860         0.028472   
    111. D(C  11,C  10,C   9,H  21)    178.9783         0.028472   
    112. D(C  11,C  10,C   9,C   8)     -0.7133         0.028472   
    113. D(H  23,C  11,C  10,H  22)      0.4011         0.027009   
    114. D(H  23,C  11,C  10,C   9)   -178.8984         0.027009   
    115. D(C  12,C  11,C  10,H  22)   -179.8734         0.027009   
    116. D(C  12,C  11,C  10,C   9)      0.8271         0.027009   
    117. D(C  13,C  12,C  11,H  23)      1.5445         0.029589   
    118. D(C   7,C  12,C  11,H  23)    179.9557         0.029589   
    119. D(C   7,C  12,C  11,C  10)      0.2264         0.029589   
    120. D(C  13,C  12,C   7,C   8)    177.2765         0.023125   
    121. D(C  13,C  12,C   7,C   6)     -1.3384         0.023125   
    122. D(C  13,C  12,C  11,C  10)   -178.1848         0.029589   
    123. D(C  11,C  12,C   7,C   8)     -1.4058         0.023125   
    124. D(C  11,C  12,C   7,C   6)    179.9792         0.023125   
    125. D(C   5,C  13,C  12,C  11)    178.7374         0.013489   
    126. D(C   5,C  13,C  12,C   7)      0.1680         0.013489   
    127. D(O  14,C  13,C   5,C   6)   -178.8537         0.013286   
    128. D(O  14,C  13,C   5,C   4)      0.5276         0.013286   
    129. D(C  12,C  13,C   5,C   6)      1.1219         0.013286   
    130. D(O  14,C  13,C  12,C   7)   -179.8564         0.013489   
    131. D(C  12,C  13,C   5,C   4)   -179.4967         0.013286   
    132. D(O  14,C  13,C  12,C  11)     -1.2870         0.013489   
    -----------------------------------------------------------------

Number of atoms                         .... 24
Number of degrees of freedom            .... 132

         *************************************************************
         *                GEOMETRY OPTIMIZATION CYCLE   1            *
         *************************************************************
---------------------------------
CARTESIAN COORDINATES (ANGSTROEM)
---------------------------------
  N     -1.326000    2.465800    0.146600
  C     -1.612000    1.132600   -0.029800
  C     -2.952200    0.725500   -0.160200
  C     -3.307900   -0.596800   -0.311000
  C     -2.333900   -1.590400   -0.353200
  C     -1.018100   -1.206900   -0.212600
  C     -0.636500    0.136100   -0.030500
  C      0.820600    0.181700    0.115400
  C      1.707000    1.210100    0.378500
  C      3.066900    0.924300    0.463800
  C      3.547300   -0.362800    0.301400
  C      2.666000   -1.410700    0.061200
  C      1.319300   -1.129700   -0.026500
  C      0.191000   -2.068100   -0.236900
  O      0.243100   -3.267000   -0.393800
  H     -2.068000    3.108700   -0.079900
  H     -0.407300    2.774200   -0.122000
  H     -3.719200    1.487800   -0.144200
  H     -4.350700   -0.859000   -0.408500
  H     -2.589100   -2.629200   -0.489300
  H      1.377000    2.224700    0.543400
  H      3.759400    1.728800    0.666600
  H      4.607500   -0.554000    0.372800
  H      3.015500   -2.425900   -0.051400

----------------------------
CARTESIAN COORDINATES (A.U.)
----------------------------
  NO LB      ZA    FRAG     MASS         X           Y           Z
   0 N     7.0000    0    14.007   -2.505777    4.659687    0.277034
   1 C     6.0000    0    12.011   -3.046239    2.140304   -0.056314
   2 C     6.0000    0    12.011   -5.578849    1.370996   -0.302734
   3 C     6.0000    0    12.011   -6.251025   -1.127789   -0.587705
   4 C     6.0000    0    12.011   -4.410432   -3.005420   -0.667451
   5 C     6.0000    0    12.011   -1.923930   -2.280710   -0.401756
   6 C     6.0000    0    12.011   -1.202811    0.257192   -0.057637
   7 C     6.0000    0    12.011    1.550709    0.343363    0.218074
   8 C     6.0000    0    12.011    3.225763    2.286758    0.715261
   9 C     6.0000    0    12.011    5.795601    1.746674    0.876455
  10 C     6.0000    0    12.011    6.703426   -0.685593    0.569563
  11 C     6.0000    0    12.011    5.038010   -2.665837    0.115651
  12 C     6.0000    0    12.011    2.493116   -2.134824   -0.050078
  13 C     6.0000    0    12.011    0.360938   -3.908143   -0.447676
  14 O     8.0000    0    15.999    0.459392   -6.173735   -0.744174
  15 H     1.0000    0     1.008   -3.907954    5.874592   -0.150989
  16 H     1.0000    0     1.008   -0.769685    5.242478   -0.230547
  17 H     1.0000    0     1.008   -7.028269    2.811535   -0.272499
  18 H     1.0000    0     1.008   -8.221631   -1.623275   -0.771953
  19 H     1.0000    0     1.008   -4.892690   -4.968468   -0.924643
  20 H     1.0000    0     1.008    2.602153    4.204074    1.026877
  21 H     1.0000    0     1.008    7.104236    3.266959    1.259691
  22 H     1.0000    0     1.008    8.706913   -1.046908    0.704490
  23 H     1.0000    0     1.008    5.698469   -4.584287   -0.097132

--------------------------------
INTERNAL COORDINATES (ANGSTROEM)
--------------------------------
 N      0   0   0     0.000000000000     0.00000000     0.00000000
 C      1   0   0     1.374894614143     0.00000000     0.00000000
 C      2   1   0     1.406723359442   119.38607025     0.00000000
 C      3   2   1     1.377584995563   122.27099077   181.39248343
 C      4   3   2     1.392012140752   120.51685593   359.35551373
 C      5   4   3     1.377740995253   117.80536899     1.27961821
 C      2   1   3     1.394493811388   123.19397000   182.84803577
 C      7   2   1     1.465096099237   132.33218257   358.96794734
 C      8   7   2     1.382943646719   132.80801445     4.39634010
 C      9   8   7     1.392223308238   119.01718125   179.70721965
 C     10   9   8     1.383395941154   121.53371809   359.51896291
 C     11  10   9     1.390136734282   120.09738209   359.28667148
 C     12  11  10     1.378496710188   118.46848445     0.82708896
 C     13  12  11     1.482539581259   128.57258273   181.81515003
 O     14  13  12     1.210245111537   127.78282680   358.71303583
 H      1   2   3     1.007564717524   115.89302137   343.62564873
 H      1   2   3     1.005617327814   116.94562855   203.55780059
 H      3   2   1     1.081501867775   118.05430562     1.66731781
 H      4   3   2     1.079669824530   119.49709052   180.07615580
 H      5   4   3     1.078311499521   121.72626844   181.18060046
 H      9   8   7     1.079585647367   122.14107542     1.19100465
 H     10   9   8     1.080696229289   118.98577408   179.82586782
 H     11  10   9     1.079666355871   119.86787631   179.98599710
 H     12  11  10     1.079564750258   121.44289987   181.10158642

---------------------------
INTERNAL COORDINATES (A.U.)
---------------------------
 N      0   0   0     0.000000000000     0.00000000     0.00000000
 C      1   0   0     2.598174283734     0.00000000     0.00000000
 C      2   1   0     2.658321895535   119.38607025     0.00000000
 C      3   2   1     2.603258367813   122.27099077   181.39248343
 C      4   3   2     2.630521721114   120.51685593   359.35551373
 C      5   4   3     2.603553164504   117.80536899     1.27961821
 C      2   1   3     2.635211398972   123.19397000   182.84803577
 C      7   2   1     2.768630387435   132.33218257   358.96794734
 C      8   7   2     2.613384750945   132.80801445     4.39634010
 C      9   8   7     2.630920769831   119.01718125   179.70721965
 C     10   9   8     2.614239463558   121.53371809   359.51896291
 C     11  10   9     2.626977716496   120.09738209   359.28667148
 C     12  11  10     2.604981258767   118.46848445     0.82708896
 C     13  12  11     2.801593791278   128.57258273   181.81515003
 O     14  13  12     2.287031815723   127.78282680   358.71303583
 H      1   2   3     1.904021378323   115.89302137   343.62564873
 H      1   2   3     1.900341345094   116.94562855   203.55780059
 H      3   2   1     2.043742343418   118.05430562     1.66731781
 H      4   3   2     2.040280283420   119.49709052   180.07615580
 H      5   4   3     2.037713421153   121.72626844   181.18060046
 H      9   8   7     2.040121211635   122.14107542     1.19100465
 H     10   9   8     2.042219907318   118.98577408   179.82586782
 H     11  10   9     2.040273728605   119.86787631   179.98599710
 H     12  11  10     2.040081721823   121.44289987   181.10158642

---------------------
BASIS SET INFORMATION
---------------------
There are 4 groups of distinct atoms

 Group   1 Type N   : 19s6p3d2f contracted to 5s4p3d2f pattern {88111/3111/111/11}
 Group   2 Type C   : 19s6p3d2f contracted to 5s4p3d2f pattern {88111/3111/111/11}
 Group   3 Type O   : 19s6p3d2f contracted to 5s4p3d2f pattern {88111/3111/111/11}
 Group   4 Type H   : 5s2p1d contracted to 3s2p1d pattern {311/11/1}

Atom   0N    basis set group =>   1
Atom   1C    basis set group =>   2
Atom   2C    basis set group =>   2
Atom   3C    basis set group =>   2
Atom   4C    basis set group =>   2
Atom   5C    basis set group =>   2
Atom   6C    basis set group =>   2
Atom   7C    basis set group =>   2
Atom   8C    basis set group =>   2
Atom   9C    basis set group =>   2
Atom  10C    basis set group =>   2
Atom  11C    basis set group =>   2
Atom  12C    basis set group =>   2
Atom  13C    basis set group =>   2
Atom  14O    basis set group =>   3
Atom  15H    basis set group =>   4
Atom  16H    basis set group =>   4
Atom  17H    basis set group =>   4
Atom  18H    basis set group =>   4
Atom  19H    basis set group =>   4
Atom  20H    basis set group =>   4
Atom  21H    basis set group =>   4
Atom  22H    basis set group =>   4
Atom  23H    basis set group =>   4
---------------------------------
AUXILIARY/J BASIS SET INFORMATION
---------------------------------
There are 4 groups of distinct atoms

 Group   1 Type N   : 10s7p5d2f1g contracted to 10s7p5d2f1g pattern {1111111111/1111111/11111/11/1}
 Group   2 Type C   : 10s7p5d2f1g contracted to 10s7p5d2f1g pattern {1111111111/1111111/11111/11/1}
 Group   3 Type O   : 10s7p5d2f1g contracted to 10s7p5d2f1g pattern {1111111111/1111111/11111/11/1}
 Group   4 Type H   : 4s3p2d1f contracted to 4s3p2d1f pattern {1111/111/11/1}

Atom   0N    basis set group =>   1
Atom   1C    basis set group =>   2
Atom   2C    basis set group =>   2
Atom   3C    basis set group =>   2
Atom   4C    basis set group =>   2
Atom   5C    basis set group =>   2
Atom   6C    basis set group =>   2
Atom   7C    basis set group =>   2
Atom   8C    basis set group =>   2
Atom   9C    basis set group =>   2
Atom  10C    basis set group =>   2
Atom  11C    basis set group =>   2
Atom  12C    basis set group =>   2
Atom  13C    basis set group =>   2
Atom  14O    basis set group =>   3
Atom  15H    basis set group =>   4
Atom  16H    basis set group =>   4
Atom  17H    basis set group =>   4
Atom  18H    basis set group =>   4
Atom  19H    basis set group =>   4
Atom  20H    basis set group =>   4
Atom  21H    basis set group =>   4
Atom  22H    basis set group =>   4
Atom  23H    basis set group =>   4
---------------------------------
AUXILIARY/C BASIS SET INFORMATION
---------------------------------
There are 4 groups of distinct atoms

 Group   1 Type N   : 9s7p6d4f2g contracted to 9s7p6d4f2g pattern {111111111/1111111/111111/1111/11}
 Group   2 Type C   : 9s7p6d4f2g contracted to 9s7p6d4f2g pattern {111111111/1111111/111111/1111/11}
 Group   3 Type O   : 9s7p6d4f2g contracted to 9s7p6d4f2g pattern {111111111/1111111/111111/1111/11}
 Group   4 Type H   : 4s3p2d1f contracted to 4s3p2d1f pattern {1111/111/11/1}

Atom   0N    basis set group =>   1
Atom   1C    basis set group =>   2
Atom   2C    basis set group =>   2
Atom   3C    basis set group =>   2
Atom   4C    basis set group =>   2
Atom   5C    basis set group =>   2
Atom   6C    basis set group =>   2
Atom   7C    basis set group =>   2
Atom   8C    basis set group =>   2
Atom   9C    basis set group =>   2
Atom  10C    basis set group =>   2
Atom  11C    basis set group =>   2
Atom  12C    basis set group =>   2
Atom  13C    basis set group =>   2
Atom  14O    basis set group =>   3
Atom  15H    basis set group =>   4
Atom  16H    basis set group =>   4
Atom  17H    basis set group =>   4
Atom  18H    basis set group =>   4
Atom  19H    basis set group =>   4
Atom  20H    basis set group =>   4
Atom  21H    basis set group =>   4
Atom  22H    basis set group =>   4
Atom  23H    basis set group =>   4


           ************************************************************
           *        Program running with 4 parallel MPI-processes     *
           *              working on a common directory               *
           ************************************************************
------------------------------------------------------------------------------
                           ORCA GTO INTEGRAL CALCULATION
                           -- RI-GTO INTEGRALS CHOSEN --
------------------------------------------------------------------------------
------------------------------------------------------------------------------
                   ___                                                        
                  /   \      - P O W E R E D   B Y -                         
                 /     \                                                     
                 |  |  |   _    _      __       _____    __    __             
                 |  |  |  | |  | |    /  \     |  _  \  |  |  /  |          
                  \  \/   | |  | |   /    \    | | | |  |  | /  /          
                 / \  \   | |__| |  /  /\  \   | |_| |  |  |/  /          
                |  |  |   |  __  | /  /__\  \  |    /   |      \           
                |  |  |   | |  | | |   __   |  |    \   |  |\   \          
                \     /   | |  | | |  |  |  |  | |\  \  |  | \   \       
                 \___/    |_|  |_| |__|  |__|  |_| \__\ |__|  \__/        
                                                                              
                      - O R C A' S   B I G   F R I E N D -                    
                                      &                                       
                       - I N T E G R A L  F E E D E R -                       
                                                                              
 v1 FN, 2020, v2 2021                                                         
------------------------------------------------------------------------------


Reading SHARK input file optpbed3-b2plyp-test-387.SHARKINP.tmp ... ok
----------------------
SHARK INTEGRAL PACKAGE
----------------------

Number of atoms                             ...     24
Number of basis functions                   ...    906
Number of shells                            ...    354
Maximum angular momentum                    ...      3
Integral batch strategy                     ... SHARK/LIBINT Hybrid
RI-J (if used) integral strategy            ... SPLIT-RIJ (Revised 2003 algorithm where possible)
Printlevel                                  ...      1
Contraction scheme used                     ... PARTIAL GENERAL contraction
Coulomb Range Separation                    ... NOT USED
Exchange Range Separation                   ... NOT USED
Finite Nucleus Model                        ... NOT USED
Auxiliary Coulomb fitting basis             ... AVAILABLE
   # of basis functions in Aux-J            ...   1455
   # of shells in Aux-J                     ...    465
   Maximum angular momentum in Aux-J        ...      4
Auxiliary J/K fitting basis                 ... NOT available
Auxiliary Correlation fitting basis         ... AVAILABLE
   # of basis functions in Aux-C            ...   1860
   # of shells in Aux-C                     ...    510
   Maximum angular momentum in Aux-C        ...      4
Auxiliary 'external' fitting basis          ... NOT available
Integral threshold                          ...     2.500000e-11
Primitive cut-off                           ...     2.500000e-12
Primitive pair pre-selection threshold      ...     2.500000e-12

Calculating pre-screening integrals         ... done (  0.2 sec) Dimension = 354
Calculating pre-screening integrals (ORCA)  ... done (  0.3 sec) Dimension = 264
Organizing shell pair data                  ... done (  0.7 sec)
Shell pair information
Total number of shell pairs                 ...     62835
Shell pairs after pre-screening             ...     46827
Total number of primitive shell pairs       ...     81075
Primitive shell pairs kept                  ...     55482
          la=0 lb=0:  10738 shell pairs
          la=1 lb=0:  11699 shell pairs
          la=1 lb=1:   2731 shell pairs
          la=2 lb=0:   8009 shell pairs
          la=2 lb=1:   3714 shell pairs
          la=2 lb=2:   1309 shell pairs
          la=3 lb=0:   4599 shell pairs
          la=3 lb=1:   2117 shell pairs
          la=3 lb=2:   1466 shell pairs
          la=3 lb=3:    445 shell pairs

Calculating one electron integrals          ... done (  0.1 sec)
Calculating RI/J V-Matrix + Cholesky decomp.... done (  0.2 sec)
Calculating RI/C V-Matrix + Cholesky decomp.... done (  0.2 sec)
Calculating Nuclear repulsion               ... done (  0.0 sec) ENN=    896.543063685284 Eh

SHARK setup successfully completed in   3.2 seconds

Maximum memory used throughout the entire GTOINT-calculation: 70.1 MB


           ************************************************************
           *        Program running with 4 parallel MPI-processes     *
           *              working on a common directory               *
           ************************************************************
-------------------------------------------------------------------------------
                                 ORCA SCF
-------------------------------------------------------------------------------

------------
SCF SETTINGS
------------
Hamiltonian:
 Density Functional     Method          .... DFT(GTOs)
 Exchange Functional    Exchange        .... PBE
   PBE kappa parameter   XKappa         ....  0.804000
   PBE mue parameter    XMuePBE         ....  0.219520
 Correlation Functional Correlation     .... PBE
   PBE beta parameter  CBetaPBE         ....  0.066725
 LDA part of GGA corr.  LDAOpt          .... PW91-LDA
 Gradients option       PostSCFGGA      .... off
 Hybrid DFT is turned on
   Fraction HF Exchange ScalHFX         ....  0.250000
   Scaling of DF-GGA-X  ScalDFX         ....  0.750000
   Scaling of DF-GGA-C  ScalDFC         ....  1.000000
   Scaling of DF-LDA-C  ScalLDAC        ....  1.000000
   Perturbative correction              ....  0.000000
   Density functional embedding theory  .... OFF
   NL short-range parameter             ....  6.900000
 RI-approximation to the Coulomb term is turned on
   Number of AuxJ basis functions       .... 1455
   RIJ-COSX (HFX calculated with COS-X)).... on


General Settings:
 Integral files         IntName         .... optpbed3-b2plyp-test-387
 Hartree-Fock type      HFTyp           .... RHF
 Total Charge           Charge          ....    0
 Multiplicity           Mult            ....    1
 Number of Electrons    NEL             ....  102
 Basis Dimension        Dim             ....  816
 Nuclear Repulsion      ENuc            ....    896.5430636853 Eh

Convergence Acceleration:
 DIIS                   CNVDIIS         .... on
   Start iteration      DIISMaxIt       ....    12
   Startup error        DIISStart       ....  0.200000
   # of expansion vecs  DIISMaxEq       ....     5
   Bias factor          DIISBfac        ....   1.050
   Max. coefficient     DIISMaxC        ....  10.000
 Trust-Rad. Augm. Hess. CNVTRAH         .... auto
   Auto Start mean grad. ratio tolernc. ....  1.125000
   Auto Start start iteration           ....    20
   Auto Start num. interpolation iter.  ....    10
   Max. Number of Micro iterations      ....    16
   Max. Number of Macro iterations      .... Maxiter - #DIIS iter
   Number of Davidson start vectors     ....     2
   Converg. threshold I  (grad. norm)   ....   1.000e-05
   Converg. threshold II (energy diff.) ....   1.000e-08
   Grad. Scal. Fac. for Micro threshold ....   0.100
   Minimum threshold for Micro iter.    ....   0.010
   NR start threshold (gradient norm)   ....   0.001
   Initial trust radius                 ....   0.400
   Minimum AH scaling param. (alpha)    ....   1.000
   Maximum AH scaling param. (alpha)    .... 1000.000
   Orbital update algorithm             .... Taylor
   White noise on init. David. guess    .... on
   Maximum white noise                  ....   0.010
   Quad. conv. algorithm                .... NR
 SOSCF                  CNVSOSCF        .... on
   Start iteration      SOSCFMaxIt      ....   150
   Startup grad/error   SOSCFStart      ....  0.003300
 Level Shifting         CNVShift        .... on
   Level shift para.    LevelShift      ....    0.2500
   Turn off err/grad.   ShiftErr        ....    0.0010
 Zerner damping         CNVZerner       .... off
 Static damping         CNVDamp         .... on
   Fraction old density DampFac         ....    0.7000
   Max. Damping (<1)    DampMax         ....    0.9800
   Min. Damping (>=0)   DampMin         ....    0.0000
   Turn off err/grad.   DampErr         ....    0.1000
 Fernandez-Rico         CNVRico         .... off

SCF Procedure:
 Maximum # iterations   MaxIter         ....   125
 SCF integral mode      SCFMode         .... Direct
   Integral package                     .... SHARK and LIBINT hybrid scheme
 Reset frequency        DirectResetFreq ....    20
 Integral Threshold     Thresh          ....  2.500e-11 Eh
 Primitive CutOff       TCut            ....  2.500e-12 Eh

Convergence Tolerance:
 Convergence Check Mode ConvCheckMode   .... Total+1el-Energy
 Convergence forced     ConvForced      .... 0
 Energy Change          TolE            ....  1.000e-08 Eh
 1-El. energy change                    ....  1.000e-05 Eh
 Orbital Gradient       TolG            ....  1.000e-05
 Orbital Rotation angle TolX            ....  1.000e-05
 DIIS Error             TolErr          ....  5.000e-07


Diagonalization of the overlap matrix:
Smallest eigenvalue                        ... 6.698e-07
Time for diagonalization                   ...    0.186 sec
Threshold for overlap eigenvalues          ... 1.000e-08
Number of eigenvalues below threshold      ... 0
Time for construction of square roots      ...    0.100 sec
Total time needed                          ...    0.290 sec

Time for model grid setup =    0.472 sec

------------------------------
INITIAL GUESS: MODEL POTENTIAL
------------------------------
Loading Hartree-Fock densities                     ... done
Calculating cut-offs                               ... done
Initializing the effective Hamiltonian             ... done
Setting up the integral package (SHARK)            ... done
Starting the Coulomb interaction                   ... done (   1.4 sec)
Reading the grid                                   ... done
Mapping shells                                     ... done
Starting the XC term evaluation                    ... done (   1.3 sec)
  promolecular density results
     # of electrons  =    101.993080095
     EX              =    -83.909068009
     EC              =     -3.430988115
     EX+EC           =    -87.340056123
Transforming the Hamiltonian                       ... done (   0.1 sec)
Diagonalizing the Hamiltonian                      ... done (   0.2 sec)
Back transforming the eigenvectors                 ... done (   0.0 sec)
Now organizing SCF variables                       ... done
                      ------------------
                      INITIAL GUESS DONE (   3.5 sec)
                      ------------------
-------------------
DFT GRID GENERATION
-------------------

General Integration Accuracy     IntAcc      ... 4.388
Radial Grid Type                 RadialGrid  ... OptM3 with GC (2021)
Angular Grid (max. ang.)         AngularGrid ... 4 (Lebedev-302)
Angular grid pruning method      GridPruning ... 4 (adaptive)
Weight generation scheme         WeightScheme... Becke
Basis function cutoff            BFCut       ... 1.0000e-11
Integration weight cutoff        WCut        ... 1.0000e-14
Angular grids for H and He will be reduced by one unit
Partially contracted basis set               ... off
Rotationally invariant grid construction     ... off

Total number of grid points                  ...   122180
Total number of batches                      ...     1920
Average number of points per batch           ...       63
Average number of grid points per atom       ...     5091
Time for grid setup =    1.426 sec

--------------------
COSX GRID GENERATION
--------------------

GRIDX 1
-------
General Integration Accuracy     IntAcc      ... 3.816
Radial Grid Type                 RadialGrid  ... OptM3 with GC (2021)
Angular Grid (max. ang.)         AngularGrid ... 1 (Lebedev-50)
Angular grid pruning method      GridPruning ... 4 (adaptive)
Weight generation scheme         WeightScheme... Becke
Basis function cutoff            BFCut       ... 1.0000e-11
Integration weight cutoff        WCut        ... 1.0000e-14
Angular grids for H and He will be reduced by one unit
Partially contracted basis set               ... on
Rotationally invariant grid construction     ... off

Total number of grid points                  ...    15552
Total number of batches                      ...      255
Average number of points per batch           ...       60
Average number of grid points per atom       ...      648
UseSFitting                                  ... on

GRIDX 2
-------
General Integration Accuracy     IntAcc      ... 4.020
Radial Grid Type                 RadialGrid  ... OptM3 with GC (2021)
Angular Grid (max. ang.)         AngularGrid ... 2 (Lebedev-110)
Angular grid pruning method      GridPruning ... 4 (adaptive)
Weight generation scheme         WeightScheme... Becke
Basis function cutoff            BFCut       ... 1.0000e-11
Integration weight cutoff        WCut        ... 1.0000e-14
Angular grids for H and He will be reduced by one unit
Partially contracted basis set               ... on
Rotationally invariant grid construction     ... off

Total number of grid points                  ...    37444
Total number of batches                      ...      596
Average number of points per batch           ...       62
Average number of grid points per atom       ...     1560
UseSFitting                                  ... on

GRIDX 3
-------
General Integration Accuracy     IntAcc      ... 4.338
Radial Grid Type                 RadialGrid  ... OptM3 with GC (2021)
Angular Grid (max. ang.)         AngularGrid ... 3 (Lebedev-194)
Angular grid pruning method      GridPruning ... 4 (adaptive)
Weight generation scheme         WeightScheme... Becke
Basis function cutoff            BFCut       ... 1.0000e-11
Integration weight cutoff        WCut        ... 1.0000e-14
Angular grids for H and He will be reduced by one unit
Partially contracted basis set               ... on
Rotationally invariant grid construction     ... off

Total number of grid points                  ...    80868
Total number of batches                      ...     1274
Average number of points per batch           ...       63
Average number of grid points per atom       ...     3370
UseSFitting                                  ... on

Time for X-Grid setup             =    3.084 sec


--------------------
CPCM SOLVATION MODEL
--------------------
CPCM parameters:
  Epsilon                                         ...      35.6880
  Refrac                                          ...       1.3442
  Rsolv                                           ...       1.3000
  Surface type                                    ... GAUSSIAN VDW
  Epsilon function type                           ...         CPCM
Solvent:                                     ... ACETONITRILE
SMD-CDS solvent descriptors:
  Soln                                       ...    1.3442
  Soln25                                     ...    1.3416
  Sola                                       ...    0.0700
  Solb                                       ...    0.3200
  Solg                                       ...   41.2500
  Solc                                       ...    0.0000
  Solh                                       ...    0.0000
Radii:
 Radius for N  used is    3.5716 Bohr (=   1.8900 Ang.)
 Radius for C  used is    3.4960 Bohr (=   1.8500 Ang.)
 Radius for O  used is    4.0969 Bohr (=   2.1680 Ang.)
 Radius for H  used is    2.2677 Bohr (=   1.2000 Ang.)
Calculating surface                               ...        done! (  0.0s)
GEPOL surface points                              ...         1357
GEPOL Volume                                      ...    1437.1430
GEPOL Surface-area                                ...     793.2697
Calculating surface distance matrix               ...        done! (  0.0s)
Performing Cholesky decomposition & store         ...        done! (  0.1s)
Overall time for CPCM initialization              ...                 0.1s
 re-compute Schwartz prescreening matrix in partically contracted basis (1) ...done (   0.170 sec)
--------------
SCF ITERATIONS
--------------
ITER       Energy         Delta-E        Max-DP      RMS-DP      [F,P]     Damp
               ***  Starting incremental Fock matrix formation  ***
  0   -629.9769156058   0.000000000000 0.29533858  0.00164631  0.2621834 0.7000
  1   -630.1180960277  -0.141180421894 0.23655247  0.00124513  0.1252027 0.7000
                               ***Turning on DIIS***
  2   -630.1804009493  -0.062304921577 0.53591179  0.00273974  0.0464760 0.0000
  3   -630.2780529432  -0.097651993938 0.05407064  0.00055092  0.0616662 0.0000
  4   -630.2965749849  -0.018522041730 0.04366866  0.00026683  0.0187335 0.0000
  5   -630.2976348579  -0.001059872970 0.01000877  0.00008901  0.0090975 0.0000
                      *** Initiating the SOSCF procedure ***
                           *** Shutting down DIIS ***
                      *** Re-Reading the Fockian *** 
                      *** Removing any level shift *** 
ITER      Energy       Delta-E        Grad      Rot      Max-DP    RMS-DP
  6   -630.29774241  -0.0001075541  0.000260  0.000260  0.006067  0.000045
               *** Restarting incremental Fock matrix formation ***
  7   -630.29775147  -0.0000090539  0.000134  0.000536  0.032773  0.000309
  8   -630.29775193  -0.0000004657  0.000179  0.000478  0.008713  0.000087
  9   -630.29775379  -0.0000018548  0.000044  0.000103  0.007841  0.000084
 10   -630.29775381  -0.0000000197  0.000037  0.000052  0.003104  0.000021
 11   -630.29775390  -0.0000000969  0.000012  0.000050  0.015376  0.000061
 12   -630.29775393  -0.0000000248  0.000007  0.000015  0.006539  0.000031
                  ***Gradient check signals convergence***
              ***Rediagonalizing the Fockian in SOSCF/NRSCF***

               *****************************************************
               *                     SUCCESS                       *
               *           SCF CONVERGED AFTER  13 CYCLES          *
               *****************************************************

Old exchange energy                            =    -21.385829708 Eh
New exchange energy                            =    -21.385808015 Eh
Exchange energy change after final integration =      0.000021693 Eh
Total energy after final integration           =   -630.297732290 Eh
Final COS-X integration done in                =    70.647 sec

SMD CDS free energy correction energy :                -3.28079     Kcal/mol
Total Energy after SMD CDS correction =              -630.302960557 Eh

----------------
TOTAL SCF ENERGY
----------------

Total Energy       :         -630.30296056 Eh          -17151.41552 eV

Components:
Nuclear Repulsion  :          896.54306369 Eh           24396.17704 eV
Electronic Energy  :        -1526.84602424 Eh          -41547.59256 eV
One Electron Energy:        -2633.21381613 Eh          -71653.39072 eV
Two Electron Energy:         1106.36779188 Eh           30105.79817 eV
Max COSX asymmetry :            0.00004857 Eh               0.00132 eV
CPCM Dielectric    :           -0.02338002 Eh              -0.63620 eV
SMD CDS (Gcds)     :           -0.00522827 Eh              -0.14227 eV

Virial components:
Potential Energy   :        -1257.12642459 Eh          -34208.14912 eV
Kinetic Energy     :          626.82346403 Eh           17056.73360 eV
Virial Ratio       :            2.00555100


DFT components:
N(Alpha)           :       50.999968796241 electrons
N(Beta)            :       50.999968796241 electrons
N(Total)           :      101.999937592482 electrons
E(X)               :      -64.005321206185 Eh       
E(C)               :       -3.436700273350 Eh       
E(XC)              :      -67.442021479535 Eh       
DFET-embed. en.    :        0.000000000000 Eh       
CPCM Solvation Model Properties:
Surface-charge          :           -0.04407823
Charge-correction       :            0.00048335 Eh               0.01315 eV
Free-energy (cav+disp)  :           -0.00522827 Eh              -0.14227 eV

---------------
SCF CONVERGENCE
---------------

  Last Energy change         ...   -5.5159e-08  Tolerance :   1.0000e-08
  Last MAX-Density change    ...    2.8866e-15  Tolerance :   1.0000e-07
  Last RMS-Density change    ...    1.4862e-17  Tolerance :   5.0000e-09
  Last Orbital Gradient      ...    2.2646e-06  Tolerance :   1.0000e-05
  Last Orbital Rotation      ...    7.3260e-06  Tolerance :   1.0000e-05

             **** THE GBW FILE WAS UPDATED (optpbed3-b2plyp-test-387.gbw) ****
             **** DENSITY optpbed3-b2plyp-test-387.scfp WAS UPDATED ****
             **** ENERGY FILE WAS UPDATED (optpbed3-b2plyp-test-387.en.tmp) ****
             **** THE GBW FILE WAS UPDATED (optpbed3-b2plyp-test-387.gbw) ****
             **** DENSITY optpbed3-b2plyp-test-387.scfp WAS UPDATED ****
----------------
ORBITAL ENERGIES
----------------

  NO   OCC          E(Eh)            E(eV) 
   0   2.0000     -19.207431      -522.6608 
   1   2.0000     -14.391616      -391.6158 
   2   2.0000     -10.316564      -280.7280 
   3   2.0000     -10.279705      -279.7250 
   4   2.0000     -10.251469      -278.9567 
   5   2.0000     -10.241317      -278.6804 
   6   2.0000     -10.239395      -278.6281 
   7   2.0000     -10.237376      -278.5732 
   8   2.0000     -10.235630      -278.5257 
   9   2.0000     -10.235220      -278.5145 
  10   2.0000     -10.234778      -278.5025 
  11   2.0000     -10.232672      -278.4452 
  12   2.0000     -10.231212      -278.4054 
  13   2.0000     -10.231117      -278.4028 
  14   2.0000     -10.229394      -278.3560 
  15   2.0000      -1.080932       -29.4136 
  16   2.0000      -0.958766       -26.0893 
  17   2.0000      -0.916124       -24.9290 
  18   2.0000      -0.877685       -23.8830 
  19   2.0000      -0.830227       -22.5916 
  20   2.0000      -0.788864       -21.4661 
  21   2.0000      -0.765414       -20.8280 
  22   2.0000      -0.747453       -20.3392 
  23   2.0000      -0.694484       -18.8979 
  24   2.0000      -0.656101       -17.8534 
  25   2.0000      -0.621023       -16.8989 
  26   2.0000      -0.607192       -16.5225 
  27   2.0000      -0.582154       -15.8412 
  28   2.0000      -0.543028       -14.7766 
  29   2.0000      -0.530750       -14.4424 
  30   2.0000      -0.519631       -14.1399 
  31   2.0000      -0.493791       -13.4367 
  32   2.0000      -0.483259       -13.1501 
  33   2.0000      -0.467663       -12.7258 
  34   2.0000      -0.457738       -12.4557 
  35   2.0000      -0.455296       -12.3892 
  36   2.0000      -0.449300       -12.2261 
  37   2.0000      -0.440870       -11.9967 
  38   2.0000      -0.431936       -11.7536 
  39   2.0000      -0.406852       -11.0710 
  40   2.0000      -0.389185       -10.5903 
  41   2.0000      -0.385749       -10.4968 
  42   2.0000      -0.381821       -10.3899 
  43   2.0000      -0.369316       -10.0496 
  44   2.0000      -0.354066        -9.6346 
  45   2.0000      -0.336850        -9.1662 
  46   2.0000      -0.311128        -8.4662 
  47   2.0000      -0.279711        -7.6113 
  48   2.0000      -0.274157        -7.4602 
  49   2.0000      -0.250812        -6.8249 
  50   2.0000      -0.220960        -6.0126 
  51   0.0000      -0.089165        -2.4263 
  52   0.0000      -0.032316        -0.8794 
  53   0.0000      -0.000773        -0.0210 
  54   0.0000       0.007251         0.1973 
  55   0.0000       0.015974         0.4347 
  56   0.0000       0.017471         0.4754 
  57   0.0000       0.026060         0.7091 
  58   0.0000       0.031531         0.8580 
  59   0.0000       0.035234         0.9588 
  60   0.0000       0.038672         1.0523 
  61   0.0000       0.041261         1.1228 
  62   0.0000       0.053682         1.4608 
  63   0.0000       0.054565         1.4848 
  64   0.0000       0.056259         1.5309 
  65   0.0000       0.058995         1.6053 
  66   0.0000       0.062550         1.7021 
  67   0.0000       0.063952         1.7402 
  68   0.0000       0.081098         2.2068 
  69   0.0000       0.082268         2.2386 
  70   0.0000       0.083133         2.2622 
  71   0.0000       0.085268         2.3203 
  72   0.0000       0.088660         2.4126 
  73   0.0000       0.101796         2.7700 
  74   0.0000       0.104824         2.8524 
  75   0.0000       0.113144         3.0788 
  76   0.0000       0.115422         3.1408 
  77   0.0000       0.119143         3.2420 
  78   0.0000       0.119738         3.2582 
  79   0.0000       0.122854         3.3430 
  80   0.0000       0.125318         3.4101 
  81   0.0000       0.128595         3.4992 
  82   0.0000       0.130061         3.5391 
  83   0.0000       0.143448         3.9034 
  84   0.0000       0.143781         3.9125 
  85   0.0000       0.145904         3.9702 
  86   0.0000       0.146714         3.9923 
  87   0.0000       0.147089         4.0025 
  88   0.0000       0.153318         4.1720 
  89   0.0000       0.154827         4.2131 
  90   0.0000       0.156161         4.2494 
  91   0.0000       0.157963         4.2984 
  92   0.0000       0.162144         4.4122 
  93   0.0000       0.164175         4.4674 
  94   0.0000       0.169403         4.6097 
  95   0.0000       0.173607         4.7241 
  96   0.0000       0.175714         4.7814 
  97   0.0000       0.177065         4.8182 
  98   0.0000       0.182766         4.9733 
  99   0.0000       0.183092         4.9822 
 100   0.0000       0.186729         5.0811 
 101   0.0000       0.193098         5.2545 
 102   0.0000       0.193963         5.2780 
 103   0.0000       0.198113         5.3909 
 104   0.0000       0.199736         5.4351 
 105   0.0000       0.202562         5.5120 
 106   0.0000       0.204719         5.5707 
 107   0.0000       0.206949         5.6314 
 108   0.0000       0.210578         5.7301 
 109   0.0000       0.216693         5.8965 
 110   0.0000       0.217540         5.9196 
 111   0.0000       0.223418         6.0795 
 112   0.0000       0.226061         6.1514 
 113   0.0000       0.230747         6.2790 
 114   0.0000       0.234227         6.3736 
 115   0.0000       0.239144         6.5074 
 116   0.0000       0.241029         6.5587 
 117   0.0000       0.241993         6.5850 
 118   0.0000       0.245519         6.6809 
 119   0.0000       0.249341         6.7849 
 120   0.0000       0.253915         6.9094 
 121   0.0000       0.261144         7.1061 
 122   0.0000       0.263527         7.1709 
 123   0.0000       0.265732         7.2309 
 124   0.0000       0.270431         7.3588 
 125   0.0000       0.274583         7.4718 
 126   0.0000       0.279549         7.6069 
 127   0.0000       0.284288         7.7359 
 128   0.0000       0.289069         7.8660 
 129   0.0000       0.295216         8.0332 
 130   0.0000       0.298774         8.1301 
 131   0.0000       0.300651         8.1811 
 132   0.0000       0.304760         8.2929 
 133   0.0000       0.308507         8.3949 
 134   0.0000       0.309562         8.4236 
 135   0.0000       0.317085         8.6283 
 136   0.0000       0.319975         8.7070 
 137   0.0000       0.321340         8.7441 
 138   0.0000       0.331973         9.0334 
 139   0.0000       0.332717         9.0537 
 140   0.0000       0.334613         9.1053 
 141   0.0000       0.340108         9.2548 
 142   0.0000       0.341284         9.2868 
 143   0.0000       0.346708         9.4344 
 144   0.0000       0.354642         9.6503 
 145   0.0000       0.359770         9.7898 
 146   0.0000       0.363789         9.8992 
 147   0.0000       0.369447        10.0532 
 148   0.0000       0.373722        10.1695 
 149   0.0000       0.377943        10.2844 
 150   0.0000       0.381196        10.3729 
 151   0.0000       0.383523        10.4362 
 152   0.0000       0.388984        10.5848 
 153   0.0000       0.392019        10.6674 
 154   0.0000       0.394265        10.7285 
 155   0.0000       0.399691        10.8762 
 156   0.0000       0.407100        11.0777 
 157   0.0000       0.407643        11.0925 
 158   0.0000       0.411912        11.2087 
 159   0.0000       0.414024        11.2662 
 160   0.0000       0.416973        11.3464 
 161   0.0000       0.419622        11.4185 
 162   0.0000       0.424606        11.5541 
 163   0.0000       0.429799        11.6954 
 164   0.0000       0.431446        11.7403 
 165   0.0000       0.435103        11.8398 
 166   0.0000       0.435906        11.8616 
 167   0.0000       0.438812        11.9407 
 168   0.0000       0.443189        12.0598 
 169   0.0000       0.445522        12.1233 
 170   0.0000       0.449011        12.2182 
 171   0.0000       0.451828        12.2949 
 172   0.0000       0.456913        12.4332 
 173   0.0000       0.463747        12.6192 
 174   0.0000       0.470935        12.8148 
 175   0.0000       0.473594        12.8872 
 176   0.0000       0.477561        12.9951 
 177   0.0000       0.479509        13.0481 
 178   0.0000       0.489369        13.3164 
 179   0.0000       0.492434        13.3998 
 180   0.0000       0.497247        13.5308 
 181   0.0000       0.500587        13.6217 
 182   0.0000       0.503836        13.7101 
 183   0.0000       0.505834        13.7644 
 184   0.0000       0.513749        13.9798 
 185   0.0000       0.517566        14.0837 
 186   0.0000       0.525968        14.3123 
 187   0.0000       0.530438        14.4340 
 188   0.0000       0.532888        14.5006 
 189   0.0000       0.539495        14.6804 
 190   0.0000       0.547487        14.8979 
 191   0.0000       0.549511        14.9530 
 192   0.0000       0.554513        15.0891 
 193   0.0000       0.561111        15.2686 
 194   0.0000       0.563589        15.3360 
 195   0.0000       0.569255        15.4902 
 196   0.0000       0.577599        15.7173 
 197   0.0000       0.592548        16.1240 
 198   0.0000       0.596381        16.2283 
 199   0.0000       0.601307        16.3624 
 200   0.0000       0.617415        16.8007 
 201   0.0000       0.624121        16.9832 
 202   0.0000       0.625586        17.0231 
 203   0.0000       0.630838        17.1660 
 204   0.0000       0.636608        17.3230 
 205   0.0000       0.642440        17.4817 
 206   0.0000       0.647215        17.6116 
 207   0.0000       0.653246        17.7757 
 208   0.0000       0.653961        17.7952 
 209   0.0000       0.665187        18.1007 
 210   0.0000       0.671104        18.2617 
 211   0.0000       0.676317        18.4035 
 212   0.0000       0.678304        18.4576 
 213   0.0000       0.680448        18.5159 
 214   0.0000       0.684576        18.6283 
 215   0.0000       0.687859        18.7176 
 216   0.0000       0.699103        19.0236 
 217   0.0000       0.701018        19.0757 
 218   0.0000       0.705173        19.1887 
 219   0.0000       0.707598        19.2547 
 220   0.0000       0.709947        19.3187 
 221   0.0000       0.714433        19.4407 
 222   0.0000       0.721817        19.6417 
 223   0.0000       0.734281        19.9808 
 224   0.0000       0.736423        20.0391 
 225   0.0000       0.738026        20.0827 
 226   0.0000       0.745803        20.2943 
 227   0.0000       0.751912        20.4606 
 228   0.0000       0.758478        20.6392 
 229   0.0000       0.760660        20.6986 
 230   0.0000       0.765167        20.8212 
 231   0.0000       0.768204        20.9039 
 232   0.0000       0.772571        21.0227 
 233   0.0000       0.775956        21.1148 
 234   0.0000       0.780895        21.2492 
 235   0.0000       0.787107        21.4183 
 236   0.0000       0.790347        21.5064 
 237   0.0000       0.798268        21.7220 
 238   0.0000       0.800062        21.7708 
 239   0.0000       0.810071        22.0432 
 240   0.0000       0.814845        22.1731 
 241   0.0000       0.817063        22.2334 
 242   0.0000       0.820039        22.3144 
 243   0.0000       0.820312        22.3218 
 244   0.0000       0.826973        22.5031 
 245   0.0000       0.832411        22.6510 
 246   0.0000       0.833564        22.6824 
 247   0.0000       0.839131        22.8339 
 248   0.0000       0.843761        22.9599 
 249   0.0000       0.846631        23.0380 
 250   0.0000       0.850106        23.1326 
 251   0.0000       0.857120        23.3234 
 252   0.0000       0.858270        23.3547 
 253   0.0000       0.864309        23.5190 
 254   0.0000       0.865732        23.5578 
 255   0.0000       0.868594        23.6357 
 256   0.0000       0.881105        23.9761 
 257   0.0000       0.883037        24.0287 
 258   0.0000       0.891668        24.2635 
 259   0.0000       0.893436        24.3116 
 260   0.0000       0.902176        24.5494 
 261   0.0000       0.905001        24.6263 
 262   0.0000       0.916756        24.9462 
 263   0.0000       0.920172        25.0392 
 264   0.0000       0.926733        25.2177 
 265   0.0000       0.934343        25.4248 
 266   0.0000       0.945093        25.7173 
 267   0.0000       0.948960        25.8225 
 268   0.0000       0.951402        25.8890 
 269   0.0000       0.955966        26.0132 
 270   0.0000       0.961112        26.1532 
 271   0.0000       0.965496        26.2725 
 272   0.0000       0.967693        26.3323 
 273   0.0000       0.973126        26.4801 
 274   0.0000       0.973289        26.4845 
[...]
   Forming the XC and CPCM contribution:
   Time for densities:            0.107
   Time for XC-Integration:      11.222
   Time for LR-CPCM terms:        5.682
   Time for Sigma-Completion:     0.076
   Time for building 10 sigma-vectors
   Data Preparation Phase         ...     0.00 sec
   Transformed RI Coulomb         ...     0.25 sec
   Transformed RI-exchange        ...    50.18 sec
   (ab|v) reading and digestion   ...    46.81 sec
   Final sigma-completion         ...     0.00 sec
   Done building sigma-vectors             Size of expansion space: 40
   Lowest Energy          :     0.121032815303
   Maximum Energy change  :     0.017939776055 (vector 1)
   Maximum residual norm  :     0.000992382470

                       ****Iteration    2****
              <<< Entering MO-section for Build Sigma(Double) >>>
   Forming the XC and CPCM contribution:
   Time for densities:            0.107
   Time for XC-Integration:      11.356
   Time for LR-CPCM terms:        5.625
   Time for Sigma-Completion:     0.076
   Time for building 10 sigma-vectors
   Data Preparation Phase         ...     0.00 sec
   Transformed RI Coulomb         ...     0.27 sec
   Transformed RI-exchange        ...    49.83 sec
   (ab|v) reading and digestion   ...    45.84 sec
   Final sigma-completion         ...     0.00 sec
   Done building sigma-vectors             Size of expansion space: 50
   Lowest Energy          :     0.120396990574
   Maximum Energy change  :     0.001832485169 (vector 6)
   Maximum residual norm  :     0.000121728523

                       ****Iteration    3****
              <<< Entering MO-section for Build Sigma(Double) >>>
   Forming the XC and CPCM contribution:
   Time for densities:            0.105
   Time for XC-Integration:      11.380
   Time for LR-CPCM terms:        5.630
   Time for Sigma-Completion:     0.076
   Time for building 10 sigma-vectors
   Data Preparation Phase         ...     0.00 sec
   Transformed RI Coulomb         ...     0.25 sec
   Transformed RI-exchange        ...    49.19 sec
   (ab|v) reading and digestion   ...    45.84 sec
   Final sigma-completion         ...     0.00 sec
   Done building sigma-vectors             Size of expansion space: 60
   Lowest Energy          :     0.120380846759
   Maximum Energy change  :     0.000178625127 (vector 3)
   Maximum residual norm  :     0.000016177579

                       ****Iteration    4****
              <<< Entering MO-section for Build Sigma(Double) >>>
   Forming the XC and CPCM contribution:
   Time for densities:            0.105
   Time for XC-Integration:      11.483
   Time for LR-CPCM terms:        5.626
   Time for Sigma-Completion:     0.076
   Time for building 10 sigma-vectors
   Data Preparation Phase         ...     0.00 sec
   Transformed RI Coulomb         ...     0.26 sec
   Transformed RI-exchange        ...    49.20 sec
   (ab|v) reading and digestion   ...    45.80 sec
   Final sigma-completion         ...     0.00 sec
   Done building sigma-vectors             Size of expansion space: 70
   Lowest Energy          :     0.120380071761
   Maximum Energy change  :     0.000029935671 (vector 9)
   Maximum residual norm  :     0.000004128597
   Rebuilding the expansion space

                       ****Iteration    5****
              <<< Entering MO-section for Build Sigma(Double) >>>
   Forming the XC and CPCM contribution:
   Time for densities:            0.210
   Time for XC-Integration:      22.241
   Time for LR-CPCM terms:        9.023
   Time for Sigma-Completion:     0.153
   Time for building 20 sigma-vectors
   Data Preparation Phase         ...     0.01 sec
   Transformed RI Coulomb         ...     0.39 sec
   Transformed RI-exchange        ...   240.15 sec
   (ab|v) reading and digestion   ...   231.89 sec
   Final sigma-completion         ...     0.01 sec
   Done building sigma-vectors             Size of expansion space: 20
   Lowest Energy          :     0.120380043047
   Maximum Energy change  :     0.000004955323 (vector 9)
   Maximum residual norm  :     0.000000438452

      *** CONVERGENCE OF RESIDUAL NORM REACHED ***

Storing the converged CI vectors               ... optpbed3-b2plyp-test-387_job2.cis1

                 *** DAVIDSON DONE ***

Total time for solving the CIS problem:   601.946sec

------------------
DOUBLES CORRECTION (Double precision version)
------------------

The (D) correction will be scaled by  0.2700
Doing v(i,a)*T(i,a) terms (RI)                    ... ok
Doing u(i,j,a,b) terms for state   0              ... ok
Doing u(i,j,a,b) terms for state   1              ... ok
Doing u(i,j,a,b) terms for state   2              ... ok
Doing u(i,j,a,b) terms for state   3              ... ok
Doing u(i,j,a,b) terms for state   4              ... ok
Doing u(i,j,a,b) terms for state   5              ... ok
Doing u(i,j,a,b) terms for state   6              ... ok
Doing u(i,j,a,b) terms for state   7              ... ok
Doing u(i,j,a,b) terms for state   8              ... ok
Doing u(i,j,a,b) terms for state   9              ... ok

Contributions to the (D) correction(s) (in eV)

STATE  Final   Init.   Total   v(ext)   v(int)  v(3)    u
       omega   omega     (D)                             
-----------------------------------------------------------------------------
   0   2.884   3.276  -0.392   0.659   0.975  -0.040  -1.986
   1   3.328   3.869  -0.541   0.689   0.796  -0.030  -1.996
   2   3.638   4.125  -0.488   0.652   0.927  -0.045  -2.022
   3   4.291   4.765  -0.475   0.587   0.942  -0.041  -1.963
   4   4.692   5.185  -0.493   0.554   0.933  -0.066  -1.914
   5   5.140   5.363  -0.222   0.052   0.945  -0.003  -1.215
   6   5.078   5.624  -0.547   0.497   0.949  -0.038  -1.954
   7   5.577   5.860  -0.283   0.083   0.948  -0.005  -1.308
   8   5.643   5.867  -0.223   0.038   0.960  -0.002  -1.221
   9   5.364   5.926  -0.562   0.470   0.910  -0.031  -1.911

(D)-timings
 V(i,a)*T(i,a) terms           ...   104.812 sec
 U(i,j,a,b) 3-internal         ...     3.638 sec
 U(i,j,a,b) 3-external         ...    80.502 sec
 U(i,j,a,b) pair terms         ...    63.279 sec
 Total measured time           ...   562.184 sec

 Time for (ab|v) I/O           ...    33.501 sec


------------------------------------
TD-DFT/TDA EXCITED STATES (SINGLETS)
------------------------------------

the weight of the individual excitations are printed if larger than 1.0e-02

STATE  1:  E=   0.105979 au      2.884 eV    23259.7 cm**-1 <S**2> =   0.000000
    49a ->  51a  :     0.091681 (c=  0.30278914)
    50a ->  51a  :     0.872401 (c= -0.93402397)

STATE  2:  E=   0.122313 au      3.328 eV    26844.5 cm**-1 <S**2> =   0.000000
    47a ->  51a  :     0.900113 (c= -0.94874302)
    47a ->  71a  :     0.010639 (c= -0.10314426)
    47a ->  72a  :     0.013826 (c=  0.11758384)
    47a ->  81a  :     0.016560 (c= -0.12868421)

STATE  3:  E=   0.133691 au      3.638 eV    29341.8 cm**-1 <S**2> =   0.000000
    48a ->  51a  :     0.017873 (c=  0.13368842)
    49a ->  51a  :     0.815435 (c=  0.90301443)
    49a ->  52a  :     0.012236 (c=  0.11061803)
    50a ->  51a  :     0.085194 (c=  0.29188054)
    50a ->  52a  :     0.021033 (c= -0.14502752)

STATE  4:  E=   0.157679 au      4.291 eV    34606.5 cm**-1 <S**2> =   0.000000
    46a ->  51a  :     0.025342 (c=  0.15919039)
    46a ->  52a  :     0.011080 (c= -0.10526381)
    48a ->  51a  :     0.448783 (c= -0.66991287)
    48a ->  52a  :     0.015159 (c= -0.12312201)
    49a ->  51a  :     0.029963 (c=  0.17309749)
    49a ->  52a  :     0.033180 (c= -0.18215411)
    50a ->  52a  :     0.354962 (c=  0.59578714)
    50a ->  57a  :     0.011354 (c= -0.10655730)

STATE  5:  E=   0.172428 au      4.692 eV    37843.5 cm**-1 <S**2> =   0.000000
    48a ->  51a  :     0.367711 (c= -0.60639142)
    49a ->  52a  :     0.021858 (c= -0.14784284)
    50a ->  52a  :     0.522627 (c= -0.72292913)

STATE  6:  E=   0.188905 au      5.140 eV    41459.8 cm**-1 <S**2> =   0.000000
    50a ->  53a  :     0.748945 (c= -0.86541626)
    50a ->  54a  :     0.030564 (c= -0.17482571)
    50a ->  55a  :     0.041794 (c=  0.20443608)
    50a ->  56a  :     0.043574 (c=  0.20874502)
    50a ->  60a  :     0.045084 (c= -0.21232921)

STATE  7:  E=   0.186601 au      5.078 eV    40954.1 cm**-1 <S**2> =   0.000000
    46a ->  51a  :     0.032844 (c=  0.18122928)
    48a ->  52a  :     0.030843 (c= -0.17562294)
    49a ->  51a  :     0.023026 (c= -0.15174416)
    49a ->  52a  :     0.399881 (c=  0.63236110)
    49a ->  57a  :     0.011052 (c=  0.10512673)
    49a ->  66a  :     0.018016 (c= -0.13422419)
    50a ->  51a  :     0.016493 (c= -0.12842501)
    50a ->  56a  :     0.031083 (c=  0.17630464)
    50a ->  57a  :     0.215209 (c= -0.46390663)
    50a ->  58a  :     0.098754 (c= -0.31425228)
    50a ->  59a  :     0.017711 (c= -0.13308327)
    50a ->  64a  :     0.010943 (c=  0.10460978)

STATE  8:  E=   0.204956 au      5.577 eV    44982.6 cm**-1 <S**2> =   0.000000
    46a ->  51a  :     0.037954 (c= -0.19481699)
    50a ->  54a  :     0.196213 (c=  0.44295969)
    50a ->  55a  :     0.536221 (c=  0.73227091)
    50a ->  56a  :     0.019054 (c=  0.13803455)
    50a ->  57a  :     0.028948 (c= -0.17013975)
    50a ->  60a  :     0.077325 (c=  0.27807370)

STATE  9:  E=   0.207391 au      5.643 eV    45517.1 cm**-1 <S**2> =   0.000000
    49a ->  53a  :     0.133748 (c= -0.36571553)
    49a ->  60a  :     0.010655 (c= -0.10322522)
    50a ->  53a  :     0.038905 (c=  0.19724305)
    50a ->  54a  :     0.574593 (c= -0.75801912)
    50a ->  55a  :     0.083667 (c=  0.28925192)
    50a ->  56a  :     0.015969 (c= -0.12636881)
    50a ->  57a  :     0.028945 (c= -0.17013130)
    50a ->  60a  :     0.047011 (c=  0.21682076)

STATE 10:  E=   0.197136 au      5.364 eV    43266.4 cm**-1 <S**2> =   0.000000
    46a ->  51a  :     0.392082 (c= -0.62616463)
    48a ->  51a  :     0.013140 (c=  0.11462863)
    48a ->  52a  :     0.011939 (c=  0.10926565)
    49a ->  52a  :     0.057034 (c= -0.23881785)
    49a ->  57a  :     0.023153 (c= -0.15215985)
    49a ->  58a  :     0.018045 (c= -0.13433018)
    50a ->  52a  :     0.021015 (c=  0.14496431)
    50a ->  55a  :     0.069775 (c= -0.26414983)
    50a ->  56a  :     0.029050 (c=  0.17044109)
    50a ->  57a  :     0.174134 (c= -0.41729317)
    50a ->  58a  :     0.121261 (c= -0.34822547)
    50a ->  60a  :     0.014020 (c= -0.11840683)


-----------------------------
TD-DFT/TDA-EXCITATION SPECTRA
-----------------------------

Center of mass = (  0.0246, -0.5970, -0.0399)
Calculating the Dipole integrals                  ... done
Transforming integrals                            ... done
Calculating the Linear Momentum integrals         ... done
Transforming integrals                            ... done
Calculating angular momentum integrals            ... done
Transforming integrals                            ... done

-----------------------------------------------------------------------------
         ABSORPTION SPECTRUM VIA TRANSITION ELECTRIC DIPOLE MOMENTS
-----------------------------------------------------------------------------
State   Energy    Wavelength  fosc         T2        TX        TY        TZ  
        (cm-1)      (nm)                 (au**2)    (au)      (au)      (au) 
-----------------------------------------------------------------------------
   1   23259.7    429.9   0.060402998   0.85493   0.90184  -0.19929   0.04350
   2   26844.5    372.5   0.000003513   0.00004   0.00046   0.00649  -0.00087
   3   29341.8    340.8   0.105231246   1.18069  -1.06093   0.22548  -0.06540
   4   34606.5    289.0   0.064953046   0.61790  -0.59498   0.51294   0.02805
   5   37843.5    264.2   0.494910950   4.30538   2.06829  -0.01229   0.16560
   6   41459.8    241.2   0.020167155   0.16014   0.31244   0.01107   0.24979
   7   40954.1    244.2   0.378669085   3.04395   1.66880  -0.50324   0.07626
   8   44982.6    222.3   0.026603983   0.19471  -0.42366  -0.08217  -0.09201
   9   45517.1    219.7   0.006287328   0.04547  -0.12355  -0.01732   0.17294
  10   43266.4    231.1   0.249560033   1.89889  -1.33451  -0.29796  -0.17084

-----------------------------------------------------------------------------
         ABSORPTION SPECTRUM VIA TRANSITION VELOCITY DIPOLE MOMENTS
-----------------------------------------------------------------------------
State   Energy    Wavelength   fosc        P2         PX        PY        PZ  
        (cm-1)      (nm)                 (au**2)     (au)      (au)      (au) 
-----------------------------------------------------------------------------
   1   23259.7    429.9   0.000713417   0.00011  -0.01002  -0.00176  -0.00315
   2   26844.5    372.5   0.000001431   0.00000  -0.00049   0.00001   0.00016
   3   29341.8    340.8   0.023452606   0.00470   0.06833  -0.00280   0.00513
   4   34606.5    289.0   0.019431886   0.00460   0.05953  -0.03229   0.00309
   5   37843.5    264.2   0.213504341   0.05522  -0.23272   0.02761  -0.01731
   6   41459.8    241.2   0.015855433   0.00449  -0.03756  -0.00175  -0.05549
   7   40954.1    244.2   0.154710952   0.04330  -0.20422   0.03752  -0.01375
   8   44982.6    222.3   0.007106841   0.00218   0.04610   0.00771  -0.00067
   9   45517.1    219.7   0.005574497   0.00173   0.01649   0.00456  -0.03797
  10   43266.4    231.1   0.093922429   0.02777   0.15674   0.05162   0.02326

-------------------------------------------------------------------
                             CD SPECTRUM
-------------------------------------------------------------------
State  Energy     Wavelength     R         MX        MY        MZ   
       (cm-1)       (nm)     (1e40*cgs)   (au)      (au)      (au)  
-------------------------------------------------------------------
   1   23259.7    429.9      4.89317   0.04980   0.05959  -0.52096
   2   26844.5    372.5     -1.01780   0.01200  -0.33817  -0.03484
   3   29341.8    340.8      2.03001   0.05048   0.08083  -0.60606
   4   34606.5    289.0     -1.97456   0.02150   0.02806  -0.20650
   5   37843.5    264.2    -16.11668  -0.05546  -0.06154   0.48162
   6   41459.8    241.2     27.59132   0.15400   0.10281   0.03711
   7   40954.1    244.2      3.53290   0.00305  -0.00888  -0.02714
   8   44982.6    222.3    -46.83581   0.26225  -0.12147  -0.01934
   9   45517.1    219.7      0.25400  -0.03106  -0.18668  -0.03777
  10   43266.4    231.1     44.76527  -0.08893   0.06224   0.03031

-------------------------------------------------------------------
         CD SPECTRUM VIA TRANSITION VELOCITY DIPOLE MOMENTS        
-------------------------------------------------------------------
State  Energy     Wavelength     R         MX        MY        MZ   
       (cm-1)       (nm)     (1e40*cgs)   (au)      (au)      (au)  
-------------------------------------------------------------------
   1   23259.7    429.9      4.62652   0.04980   0.05959  -0.52096
   2   26844.5    372.5     -0.05028   0.01200  -0.33817  -0.03484
   3   29341.8    340.8      0.39950   0.05048   0.08083  -0.60606
   4   34606.5    289.0     -0.78830   0.02150   0.02806  -0.20650
   5   37843.5    264.2      7.84090  -0.05546  -0.06154   0.48162
   6   41459.8    241.2    -20.02185   0.15400   0.10281   0.03711
   7   40954.1    244.2     -1.47421   0.00305  -0.00888  -0.02714
   8   44982.6    222.3     25.68215   0.26225  -0.12147  -0.01934
   9   45517.1    219.7      0.16060  -0.03106  -0.18668  -0.03777
  10   43266.4    231.1    -23.96453  -0.08893   0.06224   0.03031

Total run time:     1170.921 sec

           *** ORCA-CIS/TD-DFT FINISHED WITHOUT ERROR ***

Maximum memory used throughout the entire CIS-calculation: 611.1 MB

-----------------------
CIS/TD-DFT TOTAL ENERGY
-----------------------

    E(SCF)  =   -629.709506972 Eh
    DE(CIS) =      0.105979103 Eh (Root  1)
    ----------------------------- ---------
    E(tot)  =   -629.603527869 Eh



-------------------------------------------------------------------------------
                          DFT DISPERSION CORRECTION                            
                                                                               
                              DFTD3 V3.1  Rev 1                                
                          USING Becke-Johnson damping                          
-------------------------------------------------------------------------------
The B2PLYP functional is recognized
Active option DFTDOPT                   ...         4   

molecular C6(AA) [au] = 7732.103154 


            DFT-D V3
 parameters
 s6 scaling factor         :     0.6400 
 a1 scaling factor         :     0.3065 
 s8 scaling factor         :     0.9147 
 a2 scaling factor         :     5.0570 
 ad hoc parameters k1-k3   :    16.0000     1.3333    -4.0000 

 Edisp/kcal,au: -16.124646780265  -0.025696257549 
 E6   /kcal   :  -8.893048919 
 E8   /kcal   :  -7.231597861 
 % E8         :  44.848100921 

-------------------------   ----------------
Dispersion correction           -0.025696258
-------------------------   ----------------


-------------------------   --------------------
FINAL SINGLE POINT ENERGY      -629.629224126328
-------------------------   --------------------


                            ***************************************
                            *     ORCA property calculations      *
                            ***************************************


  WARNING: The energy has been calculated at the MP2 level but the densities
           used in the property calculations are still SCF densities
           MP2 response densities have not been calculated 
           use %mp2 Density relaxed end
           or  %mp2 Density unrelaxed end

                                    ---------------------
                                    Active property flags
                                    ---------------------
   (+) Dipole Moment


------------------------------------------------------------------------------
                       ORCA ELECTRIC PROPERTIES CALCULATION
------------------------------------------------------------------------------

Dipole Moment Calculation                       ... on
Quadrupole Moment Calculation                   ... off
Polarizability Calculation                      ... off
GBWName                                         ... optpbed3-b2plyp-test-387_job2.gbw
Electron density                                ... optpbed3-b2plyp-test-387_job2.scfp
The origin for moment calculation is the CENTER OF MASS  = ( 0.024591, -0.597033 -0.039941)

-------------
DIPOLE MOMENT
-------------
                                X             Y             Z
Electronic contribution:      0.32154      -4.44295      -0.57869
Nuclear contribution   :     -0.47277       7.20741       0.42343
                        -----------------------------------------
Total Dipole Moment    :     -0.15123       2.76446      -0.15525
                        -----------------------------------------
Magnitude (a.u.)       :      2.77294
Magnitude (Debye)      :      7.04825



--------------------
Rotational spectrum 
--------------------
 
Rotational constants in cm-1:     0.035464     0.018838     0.012311 
Rotational constants in MHz :  1063.176316   564.756831   369.060617 

 Dipole components along the rotational axes: 
x,y,z [a.u.] :    -0.446715    -2.694758    -0.477403 
x,y,z [Debye]:    -1.135460    -6.849530    -1.213463 

 

Timings for individual modules:

Sum of individual times         ...     1967.153 sec (=  32.786 min)
GTO integral calculation        ...        5.074 sec (=   0.085 min)   0.3 %
SCF iterations                  ...      497.930 sec (=   8.299 min)  25.3 %
MP2 module                      ...      292.377 sec (=   4.873 min)  14.9 %
CIS module                      ...     1171.771 sec (=  19.530 min)  59.6 %



                             ****ORCA TERMINATED NORMALLY****
TOTAL RUN TIME: 0 days 1 hours 49 minutes 29 seconds 670 msec
