
                                 *****************
                                 * O   R   C   A *
                                 *****************

                                            #,                                       
                                            ###                                      
                                            ####                                     
                                            #####                                    
                                            ######                                   
                                           ########,                                 
                                     ,,################,,,,,                         
                               ,,#################################,,                 
                          ,,##########################################,,             
                       ,#########################################, ''#####,          
                    ,#############################################,,   '####,        
                  ,##################################################,,,,####,       
                ,###########''''           ''''###############################       
              ,#####''   ,,,,##########,,,,          '''####'''          '####       
            ,##' ,,,,###########################,,,                        '##       
           ' ,,###''''                  '''############,,,                           
         ,,##''                                '''############,,,,        ,,,,,,###''
      ,#''                                            '''#######################'''  
     '                                                          ''''####''''         
             ,#######,   #######,   ,#######,      ##                                
            ,#'     '#,  ##    ##  ,#'     '#,    #''#        ######   ,####,        
            ##       ##  ##   ,#'  ##            #'  '#       #        #'  '#        
            ##       ##  #######   ##           ,######,      #####,   #    #        
            '#,     ,#'  ##    ##  '#,     ,#' ,#      #,         ##   #,  ,#        
             '#######'   ##     ##  '#######'  #'      '#     #####' # '####'        



                  #######################################################
                  #                        -***-                        #
                  #          Department of theory and spectroscopy      #
                  #    Directorship and core code : Frank Neese         #
                  #        Max Planck Institute fuer Kohlenforschung    #
                  #                Kaiser Wilhelm Platz 1               #
                  #                 D-45470 Muelheim/Ruhr               #
                  #                      Germany                        #
                  #                                                     #
                  #                  All rights reserved                #
                  #                        -***-                        #
                  #######################################################


                         Program Version 5.0.2 -  RELEASE  -


 With contributions from (in alphabetic order):
   Daniel Aravena         : Magnetic Suceptibility
   Michael Atanasov       : Ab Initio Ligand Field Theory (pilot matlab implementation)
   Alexander A. Auer      : GIAO ZORA, VPT2 properties, NMR spectrum
   Ute Becker             : Parallelization
   Giovanni Bistoni       : ED, misc. LED, open-shell LED, HFLD
   Martin Brehm           : Molecular dynamics
   Dmytro Bykov           : SCF Hessian
   Vijay G. Chilkuri      : MRCI spin determinant printing, contributions to CSF-ICE
   Dipayan Datta          : RHF DLPNO-CCSD density
   Achintya Kumar Dutta   : EOM-CC, STEOM-CC
   Dmitry Ganyushin       : Spin-Orbit,Spin-Spin,Magnetic field MRCI
   Miquel Garcia          : C-PCM and meta-GGA Hessian, CC/C-PCM, Gaussian charge scheme
   Yang Guo               : DLPNO-NEVPT2, F12-NEVPT2, CIM, IAO-localization
   Andreas Hansen         : Spin unrestricted coupled pair/coupled cluster methods
   Benjamin Helmich-Paris : MC-RPA, TRAH-SCF, COSX integrals
   Lee Huntington         : MR-EOM, pCC
   Robert Izsak           : Overlap fitted RIJCOSX, COSX-SCS-MP3, EOM
   Marcus Kettner         : VPT2
   Christian Kollmar      : KDIIS, OOCD, Brueckner-CCSD(T), CCSD density, CASPT2, CASPT2-K
   Simone Kossmann        : Meta GGA functionals, TD-DFT gradient, OOMP2, MP2 Hessian
   Martin Krupicka        : Initial AUTO-CI
   Lucas Lang             : DCDCAS
   Marvin Lechner         : AUTO-CI (C++ implementation), FIC-MRCC
   Dagmar Lenk            : GEPOL surface, SMD
   Dimitrios Liakos       : Extrapolation schemes; Compound Job, initial MDCI parallelization
   Dimitrios Manganas     : Further ROCIS development; embedding schemes
   Dimitrios Pantazis     : SARC Basis sets
   Anastasios Papadopoulos: AUTO-CI, single reference methods and gradients
   Taras Petrenko         : DFT Hessian,TD-DFT gradient, ASA, ECA, R-Raman, ABS, FL, XAS/XES, NRVS
   Peter Pinski           : DLPNO-MP2, DLPNO-MP2 Gradient
   Christoph Reimann      : Effective Core Potentials
   Marius Retegan         : Local ZFS, SOC
   Christoph Riplinger    : Optimizer, TS searches, QM/MM, DLPNO-CCSD(T), (RO)-DLPNO pert. Triples
   Tobias Risthaus        : Range-separated hybrids, TD-DFT gradient, RPA, STAB
   Michael Roemelt        : Original ROCIS implementation
   Masaaki Saitow         : Open-shell DLPNO-CCSD energy and density
   Barbara Sandhoefer     : DKH picture change effects
   Avijit Sen             : IP-ROCIS
   Kantharuban Sivalingam : CASSCF convergence, NEVPT2, FIC-MRCI
   Bernardo de Souza      : ESD, SOC TD-DFT
   Georgi Stoychev        : AutoAux, RI-MP2 NMR, DLPNO-MP2 response
   Willem Van den Heuvel  : Paramagnetic NMR
   Boris Wezisla          : Elementary symmetry handling
   Frank Wennmohs         : Technical directorship


 We gratefully acknowledge several colleagues who have allowed us to
 interface, adapt or use parts of their codes:
   Stefan Grimme, W. Hujo, H. Kruse, P. Pracht,  : VdW corrections, initial TS optimization,
                  C. Bannwarth, S. Ehlert          DFT functionals, gCP, sTDA/sTD-DF
   Ed Valeev, F. Pavosevic, A. Kumar             : LibInt (2-el integral package), F12 methods
   Garnet Chan, S. Sharma, J. Yang, R. Olivares  : DMRG
   Ulf Ekstrom                                   : XCFun DFT Library
   Mihaly Kallay                                 : mrcc  (arbitrary order and MRCC methods)
   Jiri Pittner, Ondrej Demel                    : Mk-CCSD
   Frank Weinhold                                : gennbo (NPA and NBO analysis)
   Christopher J. Cramer and Donald G. Truhlar   : smd solvation model
   Lars Goerigk                                  : TD-DFT with DH, B97 family of functionals
   V. Asgeirsson, H. Jonsson                     : NEB implementation
   FAccTs GmbH                                   : IRC, NEB, NEB-TS, DLPNO-Multilevel, CI-OPT
                                                   MM, QMMM, 2- and 3-layer-ONIOM, Crystal-QMMM,
                                                   LR-CPCM, SF, NACMEs, symmetry and pop. for TD-DFT,
                                                   nearIR, NL-DFT gradient (VV10), updates on ESD,
                                                   ML-optimized integration grids
   S Lehtola, MJT Oliveira, MAL Marques          : LibXC Library
   Liviu Ungur et al                             : ANISO software


 Your calculation uses the libint2 library for the computation of 2-el integrals
 For citations please refer to: http://libint.valeyev.net

 Your ORCA version has been built with support for libXC version: 5.1.0
 For citations please refer to: https://tddft.org/programs/libxc/

 This ORCA versions uses:
   CBLAS   interface :  Fast vector & matrix operations
   LAPACKE interface :  Fast linear algebra routines
   SCALAPACK package :  Parallel linear algebra routines
   Shared memory     :  Shared parallel matrices
   BLAS/LAPACK       :  OpenBLAS 0.3.15  USE64BITINT DYNAMIC_ARCH NO_AFFINITY Haswell SINGLE_THREADED
        Core in use  :  Haswell
   Copyright (c) 2011-2014, The OpenBLAS Project


Your calculation utilizes the atom-pairwise dispersion correction
with the Becke-Johnson damping scheme (D3BJ)
Cite in your paper:
S.Grimme, S.Ehrlich, L.Goerigk, J Comput Chem, (2011), 32, 1456–1465 
S.Grimme, J.Antony, S.Ehrlich and H.Krieg, J.Chem.Phys., 132, (2010), 154104 
   

Your calculation utilizes the SMD solvation module
Please cite in your paper:
A.V. Marenich, C.J. Cramer, D.G. Truhlar J. Phys. Chem. B, 113, (2009), 6378 

================================================================================

----- Orbital basis set information -----
Your calculation utilizes the basis: aug-cc-pVTZ 
    H, B-Ne : Obtained from the ccRepo (grant-hill.group.shef.ac.uk/ccrepo) Feb. 2017
              R. A. Kendall, T. H. Dunning, Jr., R. J. Harrison, J. Chem. Phys. 96, 6796 (1992)
         He : Obtained from the ccRepo (grant-hill.group.shef.ac.uk/ccrepo) Feb. 2017
              D. E. Woon, T. H. Dunning, Jr., J. Chem. Phys. 100, 2975 (1994)
  Li-Be, Na : Obtained from the ccRepo (grant-hill.group.shef.ac.uk/ccrepo) Feb. 2017
              B. P. Prascher, D. E. Woon, K. A. Peterson, T. H. Dunning, Jr., A. K. Wilson, Theor. Chem. Acc. 128, 69 (2011)
         Mg : Obtained from the Peterson Research Group Website (tyr0.chem.wsu.edu/~kipeters) Feb. 2017
              B. P. Prascher, D. E. Woon, K. A. Peterson, T. H. Dunning, Jr., A. K. Wilson, Theor. Chem. Acc. 128, 69 (2011)
      Al-Ar : Obtained from the ccRepo (grant-hill.group.shef.ac.uk/ccrepo) Feb. 2017
              D. E. Woon, T. H. Dunning, Jr., J. Chem. Phys. 98, 1358 (1993)
      Sc-Zn : Obtained from the ccRepo (grant-hill.group.shef.ac.uk/ccrepo) Feb. 2017
              N. B. Balabanov, K. A. Peterson, J. Chem. Phys. 123, 064107 (2005)
              N. B. Balabanov, K. A. Peterson, J. Chem. Phys. 125, 074110 (2006)
      Ga-Kr : Obtained from the ccRepo (grant-hill.group.shef.ac.uk/ccrepo) Feb. 2017
              A. K. Wilson, D. E. Woon, K. A. Peterson, T. H. Dunning, Jr., J. Chem. Phys. 110, 7667 (1999)
     Ag, Au : Obtained from the Peterson Research Group Website (tyr0.chem.wsu.edu/~kipeters) Feb. 2017
              K. A. Peterson, C. Puzzarini, Theor. Chem. Acc. 114, 283 (2005)

The basis set includes element-specific modifications.

Your calculation utilizes the basis: cc-pVTZ 
       H, B-Ne : Obtained from the ccRepo (grant-hill.group.shef.ac.uk/ccrepo) Feb. 2017
                 T. H. Dunning, Jr., J. Chem. Phys. 90, 1007 (1989)
            He : Obtained from the ccRepo (grant-hill.group.shef.ac.uk/ccrepo) Feb. 2017
                 D. E. Woon, T. H. Dunning, Jr., J. Chem. Phys. 100, 2975 (1994)
  Li-Be, Na-Mg : Obtained from the ccRepo (grant-hill.group.shef.ac.uk/ccrepo) Feb. 2017
                 B. P. Prascher, D. E. Woon, K. A. Peterson, T. H. Dunning, Jr., A. K. Wilson, Theor. Chem. Acc. 128, 69 (2011)
         Al-Ar : Obtained from the ccRepo (grant-hill.group.shef.ac.uk/ccrepo) Feb. 2017
                 D. E. Woon, T. H. Dunning, Jr., J. Chem. Phys. 98, 1358 (1993)
            Ca : Obtained from the Peterson Research Group Website (tyr0.chem.wsu.edu/~kipeters) Feb. 2017
                 J. Koput, K. A. Peterson, J. Phys. Chem. 106, 9595 (2002)
         Sc-Zn : Obtained from the ccRepo (grant-hill.group.shef.ac.uk/ccrepo) Feb. 2017
                 N. B. Balabanov, K. A. Peterson, J. Chem. Phys. 123, 064107 (2005)
                 N. B. Balabanov, K. A. Peterson, J. Chem. Phys. 125, 074110 (2006)
         Ga-Kr : Obtained from the ccRepo (grant-hill.group.shef.ac.uk/ccrepo) Feb. 2017
                 A. K. Wilson, D. E. Woon, K. A. Peterson, T. H. Dunning, Jr., J. Chem. Phys. 110, 7667 (1999)
             Y : Obtained from the ccRepo (grant-hill.group.shef.ac.uk/ccrepo) Feb. 2017
                 K. A. Peterson, D. Figgen, M. Dolg, H. Stoll, J. Chem. Phys. 126, 124101 (2007)
        Ag, Au : Obtained from the Peterson Research Group Website (tyr0.chem.wsu.edu/~kipeters) Feb. 2017
                 K. A. Peterson, C. Puzzarini, Theor. Chem. Acc. 114, 283 (2005)

----- AuxJ basis set information -----
Your calculation utilizes the auxiliary basis: aug-cc-pVTZ/JK 
  H, B-F, Al-Cl, Ga-Br : Obtained from the TURBOMOLE 7.0 basis set library

The basis set includes element-specific modifications.

Your calculation utilizes the auxiliary basis: cc-pVTZ/JK 
  H, B-F, Al-Cl, Ga-Br : Obtained from the TURBOMOLE 7.0 basis set library

----- AuxC basis set information -----
Your calculation utilizes the auxiliary basis: aug-cc-pVTZ/C 
  H-He, B-F, Al-Ar, Ga-Kr : Obtained from the EMSL Basis Set Exchange (bse.pnl.gov) Feb. 2017
                            F. Weigend, A. Kohn, C. Hattig, J. Chem. Phys. 116, 3175 (2002)
                   Be, Mg : Obtained from the TURBOMOLE 7.0 basis set library
                            C. Haettig, Phys. Chem. Chem. Phys. 7, 59 (2005)
                       Ne : Obtained from the EMSL Basis Set Exchange (bse.pnl.gov) Feb. 2017
                            C. Haettig, Phys. Chem. Chem. Phys. 7, 59 (2005)
                            F. Weigend, A. Kohn, C. Hattig, J. Chem. Phys. 116, 3175 (2002)
                    Sc-Zn : Obtained from the EMSL Basis Set Exchange (bse.pnl.gov) Feb. 2017
                            J. G. Hill, J. A. Platts, J. Chem. Phys. 128, 044104 (2008)

The basis set includes element-specific modifications.

Your calculation utilizes the auxiliary basis: cc-pVTZ/C 
  Obtained from the EMSL Basis Set Exchange (bse.pnl.gov) Feb. 2017
  H-He, B-F, Al-Ar, Ga-Kr : F. Weigend, A. Kohn, C. Hattig, J. Chem. Phys. 116, 3175 (2002)
             Li-Be, Na-Mg : C. Haettig, Phys. Chem. Chem. Phys. 7, 59 (2005)
                       Ne : C. Haettig, Phys. Chem. Chem. Phys. 7, 59 (2005)
                            F. Weigend, A. Kohn, C. Hattig, J. Chem. Phys. 116, 3175 (2002)
                    Sc-Zn : J. G. Hill, J. A. Platts, J. Chem. Phys. 128, 044104 (2008)

================================================================================
                                        WARNINGS
                       Please study these warnings very carefully!
================================================================================


WARNING: Geometry Optimization
  ===> : Switching off AutoStart
         For restart on a previous wavefunction, please use MOREAD

INFO   : the flag for use of the SHARK integral package has been found!



***************************************
The coordinates will be read from file: 
***************************************


Your calculation utilizes the atom-pairwise dispersion correction
with the Becke-Johnson damping scheme (D3BJ)
Cite in your paper:
S.Grimme, S.Ehrlich, L.Goerigk, J Comput Chem, (2011), 32, 1456–1465 
S.Grimme, J.Antony, S.Ehrlich and H.Krieg, J.Chem.Phys., 132, (2010), 154104 
   

Your calculation utilizes the SMD solvation module
Please cite in your paper:
A.V. Marenich, C.J. Cramer, D.G. Truhlar J. Phys. Chem. B, 113, (2009), 6378 

================================================================================

----- Orbital basis set information -----
Your calculation utilizes the basis: aug-cc-pVTZ 
    H, B-Ne : Obtained from the ccRepo (grant-hill.group.shef.ac.uk/ccrepo) Feb. 2017
              R. A. Kendall, T. H. Dunning, Jr., R. J. Harrison, J. Chem. Phys. 96, 6796 (1992)
         He : Obtained from the ccRepo (grant-hill.group.shef.ac.uk/ccrepo) Feb. 2017
              D. E. Woon, T. H. Dunning, Jr., J. Chem. Phys. 100, 2975 (1994)
  Li-Be, Na : Obtained from the ccRepo (grant-hill.group.shef.ac.uk/ccrepo) Feb. 2017
              B. P. Prascher, D. E. Woon, K. A. Peterson, T. H. Dunning, Jr., A. K. Wilson, Theor. Chem. Acc. 128, 69 (2011)
         Mg : Obtained from the Peterson Research Group Website (tyr0.chem.wsu.edu/~kipeters) Feb. 2017
              B. P. Prascher, D. E. Woon, K. A. Peterson, T. H. Dunning, Jr., A. K. Wilson, Theor. Chem. Acc. 128, 69 (2011)
      Al-Ar : Obtained from the ccRepo (grant-hill.group.shef.ac.uk/ccrepo) Feb. 2017
              D. E. Woon, T. H. Dunning, Jr., J. Chem. Phys. 98, 1358 (1993)
      Sc-Zn : Obtained from the ccRepo (grant-hill.group.shef.ac.uk/ccrepo) Feb. 2017
              N. B. Balabanov, K. A. Peterson, J. Chem. Phys. 123, 064107 (2005)
              N. B. Balabanov, K. A. Peterson, J. Chem. Phys. 125, 074110 (2006)
      Ga-Kr : Obtained from the ccRepo (grant-hill.group.shef.ac.uk/ccrepo) Feb. 2017
              A. K. Wilson, D. E. Woon, K. A. Peterson, T. H. Dunning, Jr., J. Chem. Phys. 110, 7667 (1999)
     Ag, Au : Obtained from the Peterson Research Group Website (tyr0.chem.wsu.edu/~kipeters) Feb. 2017
              K. A. Peterson, C. Puzzarini, Theor. Chem. Acc. 114, 283 (2005)

The basis set includes element-specific modifications.

Your calculation utilizes the basis: cc-pVTZ 
       H, B-Ne : Obtained from the ccRepo (grant-hill.group.shef.ac.uk/ccrepo) Feb. 2017
                 T. H. Dunning, Jr., J. Chem. Phys. 90, 1007 (1989)
            He : Obtained from the ccRepo (grant-hill.group.shef.ac.uk/ccrepo) Feb. 2017
                 D. E. Woon, T. H. Dunning, Jr., J. Chem. Phys. 100, 2975 (1994)
  Li-Be, Na-Mg : Obtained from the ccRepo (grant-hill.group.shef.ac.uk/ccrepo) Feb. 2017
                 B. P. Prascher, D. E. Woon, K. A. Peterson, T. H. Dunning, Jr., A. K. Wilson, Theor. Chem. Acc. 128, 69 (2011)
         Al-Ar : Obtained from the ccRepo (grant-hill.group.shef.ac.uk/ccrepo) Feb. 2017
                 D. E. Woon, T. H. Dunning, Jr., J. Chem. Phys. 98, 1358 (1993)
            Ca : Obtained from the Peterson Research Group Website (tyr0.chem.wsu.edu/~kipeters) Feb. 2017
                 J. Koput, K. A. Peterson, J. Phys. Chem. 106, 9595 (2002)
         Sc-Zn : Obtained from the ccRepo (grant-hill.group.shef.ac.uk/ccrepo) Feb. 2017
                 N. B. Balabanov, K. A. Peterson, J. Chem. Phys. 123, 064107 (2005)
                 N. B. Balabanov, K. A. Peterson, J. Chem. Phys. 125, 074110 (2006)
         Ga-Kr : Obtained from the ccRepo (grant-hill.group.shef.ac.uk/ccrepo) Feb. 2017
                 A. K. Wilson, D. E. Woon, K. A. Peterson, T. H. Dunning, Jr., J. Chem. Phys. 110, 7667 (1999)
             Y : Obtained from the ccRepo (grant-hill.group.shef.ac.uk/ccrepo) Feb. 2017
                 K. A. Peterson, D. Figgen, M. Dolg, H. Stoll, J. Chem. Phys. 126, 124101 (2007)
        Ag, Au : Obtained from the Peterson Research Group Website (tyr0.chem.wsu.edu/~kipeters) Feb. 2017
                 K. A. Peterson, C. Puzzarini, Theor. Chem. Acc. 114, 283 (2005)

----- AuxJ basis set information -----
Your calculation utilizes the auxiliary basis: aug-cc-pVTZ/JK 
  H, B-F, Al-Cl, Ga-Br : Obtained from the TURBOMOLE 7.0 basis set library

The basis set includes element-specific modifications.

Your calculation utilizes the auxiliary basis: cc-pVTZ/JK 
  H, B-F, Al-Cl, Ga-Br : Obtained from the TURBOMOLE 7.0 basis set library

----- AuxC basis set information -----
Your calculation utilizes the auxiliary basis: aug-cc-pVTZ/C 
  H-He, B-F, Al-Ar, Ga-Kr : Obtained from the EMSL Basis Set Exchange (bse.pnl.gov) Feb. 2017
                            F. Weigend, A. Kohn, C. Hattig, J. Chem. Phys. 116, 3175 (2002)
                   Be, Mg : Obtained from the TURBOMOLE 7.0 basis set library
                            C. Haettig, Phys. Chem. Chem. Phys. 7, 59 (2005)
                       Ne : Obtained from the EMSL Basis Set Exchange (bse.pnl.gov) Feb. 2017
                            C. Haettig, Phys. Chem. Chem. Phys. 7, 59 (2005)
                            F. Weigend, A. Kohn, C. Hattig, J. Chem. Phys. 116, 3175 (2002)
                    Sc-Zn : Obtained from the EMSL Basis Set Exchange (bse.pnl.gov) Feb. 2017
                            J. G. Hill, J. A. Platts, J. Chem. Phys. 128, 044104 (2008)

The basis set includes element-specific modifications.

Your calculation utilizes the auxiliary basis: cc-pVTZ/C 
  Obtained from the EMSL Basis Set Exchange (bse.pnl.gov) Feb. 2017
  H-He, B-F, Al-Ar, Ga-Kr : F. Weigend, A. Kohn, C. Hattig, J. Chem. Phys. 116, 3175 (2002)
             Li-Be, Na-Mg : C. Haettig, Phys. Chem. Chem. Phys. 7, 59 (2005)
                       Ne : C. Haettig, Phys. Chem. Chem. Phys. 7, 59 (2005)
                            F. Weigend, A. Kohn, C. Hattig, J. Chem. Phys. 116, 3175 (2002)
                    Sc-Zn : J. G. Hill, J. A. Platts, J. Chem. Phys. 128, 044104 (2008)

================================================================================
                                        WARNINGS
                       Please study these warnings very carefully!
================================================================================

INFO   : Checking CIS options ...
  ===> : (D) CORRECTION FOUND - SETTING MODE=3
  ===> : JK MODE FOUND - ACTIVATING RI-MP2 CODE
  ===> : MP2 AND CIS FOUND - CHECKING
WARNING: CIS(D) and MP2 runs must have the same orbital window
  ===> : adjusting orbital windows

WARNING: No MP2 level density has been requested!
         To caclulate MP2 level properties use
         %mp2 Density relaxed end
         or
         %mp2 Density unrelaxed end
         Otherwise for double-hybrid DFT only the energy is correct!

WARNING: The frozen-core approximation is turned on by default for 
         the MP2 part of double-hybrid DFT.

INFO   : the flag for use of the SHARK integral package has been found!

================================================================================
                                       INPUT FILE
================================================================================
NAME = optpbed3-b2plyp-test-55.inp
|  1> ! pbe0 d3bj aug-cc-PVTZ RIJCOSX Opt
|  2> %maxcore 4000
|  3> %basis
|  4>  AuxJ "aug-cc-PVTZ/JK"
|  5>  AuxC "aug-cc-PVTZ/C"
|  6>  newGTO H "cc-PVTZ" end
|  7>  newAuxJGTO H "cc-PVTZ/JK" end
|  8>  newAuxCGTO H "cc-PVTZ/C" end
|  9> end
| 10> %cpcm
| 11>  SMD true
| 12>  SMDsolvent "methanol"
| 13> end
| 14> %pal nprocs 4 end
| 15> * xyz 0 1
| 16> C         -3.71810        3.55470        0.61720
| 17> O         -2.36060        3.91130        0.83210
| 18> C         -1.34790        3.07830        0.68780
| 19> N         -1.31940        1.77700        0.36090
| 20> C          0.01910        1.38620        0.33230
| 21> C          0.42690        0.08830        0.04520
| 22> C          1.85740       -0.24380        0.00450
| 23> C          2.73180        0.46960       -0.81170
| 24> C          4.07320        0.14300       -0.85530
| 25> C          4.58330       -0.89420       -0.08260
| 26> C          6.04360       -1.22380       -0.11340
| 27> C          3.70830       -1.60130        0.73350
| 28> C          2.36340       -1.28760        0.77460
| 29> C         -0.52140       -0.90570       -0.20490
| 30> C         -0.37630       -2.26100       -0.55360
| 31> C         -1.64430       -2.78510       -0.70450
| 32> C         -2.54590       -1.73520       -0.45420
| 33> O         -3.87620       -1.71460       -0.47200
| 34> C         -4.53250       -2.92320       -0.78600
| 35> N         -1.87080       -0.61670       -0.16100
| 36> B         -2.48560        0.76820        0.11500
| 37> F         -3.22750        1.16020       -0.98340
| 38> F         -3.28650        0.69970        1.23940
| 39> C          0.81670        2.50150        0.67440
| 40> C         -0.02840        3.55540        0.89160
| 41> H         -4.27870        4.46990        0.80090
| 42> H         -4.04000        2.77750        1.30900
| 43> H         -3.88120        3.21740       -0.40590
| 44> H          2.34680        1.26580       -1.43110
| 45> H          4.73680        0.70020       -1.50100
| 46> H          6.21500       -2.26000        0.16810
| 47> H          6.45930       -1.05160       -1.10360
| 48> H          6.58200       -0.58890        0.59120
| 49> H          4.08610       -2.40880        1.34440
| 50> H          1.69790       -1.83650        1.42390
| 51> H          0.55470       -2.77590       -0.68550
| 52> H         -1.89760       -3.79280       -0.96680
| 53> H         -5.59690       -2.70220       -0.74030
| 54> H         -4.28910       -3.70600       -0.06120
| 55> H         -4.27190       -3.26550       -1.79190
| 56> H          1.88530        2.49430        0.75650
| 57> H          0.20930        4.56210        1.16790
| 58> *
| 59> 
| 60> 
| 61> $new_job
| 62> ! b2plyp aug-cc-PVTZ RIJCOSX SP
| 63> %maxcore 4000
| 64> %basis
| 65>  AuxJ "aug-cc-PVTZ/JK"
| 66>  AuxC "aug-cc-PVTZ/C"
| 67>  newGTO H "cc-PVTZ" end
| 68>  newAuxJGTO H "cc-PVTZ/JK" end
| 69>  newAuxCGTO H "cc-PVTZ/C" end
| 70> end
| 71> %cpcm
| 72>  SMD true
| 73>  SMDsolvent "methanol"
| 74> end
| 75> %pal nprocs 4 end
| 76> %tddft
| 77>  nroots 10
| 78>  maxdim 7
| 79> end
| 80> * xyzfile 0 1
| 81> 
| 82>                          ****END OF INPUT****
================================================================================


                 $$$$$$$$$$$$$$$$$$$$$$$$$$$$$$$$$$$$$$$$$$$$$$ 
                 $ THERE ARE  2 JOBS TO BE PROCESSED THIS RUN $
                 $$$$$$$$$$$$$$$$$$$$$$$$$$$$$$$$$$$$$$$$$$$$$$ 




                 $$$$$$$$$$$$$$$$  JOB NUMBER  1 $$$$$$$$$$$$$$


                       *****************************
                       * Geometry Optimization Run *
                       *****************************

Geometry optimization settings:
Update method            Update   .... BFGS
Choice of coordinates    CoordSys .... Z-matrix Internals
Initial Hessian          InHess   .... Almoef's Model

Convergence Tolerances:
Energy Change            TolE     ....  5.0000e-06 Eh
Max. Gradient            TolMAXG  ....  3.0000e-04 Eh/bohr
RMS Gradient             TolRMSG  ....  1.0000e-04 Eh/bohr
Max. Displacement        TolMAXD  ....  4.0000e-03 bohr
RMS Displacement         TolRMSD  ....  2.0000e-03 bohr
Strict Convergence                ....  False
------------------------------------------------------------------------------
                        ORCA OPTIMIZATION COORDINATE SETUP
------------------------------------------------------------------------------

The optimization will be done in new redundant internal coordinates
Making redundant internal coordinates   ...  (new redundants) done
Evaluating the initial hessian          ...  (Almloef) done
Evaluating the coordinates              ...  done
Calculating the B-matrix                .... done
Calculating the G-matrix                .... done
Diagonalizing the G-matrix              .... done
Small eigenvalue found = 3.575e-03
Small eigenvalue found = 6.715e-03
Small eigenvalue found = 1.052e-02
Small eigenvalue found = 1.662e-02
Small eigenvalue found = 2.542e-02
The first mode is                       ....  106
The number of degrees of freedom        ....  120

    -----------------------------------------------------------------
                    Redundant Internal Coordinates


    -----------------------------------------------------------------
         Definition                    Initial Value    Approx d2E/dq
    -----------------------------------------------------------------
      1. B(O   1,C   0)                  1.4199         0.501362   
      2. B(C   2,O   1)                  1.3192         0.725842   
      3. B(N   3,C   2)                  1.3420         0.667422   
      4. B(C   4,N   3)                  1.3947         0.550064   
      5. B(C   5,C   4)                  1.3904         0.623830   
      6. B(C   6,C   5)                  1.4691         0.467226   
      7. B(C   7,C   6)                  1.3927         0.618561   
      8. B(C   8,C   7)                  1.3813         0.645145   
      9. B(C   9,C   8)                  1.3903         0.624012   
     10. B(C  10,C   9)                  1.4974         0.421179   
     11. B(C  11,C   9)                  1.3898         0.625181   
     12. B(C  12,C  11)                  1.3816         0.644348   
     13. B(C  12,C   6)                  1.3923         0.619450   
     14. B(C  13,C   5)                  1.3964         0.610338   
     15. B(C  14,C  13)                  1.4069         0.587097   
     16. B(C  15,C  14)                  1.3803         0.647421   
     17. B(C  16,C  15)                  1.4064         0.588372   
     18. B(O  17,C  16)                  1.3306         0.696111   
     19. B(C  18,O  17)                  1.4107         0.518644   
     20. B(N  19,C  16)                  1.3389         0.675046   
     21. B(N  19,C  13)                  1.3807         0.579049   
     22. B(B  20,N  19)                  1.5402         0.373351   
     23. B(B  20,N   3)                  1.5615         0.345251   
     24. B(F  21,B  20)                  1.3822         0.619697   
     25. B(F  22,B  20)                  1.3822         0.619824   
     26. B(C  23,C   4)                  1.4132         0.573784   
     27. B(C  24,C  23)                  1.3682         0.676797   
     28. B(C  24,C   2)                  1.4178         0.564078   
     29. B(H  25,C   0)                  1.0889         0.361616   
     30. B(H  26,C   0)                  1.0891         0.361227   
     31. B(H  27,C   0)                  1.0895         0.360704   
     32. B(H  28,C   7)                  1.0797         0.373946   
     33. B(H  29,C   8)                  1.0806         0.372709   
     34. B(H  30,C  10)                  1.0874         0.363622   
     35. B(H  31,C  10)                  1.0876         0.363239   
     36. B(H  32,C  10)                  1.0906         0.359292   
     37. B(H  33,C  11)                  1.0807         0.372568   
     38. B(H  34,C  12)                  1.0797         0.373974   
     39. B(H  35,C  14)                  1.0720         0.384653   
     40. B(H  36,C  15)                  1.0716         0.385220   
     41. B(H  37,C  18)                  1.0881         0.362674   
     42. B(H  38,C  18)                  1.0942         0.354538   
     43. B(H  39,C  18)                  1.0940         0.354799   
     44. B(H  40,C  23)                  1.0718         0.385037   
     45. B(H  41,C  24)                  1.0706         0.386632   
     46. A(O   1,C   0,H  26)          111.4470         0.338629   
     47. A(H  25,C   0,H  26)          109.9045         0.291174   
     48. A(O   1,C   0,H  27)          111.2834         0.338547   
     49. A(H  25,C   0,H  27)          109.9717         0.291108   
     50. A(H  26,C   0,H  27)          109.3468         0.291059   
     51. A(O   1,C   0,H  25)          104.8091         0.338690   
     52. A(C   0,O   1,C   2)          123.9718         0.424228   
     53. A(N   3,C   2,C  24)          109.9705         0.429617   
     54. A(O   1,C   2,N   3)          130.9369         0.446654   
     55. A(O   1,C   2,C  24)          119.0925         0.436148   
     56. A(C   2,N   3,C   4)          107.2823         0.424897   
     57. A(C   2,N   3,B  20)          130.4625         0.394627   
     58. A(C   4,N   3,B  20)          122.1758         0.381538   
     59. A(N   3,C   4,C   5)          123.1803         0.422545   
     60. A(N   3,C   4,C  23)          108.3945         0.416291   
     61. A(C   5,C   4,C  23)          128.3999         0.428541   
     62. A(C   4,C   5,C   6)          120.1535         0.413115   
     63. A(C   6,C   5,C  13)          119.6955         0.411515   
     64. A(C   4,C   5,C  13)          120.1509         0.433321   
     65. A(C   7,C   6,C  12)          118.6841         0.433815   
     66. A(C   5,C   6,C   7)          120.7822         0.412493   
     67. A(C   5,C   6,C  12)          120.5315         0.412598   
     68. A(C   8,C   7,H  28)          120.1674         0.357578   
     69. A(C   6,C   7,H  28)          119.3437         0.355032   
     70. A(C   6,C   7,C   8)          120.4701         0.437002   
     71. A(C   7,C   8,H  29)          119.5577         0.357377   
     72. A(C   7,C   8,C   9)          121.0071         0.437694   
     73. A(C   9,C   8,H  29)          119.4350         0.355361   
     74. A(C  10,C   9,C  11)          120.9361         0.405747   
     75. A(C   8,C   9,C  11)          118.3528         0.435222   
     76. A(C   8,C   9,C  10)          120.7031         0.405613   
     77. A(H  30,C  10,H  32)          108.0407         0.291182   
     78. A(H  30,C  10,H  31)          109.0458         0.291682   
     79. A(C   9,C  10,H  31)          110.8930         0.331270   
     80. A(C   9,C  10,H  30)          110.9880         0.331328   
     81. A(C   9,C  10,H  32)          109.8780         0.330672   
     82. A(H  31,C  10,H  32)          107.8984         0.291133   
     83. A(C   9,C  11,H  33)          119.4704         0.355451   
     84. A(C   9,C  11,C  12)          120.9837         0.437744   
     85. A(C  12,C  11,H  33)          119.5460         0.357279   
     86. A(C   6,C  12,H  34)          119.3230         0.355123   
     87. A(C   6,C  12,C  11)          120.4990         0.437018   
     88. A(C  11,C  12,H  34)          120.1623         0.357508   
     89. A(C  14,C  13,N  19)          108.0776         0.421841   
     90. A(C   5,C  13,N  19)          120.5991         0.424779   
     91. A(C   5,C  13,C  14)          131.3051         0.428624   
     92. A(C  15,C  14,H  35)          127.0098         0.359515   
     93. A(C  13,C  14,C  15)          107.3444         0.433188   
     94. A(C  13,C  14,H  35)          125.6424         0.353593   
     95. A(C  14,C  15,C  16)          106.6192         0.433357   
     96. A(C  16,C  15,H  36)          126.4433         0.353811   
     97. A(C  14,C  15,H  36)          126.9365         0.359605   
     98. A(O  17,C  16,N  19)          119.6101         0.444196   
     99. A(C  15,C  16,N  19)          109.8381         0.433769   
    100. A(C  15,C  16,O  17)          130.5518         0.436175   
    101. A(C  16,O  17,C  18)          117.0553         0.423627   
    102. A(H  37,C  18,H  39)          109.5840         0.290488   
    103. A(H  37,C  18,H  38)          109.5777         0.290454   
    104. A(H  38,C  18,H  39)          109.4026         0.289456   
    105. A(O  17,C  18,H  38)          111.2218         0.339490   
    106. A(O  17,C  18,H  37)          105.7685         0.340779   
    107. A(O  17,C  18,H  39)          111.2165         0.339531   
    108. A(C  16,N  19,B  20)          126.0947         0.400888   
    109. A(C  13,N  19,B  20)          125.7353         0.390246   
    110. A(C  13,N  19,C  16)          108.1170         0.429698   
    111. A(F  21,B  20,F  22)          110.4564         0.432123   
    112. A(N  19,B  20,F  22)          109.4218         0.396617   
    113. A(N   3,B  20,F  22)          109.6746         0.391217   
    114. A(N  19,B  20,F  21)          109.0784         0.396603   
    115. A(N   3,B  20,F  21)          110.0471         0.391203   
    116. A(N   3,B  20,N  19)          108.1207         0.359931   
    117. A(C   4,C  23,C  24)          107.3208         0.434862   
    118. A(C  24,C  23,H  40)          127.5058         0.362308   
    119. A(C   4,C  23,H  40)          125.1676         0.352282   
    120. A(C   2,C  24,C  23)          107.0262         0.433529   
    121. A(C  23,C  24,H  41)          128.9095         0.362563   
    122. A(C   2,C  24,H  41)          124.0637         0.351513   
    123. D(C   2,O   1,C   0,H  25)   -178.8480         0.019876   
    124. D(C   2,O   1,C   0,H  26)     62.3222         0.019876   
    125. D(C   2,O   1,C   0,H  27)    -60.0228         0.019876   
    126. D(C  24,C   2,O   1,C   0)    178.1676         0.039738   
    127. D(N   3,C   2,O   1,C   0)     -1.7015         0.039738   
    128. D(B  20,N   3,C   2,C  24)    176.1454         0.036526   
    129. D(C   4,N   3,C   2,C  24)     -0.5985         0.036526   
    130. D(C   4,N   3,C   2,O   1)    179.2798         0.036526   
    131. D(B  20,N   3,C   2,O   1)     -3.9763         0.036526   
    132. D(C   5,C   4,N   3,C   2)    179.0893         0.024116   
    133. D(C  23,C   4,N   3,C   2)      0.7829         0.024116   
    134. D(C  23,C   4,N   3,B  20)   -176.2905         0.024116   
    135. D(C   5,C   4,N   3,B  20)      2.0159         0.024116   
    136. D(C   6,C   5,C   4,C  23)     -3.3813         0.026949   
    137. D(C   6,C   5,C   4,N   3)    178.6695         0.026949   
    138. D(C  13,C   5,C   4,N   3)     -1.3730         0.026949   
    139. D(C  13,C   5,C   4,C  23)    176.5762         0.026949   
    140. D(C  12,C   6,C   5,C  13)    -54.0330         0.014866   
    141. D(C  12,C   6,C   5,C   4)    125.9247         0.014866   
    142. D(C   7,C   6,C   5,C  13)    125.4182         0.014866   
    143. D(C   7,C   6,C   5,C   4)    -54.6240         0.014866   
    144. D(H  28,C   7,C   6,C   5)     -0.9083         0.026469   
    145. D(C   8,C   7,C   6,C  12)      0.1270         0.026469   
    146. D(C   8,C   7,C   6,C   5)   -179.3343         0.026469   
    147. D(H  28,C   7,C   6,C  12)    178.5530         0.026469   
    148. D(H  29,C   8,C   7,H  28)      1.0003         0.028949   
    149. D(H  29,C   8,C   7,C   6)    179.4133         0.028949   
    150. D(C   9,C   8,C   7,H  28)   -178.8745         0.028949   
    151. D(C   9,C   8,C   7,C   6)     -0.4614         0.028949   
    152. D(C  10,C   9,C   8,H  29)      1.4198         0.026966   
    153. D(C  10,C   9,C   8,C   7)   -178.7053         0.026966   
    154. D(C  11,C   9,C   8,H  29)   -179.6033         0.026966   
    155. D(C  11,C   9,C   8,C   7)      0.2716         0.026966   
    156. D(H  32,C  10,C   9,C   8)     85.1959         0.013115   
    157. D(H  31,C  10,C   9,C  11)    147.0483         0.013115   
    158. D(H  31,C  10,C   9,C   8)    -34.0014         0.013115   
    159. D(H  30,C  10,C   9,C  11)     25.6793         0.013115   
    160. D(H  32,C  10,C   9,C  11)    -93.7545         0.013115   
    161. D(H  30,C  10,C   9,C   8)   -155.3704         0.013115   
    162. D(H  33,C  11,C   9,C  10)     -0.8099         0.027074   
    163. D(H  33,C  11,C   9,C   8)   -179.7843         0.027074   
    164. D(C  12,C  11,C   9,C  10)    179.2239         0.027074   
    165. D(C  12,C  11,C   9,C   8)      0.2494         0.027074   
    166. D(H  34,C  12,C  11,H  33)      0.9011         0.028873   
    167. D(H  34,C  12,C  11,C   9)   -179.1327         0.028873   
    168. D(C   6,C  12,C  11,H  33)    179.4498         0.028873   
    169. D(C   6,C  12,C  11,C   9)     -0.5840         0.028873   
    170. D(H  34,C  12,C   6,C   7)    178.9504         0.026549   
    171. D(H  34,C  12,C   6,C   5)     -1.5870         0.026549   
    172. D(C  11,C  12,C   6,C   5)    179.8522         0.026549   
    173. D(C  11,C  12,C   6,C   7)      0.3896         0.026549   
    174. D(N  19,C  13,C   5,C   6)    179.4809         0.025729   
    175. D(N  19,C  13,C   5,C   4)     -0.4768         0.025729   
    176. D(C  14,C  13,C   5,C   6)     -2.2709         0.025729   
    177. D(C  14,C  13,C   5,C   4)    177.7714         0.025729   
    178. D(H  35,C  14,C  13,N  19)    178.7491         0.023709   
    179. D(H  35,C  14,C  13,C   5)      0.3352         0.023709   
    180. D(C  15,C  14,C  13,N  19)     -0.6114         0.023709   
    181. D(C  15,C  14,C  13,C   5)   -179.0253         0.023709   
    182. D(H  36,C  15,C  14,H  35)      0.7380         0.029168   
    183. D(H  36,C  15,C  14,C  13)   -179.9128         0.029168   
    184. D(C  16,C  15,C  14,H  35)   -178.9271         0.029168   
    185. D(C  16,C  15,C  14,C  13)      0.4221         0.029168   
    186. D(N  19,C  16,C  15,H  36)   -179.7484         0.023817   
    187. D(N  19,C  16,C  15,C  14)     -0.0811         0.023817   
    188. D(O  17,C  16,C  15,H  36)      0.1743         0.023817   
    189. D(O  17,C  16,C  15,C  14)    179.8415         0.023817   
    190. D(C  18,O  17,C  16,N  19)   -179.9313         0.036249   
    191. D(C  18,O  17,C  16,C  15)      0.1524         0.036249   
    192. D(H  39,C  18,O  17,C  16)    -61.5658         0.021322   
    193. D(H  38,C  18,O  17,C  16)     60.6445         0.021322   
    194. D(H  37,C  18,O  17,C  16)    179.5370         0.021322   
    195. D(B  20,N  19,C  16,O  17)     -2.7673         0.037444   
    196. D(B  20,N  19,C  16,C  15)    177.1651         0.037444   
    197. D(C  13,N  19,C  16,O  17)    179.7659         0.037444   
    198. D(C  13,N  19,C  16,C  15)     -0.3017         0.037444   
    199. D(B  20,N  19,C  13,C  14)   -176.9147         0.026887   
    200. D(B  20,N  19,C  13,C   5)      1.7011         0.026887   
    201. D(C  16,N  19,C  13,C  14)      0.5636         0.026887   
    202. D(C  16,N  19,C  13,C   5)    179.1793         0.026887   
    203. D(F  22,B  20,N  19,C  16)     62.5479         0.009973   
    204. D(F  21,B  20,N  19,C  16)    -58.3871         0.009973   
    205. D(F  21,B  20,N  19,C  13)    118.6464         0.009973   
    206. D(N   3,B  20,N  19,C  16)   -178.0455         0.009973   
    207. D(N   3,B  20,N  19,C  13)     -1.0119         0.009973   
    208. D(F  22,B  20,N   3,C   4)    118.4443         0.008651   
    209. D(F  22,B  20,N   3,C   2)    -57.8818         0.008651   
    210. D(F  21,B  20,N   3,C   4)   -119.8488         0.008651   
    211. D(F  21,B  20,N   3,C   2)     63.8250         0.008651   
    212. D(F  22,B  20,N  19,C  13)   -120.4186         0.009973   
    213. D(N  19,B  20,N   3,C   4)     -0.8026         0.008651   
    214. D(N  19,B  20,N   3,C   2)   -177.1287         0.008651   
    215. D(H  40,C  23,C   4,C   5)      0.3108         0.022597   
    216. D(H  40,C  23,C   4,N   3)    178.5020         0.022597   
    217. D(C  24,C  23,C   4,C   5)   -178.8633         0.022597   
    218. D(C  24,C  23,C   4,N   3)     -0.6720         0.022597   
    219. D(H  41,C  24,C  23,H  40)      0.8841         0.032085   
    220. D(H  41,C  24,C  23,C   4)   -179.9670         0.032085   
    221. D(C   2,C  24,C  23,H  40)   -178.8449         0.032085   
    222. D(C   2,C  24,C  23,C   4)      0.3040         0.032085   
    223. D(H  41,C  24,C   2,N   3)   -179.5617         0.021808   
    224. D(H  41,C  24,C   2,O   1)      0.5435         0.021808   
    225. D(C  23,C  24,C   2,N   3)      0.1838         0.021808   
    226. D(C  23,C  24,C   2,O   1)   -179.7110         0.021808   
    -----------------------------------------------------------------

Number of atoms                         .... 42
Number of degrees of freedom            .... 226

         *************************************************************
         *                GEOMETRY OPTIMIZATION CYCLE   1            *
         *************************************************************
---------------------------------
CARTESIAN COORDINATES (ANGSTROEM)
---------------------------------
  C     -3.718100    3.554700    0.617200
  O     -2.360600    3.911300    0.832100
  C     -1.347900    3.078300    0.687800
  N     -1.319400    1.777000    0.360900
  C      0.019100    1.386200    0.332300
  C      0.426900    0.088300    0.045200
  C      1.857400   -0.243800    0.004500
  C      2.731800    0.469600   -0.811700
  C      4.073200    0.143000   -0.855300
  C      4.583300   -0.894200   -0.082600
  C      6.043600   -1.223800   -0.113400
  C      3.708300   -1.601300    0.733500
  C      2.363400   -1.287600    0.774600
  C     -0.521400   -0.905700   -0.204900
  C     -0.376300   -2.261000   -0.553600
  C     -1.644300   -2.785100   -0.704500
  C     -2.545900   -1.735200   -0.454200
  O     -3.876200   -1.714600   -0.472000
  C     -4.532500   -2.923200   -0.786000
  N     -1.870800   -0.616700   -0.161000
  B     -2.485600    0.768200    0.115000
  F     -3.227500    1.160200   -0.983400
  F     -3.286500    0.699700    1.239400
  C      0.816700    2.501500    0.674400
  C     -0.028400    3.555400    0.891600
  H     -4.278700    4.469900    0.800900
  H     -4.040000    2.777500    1.309000
  H     -3.881200    3.217400   -0.405900
  H      2.346800    1.265800   -1.431100
  H      4.736800    0.700200   -1.501000
  H      6.215000   -2.260000    0.168100
  H      6.459300   -1.051600   -1.103600
  H      6.582000   -0.588900    0.591200
  H      4.086100   -2.408800    1.344400
  H      1.697900   -1.836500    1.423900
  H      0.554700   -2.775900   -0.685500
  H     -1.897600   -3.792800   -0.966800
  H     -5.596900   -2.702200   -0.740300
  H     -4.289100   -3.706000   -0.061200
  H     -4.271900   -3.265500   -1.791900
  H      1.885300    2.494300    0.756500
  H      0.209300    4.562100    1.167900

----------------------------
CARTESIAN COORDINATES (A.U.)
----------------------------
  NO LB      ZA    FRAG     MASS         X           Y           Z
   0 C     6.0000    0    12.011   -7.026191    6.717409    1.166339
   1 O     8.0000    0    15.999   -4.460888    7.391286    1.572441
   2 C     6.0000    0    12.011   -2.547162    5.817144    1.299754
   3 N     7.0000    0    14.007   -2.493305    3.358043    0.682002
   4 C     6.0000    0    12.011    0.036094    2.619538    0.627956
   5 C     6.0000    0    12.011    0.806724    0.166863    0.085416
   6 C     6.0000    0    12.011    3.509977   -0.460715    0.008504
   7 C     6.0000    0    12.011    5.162354    0.887415   -1.533891
   8 C     6.0000    0    12.011    7.697232    0.270231   -1.616283
   9 C     6.0000    0    12.011    8.661182   -1.689793   -0.156091
  10 C     6.0000    0    12.011   11.420749   -2.312647   -0.214295
  11 C     6.0000    0    12.011    7.007671   -3.026018    1.386114
  12 C     6.0000    0    12.011    4.466179   -2.433211    1.463782
  13 C     6.0000    0    12.011   -0.985303   -1.711525   -0.387205
  14 C     6.0000    0    12.011   -0.711104   -4.272671   -1.046152
  15 C     6.0000    0    12.011   -3.107277   -5.263076   -1.331312
  16 C     6.0000    0    12.011   -4.811054   -3.279053   -0.858314
  17 O     8.0000    0    15.999   -7.324956   -3.240124   -0.891951
  18 C     6.0000    0    12.011   -8.565184   -5.524047   -1.485325
  19 N     7.0000    0    14.007   -3.535300   -1.165394   -0.304246
  20 B     5.0000    0    10.810   -4.697103    1.451688    0.217319
  21 F     9.0000    0    18.998   -6.099091    2.192460   -1.858357
  22 F     9.0000    0    18.998   -6.210585    1.322241    2.342127
  23 C     6.0000    0    12.011    1.543339    4.727150    1.274431
  24 C     6.0000    0    12.011   -0.053668    6.718732    1.684880
  25 H     1.0000    0     1.008   -8.085571    8.446887    1.513482
  26 H     1.0000    0     1.008   -7.634494    5.248714    2.473652
  27 H     1.0000    0     1.008   -7.334405    6.080005   -0.767040
  28 H     1.0000    0     1.008    4.434809    2.392015   -2.704387
  29 H     1.0000    0     1.008    8.951255    1.323186   -2.836479
  30 H     1.0000    0     1.008   11.744648   -4.270781    0.317663
  31 H     1.0000    0     1.008   12.206308   -1.987236   -2.085502
  32 H     1.0000    0     1.008   12.438177   -1.112860    1.117206
  33 H     1.0000    0     1.008    7.721610   -4.551972    2.540548
  34 H     1.0000    0     1.008    3.208566   -3.470482    2.690781
  35 H     1.0000    0     1.008    1.048231   -5.245691   -1.295407
  36 H     1.0000    0     1.008   -3.585944   -7.167353   -1.826987
  37 H     1.0000    0     1.008  -10.576608   -5.106418   -1.398964
  38 H     1.0000    0     1.008   -8.105224   -7.003325   -0.115651
  39 H     1.0000    0     1.008   -8.072721   -6.170901   -3.386200
  40 H     1.0000    0     1.008    3.562701    4.713544    1.429578
  41 H     1.0000    0     1.008    0.395520    8.621120    2.207011

--------------------------------
INTERNAL COORDINATES (ANGSTROEM)
--------------------------------
 C      0   0   0     0.000000000000     0.00000000     0.00000000
 O      1   0   0     1.419912609987     0.00000000     0.00000000
 C      2   1   0     1.319193988767   123.97180456     0.00000000
 N      3   2   1     1.342034854242   130.93685655   358.29846512
 C      4   3   2     1.394677328273   107.28225189   179.27981433
 C      5   4   3     1.390421396556   123.18029886   179.08933920
 C      6   5   4     1.469107603275   120.15351570   178.66950106
 C      7   6   5     1.392730182053   120.78215593   305.37595122
 C      8   7   6     1.381275671255   120.47013911   180.66570901
 C      9   8   7     1.390342094594   121.00714521   359.53855427
 C     10   9   8     1.497351291448   120.70310979   181.29470680
 C     10   9   8     1.389832587041   118.35275561     0.27161109
 C     12  10   9     1.381612431183   120.98366451     0.24943919
 C      6   5   4     1.396373481559   120.15092644   358.62701299
 C     14   6   5     1.406941288754   131.30505566   177.77140727
 C     15  14   6     1.380317217164   107.34435563   180.97470538
 C     16  15  14     1.406350831052   106.61924267     0.42209673
 O     17  16  15     1.330578554614   130.55175259   179.84154715
 C     18  17  16     1.410687651466   117.05530051     0.15241027
 N     17  16  15     1.338943053307   109.83814654   359.91889693
 B     20  17  16     1.540163319262   126.09473760   177.16510241
 F     21  20  17     1.382230867113   109.07838388   301.61288201
 F     21  20  17     1.382175249380   109.42184649    62.54788477
 C      5   4   3     1.413185147106   108.39448072     0.78294266
 C     24   5   4     1.368237939834   107.32082156   359.32799084
 H      1   2   3     1.088856781216   104.80908817   181.15199009
 H      1   2   3     1.089149526006   111.44696409    62.32224895
 H      1   2   3     1.089544175332   111.28342788   299.97723424
 H      8   7   6     1.079729503163   119.34369124   359.09174894
 H      9   8   7     1.080631893847   119.55769186   179.41332397
 H     11  10   9     1.087350288546   110.98799955   204.62962447
 H     11  10   9     1.087637517742   110.89295806   325.99860659
 H     11  10   9     1.090611631150   109.87803176    85.19585148
 H     12  10   9     1.080734888860   119.47035857   180.21567834
 H     13  12  10     1.079709196960   120.16234183   180.86729409
 H     15  14   6     1.072045064351   125.64238145     0.33520937
 H     16  15  14     1.071644283333   126.93653028   180.08723114
 H     19  18  17     1.088061050677   105.76852024   179.53699063
 H     19  18  17     1.094236921329   111.22182597    60.64445070
 H     19  18  17     1.094036772691   111.21646338   298.43419814
 H     24   5   4     1.071773394893   125.16755527   178.50204712
 H     25  24   5     1.070648340960   128.90950336   180.03297727

---------------------------
INTERNAL COORDINATES (A.U.)
---------------------------
 C      0   0   0     0.000000000000     0.00000000     0.00000000
 O      1   0   0     2.683245966977     0.00000000     0.00000000
 C      2   1   0     2.492915356286   123.97180456     0.00000000
 N      3   2   1     2.536078336694   130.93685655   358.29846512
 C      4   3   2     2.635558195626   107.28225189   179.27981433
 C      5   4   3     2.627515650235   123.18029886   179.08933920
 C      6   5   4     2.776211031451   120.15351570   178.66950106
 C      7   6   5     2.631878622526   120.78215593   305.37595122
 C      8   7   6     2.610232734120   120.47013911   180.66570901
 C      9   8   7     2.627365791245   121.00714521   359.53855427
 C     10   9   8     2.829583867109   120.70310979   181.29470680
 C     10   9   8     2.626402961506   118.35275561     0.27161109
 C     12  10   9     2.610869118157   120.98366451     0.24943919
 C      6   5   4     2.638763460816   120.15092644   358.62701299
 C     14   6   5     2.658733722251   131.30505566   177.77140727
 C     15  14   6     2.608421518377   107.34435563   180.97470538
 C     16  15  14     2.657617918900   106.61924267     0.42209673
 O     17  16  15     2.514429067890   130.55175259   179.84154715
 C     18  17  16     2.665813321776   117.05530051     0.15241027
 N     17  16  15     2.530235679667   109.83814654   359.91889693
 B     20  17  16     2.910486874916   126.09473760   177.16510241
 F     21  20  17     2.612037792696   109.07838388   301.61288201
 F     21  20  17     2.611932690413   109.42184649    62.54788477
 C      5   4   3     2.670532904555   108.39448072     0.78294266
 C     24   5   4     2.585594992326   107.32082156   359.32799084
 H      1   2   3     2.057641115561   104.80908817   181.15199009
 H      1   2   3     2.058194323042   111.44696409    62.32224895
 H      1   2   3     2.058940102187   111.28342788   299.97723424
 H      8   7   6     2.040393059692   119.34369124   359.09174894
 H      9   8   7     2.042098330952   119.55769186   179.41332397
 H     11  10   9     2.054794256991   110.98799955   204.62962447
 H     11  10   9     2.055337041510   110.89295806   325.99860659
 H     11  10   9     2.060957301343   109.87803176    85.19585148
 H     12  10   9     2.042292963320   119.47035857   180.21567834
 H     13  12  10     2.040354686530   120.16234183   180.86729409
 H     15  14   6     2.025871574846   125.64238145     0.33520937
 H     16  15  14     2.025114208481   126.93653028   180.08723114
 H     19  18  17     2.056137402766   105.76852024   179.53699063
 H     19  18  17     2.067808106937   111.22182597    60.64445070
 H     19  18  17     2.067429880825   111.21646338   298.43419814
 H     24   5   4     2.025358193970   125.16755527   178.50204712
 H     25  24   5     2.023232150151   128.90950336   180.03297727

---------------------
BASIS SET INFORMATION
---------------------
There are 6 groups of distinct atoms

 Group   1 Type C   : 19s6p3d2f contracted to 5s4p3d2f pattern {88111/3111/111/11}
 Group   2 Type O   : 19s6p3d2f contracted to 5s4p3d2f pattern {88111/3111/111/11}
 Group   3 Type N   : 19s6p3d2f contracted to 5s4p3d2f pattern {88111/3111/111/11}
 Group   4 Type B   : 19s6p3d2f contracted to 5s4p3d2f pattern {88111/3111/111/11}
 Group   5 Type F   : 19s6p3d2f contracted to 5s4p3d2f pattern {88111/3111/111/11}
 Group   6 Type H   : 5s2p1d contracted to 3s2p1d pattern {311/11/1}

Atom   0C    basis set group =>   1
Atom   1O    basis set group =>   2
Atom   2C    basis set group =>   1
Atom   3N    basis set group =>   3
Atom   4C    basis set group =>   1
Atom   5C    basis set group =>   1
Atom   6C    basis set group =>   1
Atom   7C    basis set group =>   1
Atom   8C    basis set group =>   1
Atom   9C    basis set group =>   1
Atom  10C    basis set group =>   1
Atom  11C    basis set group =>   1
Atom  12C    basis set group =>   1
Atom  13C    basis set group =>   1
Atom  14C    basis set group =>   1
Atom  15C    basis set group =>   1
Atom  16C    basis set group =>   1
Atom  17O    basis set group =>   2
Atom  18C    basis set group =>   1
Atom  19N    basis set group =>   3
Atom  20B    basis set group =>   4
Atom  21F    basis set group =>   5
Atom  22F    basis set group =>   5
Atom  23C    basis set group =>   1
Atom  24C    basis set group =>   1
Atom  25H    basis set group =>   6
Atom  26H    basis set group =>   6
Atom  27H    basis set group =>   6
Atom  28H    basis set group =>   6
Atom  29H    basis set group =>   6
Atom  30H    basis set group =>   6
Atom  31H    basis set group =>   6
Atom  32H    basis set group =>   6
Atom  33H    basis set group =>   6
Atom  34H    basis set group =>   6
Atom  35H    basis set group =>   6
Atom  36H    basis set group =>   6
Atom  37H    basis set group =>   6
Atom  38H    basis set group =>   6
Atom  39H    basis set group =>   6
Atom  40H    basis set group =>   6
Atom  41H    basis set group =>   6
---------------------------------
AUXILIARY/J BASIS SET INFORMATION
---------------------------------
There are 6 groups of distinct atoms

 Group   1 Type C   : 10s7p5d2f1g contracted to 10s7p5d2f1g pattern {1111111111/1111111/11111/11/1}
 Group   2 Type O   : 10s7p5d2f1g contracted to 10s7p5d2f1g pattern {1111111111/1111111/11111/11/1}
 Group   3 Type N   : 10s7p5d2f1g contracted to 10s7p5d2f1g pattern {1111111111/1111111/11111/11/1}
 Group   4 Type B   : 10s7p5d2f1g contracted to 10s7p5d2f1g pattern {1111111111/1111111/11111/11/1}
 Group   5 Type F   : 10s7p5d2f1g contracted to 10s7p5d2f1g pattern {1111111111/1111111/11111/11/1}
 Group   6 Type H   : 4s3p2d1f contracted to 4s3p2d1f pattern {1111/111/11/1}

Atom   0C    basis set group =>   1
Atom   1O    basis set group =>   2
Atom   2C    basis set group =>   1
Atom   3N    basis set group =>   3
Atom   4C    basis set group =>   1
Atom   5C    basis set group =>   1
Atom   6C    basis set group =>   1
Atom   7C    basis set group =>   1
Atom   8C    basis set group =>   1
Atom   9C    basis set group =>   1
Atom  10C    basis set group =>   1
Atom  11C    basis set group =>   1
Atom  12C    basis set group =>   1
Atom  13C    basis set group =>   1
Atom  14C    basis set group =>   1
Atom  15C    basis set group =>   1
Atom  16C    basis set group =>   1
Atom  17O    basis set group =>   2
Atom  18C    basis set group =>   1
Atom  19N    basis set group =>   3
Atom  20B    basis set group =>   4
Atom  21F    basis set group =>   5
Atom  22F    basis set group =>   5
Atom  23C    basis set group =>   1
Atom  24C    basis set group =>   1
Atom  25H    basis set group =>   6
Atom  26H    basis set group =>   6
Atom  27H    basis set group =>   6
Atom  28H    basis set group =>   6
Atom  29H    basis set group =>   6
Atom  30H    basis set group =>   6
Atom  31H    basis set group =>   6
Atom  32H    basis set group =>   6
Atom  33H    basis set group =>   6
Atom  34H    basis set group =>   6
Atom  35H    basis set group =>   6
Atom  36H    basis set group =>   6
Atom  37H    basis set group =>   6
Atom  38H    basis set group =>   6
Atom  39H    basis set group =>   6
Atom  40H    basis set group =>   6
Atom  41H    basis set group =>   6
---------------------------------
AUXILIARY/C BASIS SET INFORMATION
---------------------------------
There are 6 groups of distinct atoms

 Group   1 Type C   : 9s7p6d4f2g contracted to 9s7p6d4f2g pattern {111111111/1111111/111111/1111/11}
 Group   2 Type O   : 9s7p6d4f2g contracted to 9s7p6d4f2g pattern {111111111/1111111/111111/1111/11}
 Group   3 Type N   : 9s7p6d4f2g contracted to 9s7p6d4f2g pattern {111111111/1111111/111111/1111/11}
 Group   4 Type B   : 9s7p6d4f2g contracted to 9s7p6d4f2g pattern {111111111/1111111/111111/1111/11}
 Group   5 Type F   : 9s7p6d4f2g contracted to 9s7p6d4f2g pattern {111111111/1111111/111111/1111/11}
 Group   6 Type H   : 4s3p2d1f contracted to 4s3p2d1f pattern {1111/111/11/1}

Atom   0C    basis set group =>   1
Atom   1O    basis set group =>   2
Atom   2C    basis set group =>   1
Atom   3N    basis set group =>   3
Atom   4C    basis set group =>   1
Atom   5C    basis set group =>   1
Atom   6C    basis set group =>   1
Atom   7C    basis set group =>   1
Atom   8C    basis set group =>   1
Atom   9C    basis set group =>   1
Atom  10C    basis set group =>   1
Atom  11C    basis set group =>   1
Atom  12C    basis set group =>   1
Atom  13C    basis set group =>   1
Atom  14C    basis set group =>   1
Atom  15C    basis set group =>   1
Atom  16C    basis set group =>   1
Atom  17O    basis set group =>   2
Atom  18C    basis set group =>   1
Atom  19N    basis set group =>   3
Atom  20B    basis set group =>   4
Atom  21F    basis set group =>   5
Atom  22F    basis set group =>   5
Atom  23C    basis set group =>   1
Atom  24C    basis set group =>   1
Atom  25H    basis set group =>   6
Atom  26H    basis set group =>   6
Atom  27H    basis set group =>   6
Atom  28H    basis set group =>   6
Atom  29H    basis set group =>   6
Atom  30H    basis set group =>   6
Atom  31H    basis set group =>   6
Atom  32H    basis set group =>   6
Atom  33H    basis set group =>   6
Atom  34H    basis set group =>   6
Atom  35H    basis set group =>   6
Atom  36H    basis set group =>   6
Atom  37H    basis set group =>   6
Atom  38H    basis set group =>   6
Atom  39H    basis set group =>   6
Atom  40H    basis set group =>   6
Atom  41H    basis set group =>   6


           ************************************************************
           *        Program running with 4 parallel MPI-processes     *
           *              working on a common directory               *
           ************************************************************
------------------------------------------------------------------------------
                           ORCA GTO INTEGRAL CALCULATION
                           -- RI-GTO INTEGRALS CHOSEN --
------------------------------------------------------------------------------
------------------------------------------------------------------------------
                   ___                                                        
                  /   \      - P O W E R E D   B Y -                         
                 /     \                                                     
                 |  |  |   _    _      __       _____    __    __             
                 |  |  |  | |  | |    /  \     |  _  \  |  |  /  |          
                  \  \/   | |  | |   /    \    | | | |  |  | /  /          
                 / \  \   | |__| |  /  /\  \   | |_| |  |  |/  /          
                |  |  |   |  __  | /  /__\  \  |    /   |      \           
                |  |  |   | |  | | |   __   |  |    \   |  |\   \          
                \     /   | |  | | |  |  |  |  | |\  \  |  | \   \       
                 \___/    |_|  |_| |__|  |__|  |_| \__\ |__|  \__/        
                                                                              
                      - O R C A' S   B I G   F R I E N D -                    
                                      &                                       
                       - I N T E G R A L  F E E D E R -                       
                                                                              
 v1 FN, 2020, v2 2021                                                         
------------------------------------------------------------------------------


Reading SHARK input file optpbed3-b2plyp-test-55.SHARKINP.tmp ... ok
----------------------
SHARK INTEGRAL PACKAGE
----------------------

Number of atoms                             ...     42
Number of basis functions                   ...   1538
Number of shells                            ...    602
Maximum angular momentum                    ...      3
Integral batch strategy                     ... SHARK/LIBINT Hybrid
RI-J (if used) integral strategy            ... SPLIT-RIJ (Revised 2003 algorithm where possible)
Printlevel                                  ...      1
Contraction scheme used                     ... PARTIAL GENERAL contraction
Coulomb Range Separation                    ... NOT USED
Exchange Range Separation                   ... NOT USED
Finite Nucleus Model                        ... NOT USED
Auxiliary Coulomb fitting basis             ... AVAILABLE
   # of basis functions in Aux-J            ...   2485
   # of shells in Aux-J                     ...    795
   Maximum angular momentum in Aux-J        ...      4
Auxiliary J/K fitting basis                 ... NOT available
Auxiliary Correlation fitting basis         ... AVAILABLE
   # of basis functions in Aux-C            ...   3160
   # of shells in Aux-C                     ...    870
   Maximum angular momentum in Aux-C        ...      4
Auxiliary 'external' fitting basis          ... NOT available
Integral threshold                          ...     2.500000e-11
Primitive cut-off                           ...     2.500000e-12
Primitive pair pre-selection threshold      ...     2.500000e-12

Calculating pre-screening integrals         ... done (  0.4 sec) Dimension = 602
Calculating pre-screening integrals (ORCA)  ... done (  0.8 sec) Dimension = 452
Organizing shell pair data                  ... done (  2.4 sec)
Shell pair information
Total number of shell pairs                 ...    181503
Shell pairs after pre-screening             ...    111613
Total number of primitive shell pairs       ...    235767
Primitive shell pairs kept                  ...    130071
          la=0 lb=0:  25074 shell pairs
          la=1 lb=0:  28494 shell pairs
          la=1 lb=1:   7009 shell pairs
          la=2 lb=0:  18759 shell pairs
          la=2 lb=1:   9308 shell pairs
          la=2 lb=2:   3165 shell pairs
          la=3 lb=0:  10203 shell pairs
          la=3 lb=1:   5100 shell pairs
          la=3 lb=2:   3480 shell pairs
          la=3 lb=3:   1021 shell pairs

Calculating one electron integrals          ... done (  0.5 sec)
Calculating RI/J V-Matrix + Cholesky decomp.... done (  0.7 sec)
Calculating RI/C V-Matrix + Cholesky decomp.... done (  0.9 sec)
Calculating Nuclear repulsion               ... done (  0.0 sec) ENN=   2206.291434450004 Eh

SHARK setup successfully completed in   9.0 seconds

Maximum memory used throughout the entire GTOINT-calculation: 176.9 MB


           ************************************************************
           *        Program running with 4 parallel MPI-processes     *
           *              working on a common directory               *
           ************************************************************
-------------------------------------------------------------------------------
                                 ORCA SCF
-------------------------------------------------------------------------------

------------
SCF SETTINGS
------------
Hamiltonian:
 Density Functional     Method          .... DFT(GTOs)
 Exchange Functional    Exchange        .... PBE
   PBE kappa parameter   XKappa         ....  0.804000
   PBE mue parameter    XMuePBE         ....  0.219520
 Correlation Functional Correlation     .... PBE
   PBE beta parameter  CBetaPBE         ....  0.066725
 LDA part of GGA corr.  LDAOpt          .... PW91-LDA
 Gradients option       PostSCFGGA      .... off
 Hybrid DFT is turned on
   Fraction HF Exchange ScalHFX         ....  0.250000
   Scaling of DF-GGA-X  ScalDFX         ....  0.750000
   Scaling of DF-GGA-C  ScalDFC         ....  1.000000
   Scaling of DF-LDA-C  ScalLDAC        ....  1.000000
   Perturbative correction              ....  0.000000
   Density functional embedding theory  .... OFF
   NL short-range parameter             ....  6.900000
 RI-approximation to the Coulomb term is turned on
   Number of AuxJ basis functions       .... 2485
   RIJ-COSX (HFX calculated with COS-X)).... on


General Settings:
 Integral files         IntName         .... optpbed3-b2plyp-test-55
 Hartree-Fock type      HFTyp           .... RHF
 Total Charge           Charge          ....    0
 Multiplicity           Mult            ....    1
 Number of Electrons    NEL             ....  178
 Basis Dimension        Dim             .... 1388
 Nuclear Repulsion      ENuc            ....   2206.2914344500 Eh

Convergence Acceleration:
 DIIS                   CNVDIIS         .... on
   Start iteration      DIISMaxIt       ....    12
   Startup error        DIISStart       ....  0.200000
   # of expansion vecs  DIISMaxEq       ....     5
   Bias factor          DIISBfac        ....   1.050
   Max. coefficient     DIISMaxC        ....  10.000
 Trust-Rad. Augm. Hess. CNVTRAH         .... auto
   Auto Start mean grad. ratio tolernc. ....  1.125000
   Auto Start start iteration           ....    20
   Auto Start num. interpolation iter.  ....    10
   Max. Number of Micro iterations      ....    16
   Max. Number of Macro iterations      .... Maxiter - #DIIS iter
   Number of Davidson start vectors     ....     2
   Converg. threshold I  (grad. norm)   ....   1.000e-05
   Converg. threshold II (energy diff.) ....   1.000e-08
   Grad. Scal. Fac. for Micro threshold ....   0.100
   Minimum threshold for Micro iter.    ....   0.010
   NR start threshold (gradient norm)   ....   0.001
   Initial trust radius                 ....   0.400
   Minimum AH scaling param. (alpha)    ....   1.000
   Maximum AH scaling param. (alpha)    .... 1000.000
   Orbital update algorithm             .... Taylor
   White noise on init. David. guess    .... on
   Maximum white noise                  ....   0.010
   Quad. conv. algorithm                .... NR
 SOSCF                  CNVSOSCF        .... on
   Start iteration      SOSCFMaxIt      ....   150
   Startup grad/error   SOSCFStart      ....  0.003300
 Level Shifting         CNVShift        .... on
   Level shift para.    LevelShift      ....    0.2500
   Turn off err/grad.   ShiftErr        ....    0.0010
 Zerner damping         CNVZerner       .... off
 Static damping         CNVDamp         .... on
   Fraction old density DampFac         ....    0.7000
   Max. Damping (<1)    DampMax         ....    0.9800
   Min. Damping (>=0)   DampMin         ....    0.0000
   Turn off err/grad.   DampErr         ....    0.1000
 Fernandez-Rico         CNVRico         .... off

SCF Procedure:
 Maximum # iterations   MaxIter         ....   125
 SCF integral mode      SCFMode         .... Direct
   Integral package                     .... SHARK and LIBINT hybrid scheme
 Reset frequency        DirectResetFreq ....    20
 Integral Threshold     Thresh          ....  2.500e-11 Eh
 Primitive CutOff       TCut            ....  2.500e-12 Eh

Convergence Tolerance:
 Convergence Check Mode ConvCheckMode   .... Total+1el-Energy
 Convergence forced     ConvForced      .... 0
 Energy Change          TolE            ....  1.000e-08 Eh
 1-El. energy change                    ....  1.000e-05 Eh
 Orbital Gradient       TolG            ....  1.000e-05
 Orbital Rotation angle TolX            ....  1.000e-05
 DIIS Error             TolErr          ....  5.000e-07


Diagonalization of the overlap matrix:
Smallest eigenvalue                        ... 2.019e-07
Time for diagonalization                   ...    0.510 sec
Threshold for overlap eigenvalues          ... 1.000e-08
Number of eigenvalues below threshold      ... 0
Time for construction of square roots      ...    0.357 sec
Total time needed                          ...    0.878 sec

Time for model grid setup =    1.455 sec

------------------------------
INITIAL GUESS: MODEL POTENTIAL
------------------------------
Loading Hartree-Fock densities                     ... done
Calculating cut-offs                               ... done
Initializing the effective Hamiltonian             ... done
Setting up the integral package (SHARK)            ... done
Starting the Coulomb interaction                   ... done (   5.2 sec)
Reading the grid                                   ... done
Mapping shells                                     ... done
Starting the XC term evaluation                    ... done (   4.2 sec)
  promolecular density results
     # of electrons  =    177.992683587
     EX              =   -150.503485662
     EC              =     -6.030622290
     EX+EC           =   -156.534107951
Transforming the Hamiltonian                       ... done (   0.3 sec)
Diagonalizing the Hamiltonian                      ... done (   0.5 sec)
Back transforming the eigenvectors                 ... done (   0.1 sec)
Now organizing SCF variables                       ... done
                      ------------------
                      INITIAL GUESS DONE (  11.9 sec)
                      ------------------
-------------------
DFT GRID GENERATION
-------------------

General Integration Accuracy     IntAcc      ... 4.388
Radial Grid Type                 RadialGrid  ... OptM3 with GC (2021)
Angular Grid (max. ang.)         AngularGrid ... 4 (Lebedev-302)
Angular grid pruning method      GridPruning ... 4 (adaptive)
Weight generation scheme         WeightScheme... Becke
Basis function cutoff            BFCut       ... 1.0000e-11
Integration weight cutoff        WCut        ... 1.0000e-14
Angular grids for H and He will be reduced by one unit
Partially contracted basis set               ... off
Rotationally invariant grid construction     ... off

Total number of grid points                  ...   209251
Total number of batches                      ...     3291
Average number of points per batch           ...       63
Average number of grid points per atom       ...     4982
Time for grid setup =    4.541 sec

--------------------
COSX GRID GENERATION
--------------------

GRIDX 1
-------
General Integration Accuracy     IntAcc      ... 3.816
Radial Grid Type                 RadialGrid  ... OptM3 with GC (2021)
Angular Grid (max. ang.)         AngularGrid ... 1 (Lebedev-50)
Angular grid pruning method      GridPruning ... 4 (adaptive)
Weight generation scheme         WeightScheme... Becke
Basis function cutoff            BFCut       ... 1.0000e-11
Integration weight cutoff        WCut        ... 1.0000e-14
Angular grids for H and He will be reduced by one unit
Partially contracted basis set               ... on
Rotationally invariant grid construction     ... off

Total number of grid points                  ...    26599
Total number of batches                      ...      433
Average number of points per batch           ...       61
Average number of grid points per atom       ...      633
UseSFitting                                  ... on

GRIDX 2
-------
General Integration Accuracy     IntAcc      ... 4.020
Radial Grid Type                 RadialGrid  ... OptM3 with GC (2021)
Angular Grid (max. ang.)         AngularGrid ... 2 (Lebedev-110)
Angular grid pruning method      GridPruning ... 4 (adaptive)
Weight generation scheme         WeightScheme... Becke
Basis function cutoff            BFCut       ... 1.0000e-11
Integration weight cutoff        WCut        ... 1.0000e-14
Angular grids for H and He will be reduced by one unit
Partially contracted basis set               ... on
Rotationally invariant grid construction     ... off

Total number of grid points                  ...    62537
Total number of batches                      ...     1001
Average number of points per batch           ...       62
Average number of grid points per atom       ...     1489
UseSFitting                                  ... on

GRIDX 3
-------
General Integration Accuracy     IntAcc      ... 4.338
Radial Grid Type                 RadialGrid  ... OptM3 with GC (2021)
Angular Grid (max. ang.)         AngularGrid ... 3 (Lebedev-194)
Angular grid pruning method      GridPruning ... 4 (adaptive)
Weight generation scheme         WeightScheme... Becke
Basis function cutoff            BFCut       ... 1.0000e-11
Integration weight cutoff        WCut        ... 1.0000e-14
Angular grids for H and He will be reduced by one unit
Partially contracted basis set               ... on
Rotationally invariant grid construction     ... off

Total number of grid points                  ...   135039
Total number of batches                      ...     2132
Average number of points per batch           ...       63
Average number of grid points per atom       ...     3215
UseSFitting                                  ... on

Time for X-Grid setup             =   12.412 sec


--------------------
CPCM SOLVATION MODEL
--------------------
CPCM parameters:
  Epsilon                                         ...      32.6130
  Refrac                                          ...       1.3288
  Rsolv                                           ...       1.3000
  Surface type                                    ... GAUSSIAN VDW
  Epsilon function type                           ...         CPCM
Solvent:                                     ... METHANOL
SMD-CDS solvent descriptors:
  Soln                                       ...    1.3288
  Soln25                                     ...    1.3265
  Sola                                       ...    0.4300
  Solb                                       ...    0.4700
  Solg                                       ...   31.7700
  Solc                                       ...    0.0000
  Solh                                       ...    0.0000
Radii:
 Radius for C  used is    3.4960 Bohr (=   1.8500 Ang.)
 Radius for O  used is    2.8724 Bohr (=   1.5200 Ang.)
 Radius for N  used is    3.5716 Bohr (=   1.8900 Ang.)
 Radius for B  used is    3.6283 Bohr (=   1.9200 Ang.)
 Radius for F  used is    3.2692 Bohr (=   1.7300 Ang.)
 Radius for H  used is    2.2677 Bohr (=   1.2000 Ang.)
Calculating surface                               ...        done! (  0.0s)
GEPOL surface points                              ...         2375
GEPOL Volume                                      ...    2192.3711
GEPOL Surface-area                                ...    1205.8778
Calculating surface distance matrix               ...        done! (  0.1s)
Performing Cholesky decomposition & store         ...        done! (  0.4s)
Overall time for CPCM initialization              ...                 0.5s
 re-compute Schwartz prescreening matrix in partically contracted basis (1) ...done (   0.343 sec)
--------------
SCF ITERATIONS
--------------
ITER       Energy         Delta-E        Max-DP      RMS-DP      [F,P]     Damp
               ***  Starting incremental Fock matrix formation  ***
  0  -1179.4457300884   0.000000000000 0.78224111  0.00138996  0.2012879 0.7000
  1  -1179.6513841284  -0.205654039985 0.69595939  0.00115060  0.1030308 0.7000
                               ***Turning on DIIS***
  2  -1179.7460770856  -0.094692957251 1.71840514  0.00267399  0.0442343 0.0000
  3  -1179.8894221595  -0.143345073832 0.05916818  0.00042340  0.0511338 0.0000
  4  -1179.9188457953  -0.029423635861 0.06894314  0.00022264  0.0067127 0.0000
  5  -1179.9199238464  -0.001078051080 0.05737321  0.00012899  0.0050492 0.0000
                      *** Initiating the SOSCF procedure ***
                           *** Shutting down DIIS ***
                      *** Re-Reading the Fockian *** 
                      *** Removing any level shift *** 
ITER      Energy       Delta-E        Grad      Rot      Max-DP    RMS-DP
  6  -1179.92003506  -0.0001112172  0.000338  0.000338  0.099521  0.000181
               *** Restarting incremental Fock matrix formation ***
  7  -1179.92003988  -0.0000048204  0.000202  0.000876  0.337341  0.000511
  8  -1179.92004230  -0.0000024167  0.000120  0.000359  0.131839  0.000272
  9  -1179.92004351  -0.0000012056  0.000034  0.000137  0.295113  0.000408
 10  -1179.92004373  -0.0000002197  0.000017  0.000045  0.078827  0.000149
 11  -1179.92004370   0.0000000307  0.000012  0.000042  0.033773  0.000118
 12  -1179.92004375  -0.0000000504  0.000005  0.000025  0.108701  0.000203
 13  -1179.92004378  -0.0000000329  0.000005  0.000012  0.064562  0.000126
                  ***Gradient check signals convergence***
              ***Rediagonalizing the Fockian in SOSCF/NRSCF***

               *****************************************************
               *                     SUCCESS                       *
               *           SCF CONVERGED AFTER  14 CYCLES          *
               *****************************************************

Old exchange energy                            =    -38.347152873 Eh
New exchange energy                            =    -38.347081434 Eh
Exchange energy change after final integration =      0.000071439 Eh
Total energy after final integration           =  -1179.919972365 Eh
Final COS-X integration done in                =   268.113 sec

SMD CDS free energy correction energy :                 1.63555     Kcal/mol
Total Energy after SMD CDS correction =             -1179.917365950 Eh

----------------
TOTAL SCF ENERGY
----------------

Total Energy       :        -1179.91736595 Eh          -32107.18383 eV

[...]

   Memory handling for XC-terms:
   Memory per vector needed      ...    58 MB
   Memory needed                 ...  1763 MB
   Memory available              ...  4000 MB
   Number of vectors per batch   ...    68
   Number of batches             ...     1
   Time for densities:            1.334
   Time for XC-Integration:     112.004
   Time for LR-CPCM terms:       51.072
   Time for Sigma-Completion:     0.989
   Time for building 30 sigma-vectors
   Data Preparation Phase         ...     0.04 sec
   Transformed RI Coulomb         ...     4.31 sec
   Transformed RI-exchange        ...   380.07 sec
   (ab|v) reading and digestion   ...   244.86 sec
   Final sigma-completion         ...     0.04 sec
   Done building sigma-vectors             Size of expansion space: 30
   Lowest Energy          :     0.137004933895
   Maximum Energy change  :     0.206139266727 (vector 9)
   Maximum residual norm  :     0.021289483563

                       ****Iteration    1****
              <<< Entering MO-section for Build Sigma(Double) >>>
   Forming the XC and CPCM contribution:
   Time for densities:            0.393
   Time for XC-Integration:      35.021
   Time for LR-CPCM terms:       21.751
   Time for Sigma-Completion:     0.306
   Time for building 10 sigma-vectors
   Data Preparation Phase         ...     0.02 sec
   Transformed RI Coulomb         ...     1.80 sec
   Transformed RI-exchange        ...  1275.21 sec
   (ab|v) reading and digestion   ...  1222.75 sec
   Final sigma-completion         ...     0.01 sec
   Done building sigma-vectors             Size of expansion space: 40
   Lowest Energy          :     0.114835682877
   Maximum Energy change  :     0.022169251018 (vector 0)
   Maximum residual norm  :     0.000734578222

                       ****Iteration    2****
              <<< Entering MO-section for Build Sigma(Double) >>>
   Forming the XC and CPCM contribution:
   Time for densities:            0.448
   Time for XC-Integration:      38.491
   Time for LR-CPCM terms:       22.783
   Time for Sigma-Completion:     0.330
   Time for building 10 sigma-vectors
   Data Preparation Phase         ...     0.01 sec
   Transformed RI Coulomb         ...     1.70 sec
   Transformed RI-exchange        ...  1274.90 sec
   (ab|v) reading and digestion   ...  1222.42 sec
   Final sigma-completion         ...     0.01 sec
   Done building sigma-vectors             Size of expansion space: 50
   Lowest Energy          :     0.113802959921
   Maximum Energy change  :     0.001155812624 (vector 5)
   Maximum residual norm  :     0.000105233936

                       ****Iteration    3****
              <<< Entering MO-section for Build Sigma(Double) >>>
   Forming the XC and CPCM contribution:
   Time for densities:            0.420
   Time for XC-Integration:      36.888
   Time for LR-CPCM terms:       23.295
   Time for Sigma-Completion:     0.324
   Time for building 10 sigma-vectors
   Data Preparation Phase         ...     0.02 sec
   Transformed RI Coulomb         ...     1.94 sec
   Transformed RI-exchange        ...  1250.77 sec
   (ab|v) reading and digestion   ...  1199.18 sec
   Final sigma-completion         ...     0.01 sec
   Done building sigma-vectors             Size of expansion space: 60
   Lowest Energy          :     0.113765154640
   Maximum Energy change  :     0.000402218956 (vector 3)
   Maximum residual norm  :     0.000042848024

                       ****Iteration    4****
              <<< Entering MO-section for Build Sigma(Double) >>>
   Forming the XC and CPCM contribution:
   Time for densities:            0.416
   Time for XC-Integration:      36.685
   Time for LR-CPCM terms:       21.466
   Time for Sigma-Completion:     0.315
   Time for building 10 sigma-vectors
   Data Preparation Phase         ...     0.02 sec
   Transformed RI Coulomb         ...     1.77 sec
   Transformed RI-exchange        ...  1266.59 sec
   (ab|v) reading and digestion   ...  1214.02 sec
   Final sigma-completion         ...     0.01 sec
   Done building sigma-vectors             Size of expansion space: 70
   Lowest Energy          :     0.113762925824
   Maximum Energy change  :     0.000048167533 (vector 3)
   Maximum residual norm  :     0.000003647363
   Rebuilding the expansion space

                       ****Iteration    5****
              <<< Entering MO-section for Build Sigma(Double) >>>
   Forming the XC and CPCM contribution:
   Time for densities:            0.838
   Time for XC-Integration:      71.301
   Time for LR-CPCM terms:       33.652
   Time for Sigma-Completion:     0.660
   Time for building 20 sigma-vectors
   Data Preparation Phase         ...     0.03 sec
   Transformed RI Coulomb         ...     2.78 sec
   Transformed RI-exchange        ...  2529.07 sec
   (ab|v) reading and digestion   ...  2430.09 sec
   Final sigma-completion         ...     0.02 sec
   Done building sigma-vectors             Size of expansion space: 20
   Lowest Energy          :     0.113762833162
   Maximum Energy change  :     0.000005114560 (vector 9)
   Maximum residual norm  :     0.000000795981

      *** CONVERGENCE OF RESIDUAL NORM REACHED ***

Storing the converged CI vectors               ... optpbed3-b2plyp-test-55_job2.cis1

                 *** DAVIDSON DONE ***

Total time for solving the CIS problem:  8507.826sec

------------------
DOUBLES CORRECTION (Double precision version)
------------------

The (D) correction will be scaled by  0.2700
Doing v(i,a)*T(i,a) terms (RI)                    ... ok
Doing u(i,j,a,b) terms for state   0              ... ok
Doing u(i,j,a,b) terms for state   1              ... ok
Doing u(i,j,a,b) terms for state   2              ... ok
Doing u(i,j,a,b) terms for state   3              ... ok
Doing u(i,j,a,b) terms for state   4              ... ok
Doing u(i,j,a,b) terms for state   5              ... ok
Doing u(i,j,a,b) terms for state   6              ... ok
Doing u(i,j,a,b) terms for state   7              ... ok
Doing u(i,j,a,b) terms for state   8              ... ok
Doing u(i,j,a,b) terms for state   9              ... ok

Contributions to the (D) correction(s) (in eV)

STATE  Final   Init.   Total   v(ext)   v(int)  v(3)    u
       omega   omega     (D)                             
-----------------------------------------------------------------------------
   0   2.764   3.096  -0.331   0.727   1.057  -0.108  -2.007
   1   3.701   4.178  -0.476   0.733   0.963  -0.030  -2.142
   2   4.053   4.726  -0.673   0.734   0.903  -0.033  -2.277
   3   4.238   4.859  -0.621   0.721   0.891  -0.021  -2.212
   4   4.707   4.911  -0.204   0.071   1.069  -0.002  -1.342
   5   4.328   5.087  -0.759   0.739   0.872  -0.043  -2.327
   6   4.816   5.246  -0.430   0.266   1.069  -0.004  -1.762
   7   5.064   5.393  -0.329   0.171   1.065  -0.003  -1.563
   8   4.953   5.455  -0.502   0.261   1.069  -0.003  -1.829
   9   5.294   5.507  -0.213   0.089   1.068  -0.003  -1.368

(D)-timings
 V(i,a)*T(i,a) terms           ...  2081.958 sec
 U(i,j,a,b) 3-internal         ...    37.164 sec
 U(i,j,a,b) 3-external         ...   898.584 sec
 U(i,j,a,b) pair terms         ...   907.906 sec
 Total measured time           ...  9073.703 sec

 Time for (ab|v) I/O           ...   197.132 sec


------------------------------------
TD-DFT/TDA EXCITED STATES (SINGLETS)
------------------------------------

the weight of the individual excitations are printed if larger than 1.0e-02

STATE  1:  E=   0.101593 au      2.764 eV    22297.0 cm**-1 <S**2> =   0.000000
    88a ->  89a  :     0.954688 (c=  0.97708128)

STATE  2:  E=   0.136018 au      3.701 eV    29852.6 cm**-1 <S**2> =   0.000000
    87a ->  89a  :     0.966455 (c=  0.98308449)

STATE  3:  E=   0.148948 au      4.053 eV    32690.4 cm**-1 <S**2> =   0.000000
    85a ->  89a  :     0.467279 (c=  0.68357844)
    86a ->  89a  :     0.476795 (c= -0.69050379)

STATE  4:  E=   0.155731 au      4.238 eV    34179.1 cm**-1 <S**2> =   0.000000
    85a ->  89a  :     0.485012 (c= -0.69642829)
    86a ->  89a  :     0.444751 (c= -0.66689621)
    87a ->  96a  :     0.013038 (c=  0.11418226)

STATE  5:  E=   0.172992 au      4.707 eV    37967.4 cm**-1 <S**2> =   0.000000
    88a ->  90a  :     0.732262 (c=  0.85572328)
    88a ->  91a  :     0.013055 (c= -0.11425777)
    88a ->  92a  :     0.026847 (c=  0.16385204)
    88a ->  94a  :     0.111383 (c= -0.33374108)
    88a ->  98a  :     0.023193 (c=  0.15229090)
    88a -> 100a  :     0.026784 (c= -0.16365710)

STATE  6:  E=   0.159066 au      4.328 eV    34910.9 cm**-1 <S**2> =   0.000000
    83a ->  89a  :     0.091023 (c= -0.30170073)
    84a ->  89a  :     0.870040 (c=  0.93275915)

STATE  7:  E=   0.176972 au      4.816 eV    38840.8 cm**-1 <S**2> =   0.000000
    88a ->  91a  :     0.179006 (c= -0.42309105)
    88a ->  92a  :     0.397993 (c= -0.63086665)
    88a ->  93a  :     0.239466 (c=  0.48935275)
    88a ->  95a  :     0.061519 (c= -0.24803058)
    88a -> 102a  :     0.020625 (c=  0.14361292)
    88a -> 106a  :     0.013661 (c= -0.11687849)

STATE  8:  E=   0.186086 au      5.064 eV    40841.2 cm**-1 <S**2> =   0.000000
    87a ->  90a  :     0.012436 (c=  0.11151884)
    88a ->  91a  :     0.043407 (c= -0.20834228)
    88a ->  92a  :     0.247921 (c= -0.49791636)
    88a ->  93a  :     0.452113 (c= -0.67239376)
    88a ->  95a  :     0.038870 (c=  0.19715390)
    88a ->  96a  :     0.016951 (c= -0.13019558)
    88a ->  97a  :     0.045411 (c=  0.21309750)
    88a ->  99a  :     0.045343 (c= -0.21293862)
    88a -> 103a  :     0.010882 (c=  0.10431608)
    88a -> 105a  :     0.017007 (c= -0.13041128)

STATE  9:  E=   0.182012 au      4.953 eV    39946.9 cm**-1 <S**2> =   0.000000
    88a ->  91a  :     0.231176 (c= -0.48080753)
    88a ->  92a  :     0.067950 (c=  0.26067201)
    88a ->  94a  :     0.357008 (c=  0.59750135)
    88a ->  95a  :     0.019984 (c= -0.14136627)
    88a ->  96a  :     0.226964 (c=  0.47640772)
    88a ->  97a  :     0.011234 (c=  0.10599097)
    88a ->  98a  :     0.026180 (c=  0.16180201)
    88a -> 100a  :     0.014542 (c= -0.12059166)

STATE 10:  E=   0.194542 au      5.294 eV    42697.0 cm**-1 <S**2> =   0.000000
    88a ->  91a  :     0.013587 (c= -0.11656307)
    88a ->  93a  :     0.163660 (c=  0.40454933)
    88a ->  95a  :     0.662828 (c=  0.81414266)
    88a ->  97a  :     0.070889 (c=  0.26624978)
    88a -> 102a  :     0.016975 (c= -0.13028947)


-----------------------------
TD-DFT/TDA-EXCITATION SPECTRA
-----------------------------

Center of mass = ( -0.8285,  0.3857,  0.1816)
Calculating the Dipole integrals                  ... done
Transforming integrals                            ... done
Calculating the Linear Momentum integrals         ... done
Transforming integrals                            ... done
Calculating angular momentum integrals            ... done
Transforming integrals                            ... done

-----------------------------------------------------------------------------
         ABSORPTION SPECTRUM VIA TRANSITION ELECTRIC DIPOLE MOMENTS
-----------------------------------------------------------------------------
State   Energy    Wavelength  fosc         T2        TX        TY        TZ  
        (cm-1)      (nm)                 (au**2)    (au)      (au)      (au) 
-----------------------------------------------------------------------------
   1   22297.0    448.5   0.900840863  13.30078  -0.75039  -3.44918  -0.91699
   2   29852.6    335.0   0.399786470   4.40881  -2.06183   0.39166   0.06539
   3   32690.4    305.9   0.019045591   0.19180  -0.04894  -0.43234  -0.04984
   4   34179.1    292.6   0.016212872   0.15616   0.01965   0.26399   0.29340
   5   37967.4    263.4   0.002275439   0.01973   0.09201  -0.09464  -0.04803
   6   34910.9    286.4   0.092804828   0.87516  -0.92811   0.11418   0.02716
   7   38840.8    257.5   0.013515765   0.11456   0.07315   0.21106   0.25428
   8   40841.2    244.9   0.017877681   0.14411   0.09124  -0.32259   0.17809
   9   39946.9    250.3   0.043606033   0.35937  -0.59879   0.02807   0.00554
  10   42697.0    234.2   0.003708287   0.02859   0.01669   0.15686   0.06091

-----------------------------------------------------------------------------
         ABSORPTION SPECTRUM VIA TRANSITION VELOCITY DIPOLE MOMENTS
-----------------------------------------------------------------------------
State   Energy    Wavelength   fosc        P2         PX        PY        PZ  
        (cm-1)      (nm)                 (au**2)     (au)      (au)      (au) 
-----------------------------------------------------------------------------
   1   22297.0    448.5   0.047708107   0.00727   0.01040   0.08384   0.01150
   2   29852.6    335.0   0.264425544   0.05395   0.22927  -0.03722  -0.00021
   3   32690.4    305.9   0.000429570   0.00010  -0.00267   0.00932  -0.00138
   4   34179.1    292.6   0.002702201   0.00063  -0.00203  -0.02499   0.00159
   5   37967.4    263.4   0.000631456   0.00016  -0.01168   0.00514   0.00099
   6   34910.9    286.4   0.003542862   0.00085   0.02893   0.00267  -0.00112
   7   38840.8    257.5   0.004241597   0.00113  -0.00605  -0.01222  -0.03066
   8   40841.2    244.9   0.007040505   0.00197  -0.01258   0.03759  -0.01984
   9   39946.9    250.3   0.022138232   0.00604   0.07726  -0.00834   0.00246
  10   42697.0    234.2   0.005338883   0.00156  -0.00803  -0.03830  -0.00514

-------------------------------------------------------------------
                             CD SPECTRUM
-------------------------------------------------------------------
State  Energy     Wavelength     R         MX        MY        MZ   
       (cm-1)       (nm)     (1e40*cgs)   (au)      (au)      (au)  
-------------------------------------------------------------------
   1   22297.0    448.5    -95.58928   0.04429   0.23572  -0.70178
   2   29852.6    335.0     50.70476  -0.05240  -0.01144   0.06107
   3   32690.4    305.9     21.52297   0.00167  -0.15452   0.42277
   4   34179.1    292.6    -40.84543  -0.03895   0.00558  -0.29770
   5   37967.4    263.4     -6.54661  -0.11790   0.01261   0.03840
   6   34910.9    286.4     -4.05628   0.00899  -0.00940   0.02990
   7   38840.8    257.5     -2.63396  -0.02415   0.06631  -0.07006
   8   40841.2    244.9     -8.02568  -0.00293   0.08360   0.05734
   9   39946.9    250.3     39.70237  -0.14034  -0.00141   0.03964
  10   42697.0    234.2      1.41501  -0.04718  -0.00564   0.07672

-------------------------------------------------------------------
         CD SPECTRUM VIA TRANSITION VELOCITY DIPOLE MOMENTS        
-------------------------------------------------------------------
State  Energy     Wavelength     R         MX        MY        MZ   
       (cm-1)       (nm)     (1e40*cgs)   (au)      (au)      (au)  
-------------------------------------------------------------------
   1   22297.0    448.5     56.39469   0.04429   0.23572  -0.70178
   2   29852.6    335.0    -40.20886  -0.05240  -0.01144   0.06107
   3   32690.4    305.9     -6.41858   0.00167  -0.15452   0.42277
   4   34179.1    292.6     -1.61964  -0.03895   0.00558  -0.29770
   5   37967.4    263.4      4.03425  -0.11790   0.01261   0.03840
   6   34910.9    286.4      0.59768   0.00899  -0.00940   0.02990
   7   38840.8    257.5      3.95363  -0.02415   0.06631  -0.07006
   8   40841.2    244.9      5.17214  -0.00293   0.08360   0.05734
   9   39946.9    250.3    -27.80010  -0.14034  -0.00141   0.03964
  10   42697.0    234.2      0.48637  -0.04718  -0.00564   0.07672

Total run time:    17597.409 sec

           *** ORCA-CIS/TD-DFT FINISHED WITHOUT ERROR ***

Maximum memory used throughout the entire CIS-calculation: 2603.5 MB

-----------------------
CIS/TD-DFT TOTAL ENERGY
-----------------------

    E(SCF)  =  -1178.919516249 Eh
    DE(CIS) =      0.101592615 Eh (Root  1)
    ----------------------------- ---------
    E(tot)  =  -1178.817923634 Eh



-------------------------------------------------------------------------------
                          DFT DISPERSION CORRECTION                            
                                                                               
                              DFTD3 V3.1  Rev 1                                
                          USING Becke-Johnson damping                          
-------------------------------------------------------------------------------
The B2PLYP functional is recognized
Active option DFTDOPT                   ...         4   

molecular C6(AA) [au] = 19798.983687 


            DFT-D V3
 parameters
 s6 scaling factor         :     0.6400 
 a1 scaling factor         :     0.3065 
 s8 scaling factor         :     0.9147 
 a2 scaling factor         :     5.0570 
 ad hoc parameters k1-k3   :    16.0000     1.3333    -4.0000 

 Edisp/kcal,au: -27.501632339171  -0.043826636158 
 E6   /kcal   : -15.473034772 
 E8   /kcal   : -12.028597567 
 % E8         :  43.737758614 

-------------------------   ----------------
Dispersion correction           -0.043826636
-------------------------   ----------------


-------------------------   --------------------
FINAL SINGLE POINT ENERGY     -1178.861750270584
-------------------------   --------------------


                            ***************************************
                            *     ORCA property calculations      *
                            ***************************************


  WARNING: The energy has been calculated at the MP2 level but the densities
           used in the property calculations are still SCF densities
           MP2 response densities have not been calculated 
           use %mp2 Density relaxed end
           or  %mp2 Density unrelaxed end

                                    ---------------------
                                    Active property flags
                                    ---------------------
   (+) Dipole Moment


------------------------------------------------------------------------------
                       ORCA ELECTRIC PROPERTIES CALCULATION
------------------------------------------------------------------------------

Dipole Moment Calculation                       ... on
Quadrupole Moment Calculation                   ... off
Polarizability Calculation                      ... off
GBWName                                         ... optpbed3-b2plyp-test-55_job2.gbw
Electron density                                ... optpbed3-b2plyp-test-55_job2.scfp
The origin for moment calculation is the CENTER OF MASS  = (-0.828460,  0.385653  0.181564)

-------------
DIPOLE MOMENT
-------------
                                X             Y             Z
Electronic contribution:    -18.07147       7.40418       3.22832
Nuclear contribution   :     20.19333      -8.97972      -4.22637
                        -----------------------------------------
Total Dipole Moment    :      2.12186      -1.57554      -0.99805
                        -----------------------------------------
Magnitude (a.u.)       :      2.82502
Magnitude (Debye)      :      7.18064



--------------------
Rotational spectrum 
--------------------
 
Rotational constants in cm-1:     0.011171     0.005424     0.003844 
Rotational constants in MHz :   334.911100   162.602398   115.250043 

 Dipole components along the rotational axes: 
x,y,z [a.u.] :     2.411999    -1.312986    -0.662629 
x,y,z [Debye]:     6.130815    -3.337345    -1.684268 

 

Timings for individual modules:

Sum of individual times         ...    23080.732 sec (= 384.679 min)
GTO integral calculation        ...       10.223 sec (=   0.170 min)   0.0 %
SCF iterations                  ...     2482.577 sec (=  41.376 min)  10.8 %
MP2 module                      ...     2984.029 sec (=  49.734 min)  12.9 %
CIS module                      ...    17603.903 sec (= 293.398 min)  76.3 %



                             ****ORCA TERMINATED NORMALLY****
TOTAL RUN TIME: 0 days 18 hours 26 minutes 18 seconds 701 msec
