
                                 *****************
                                 * O   R   C   A *
                                 *****************

                                            #,                                       
                                            ###                                      
                                            ####                                     
                                            #####                                    
                                            ######                                   
                                           ########,                                 
                                     ,,################,,,,,                         
                               ,,#################################,,                 
                          ,,##########################################,,             
                       ,#########################################, ''#####,          
                    ,#############################################,,   '####,        
                  ,##################################################,,,,####,       
                ,###########''''           ''''###############################       
              ,#####''   ,,,,##########,,,,          '''####'''          '####       
            ,##' ,,,,###########################,,,                        '##       
           ' ,,###''''                  '''############,,,                           
         ,,##''                                '''############,,,,        ,,,,,,###''
      ,#''                                            '''#######################'''  
     '                                                          ''''####''''         
             ,#######,   #######,   ,#######,      ##                                
            ,#'     '#,  ##    ##  ,#'     '#,    #''#        ######   ,####,        
            ##       ##  ##   ,#'  ##            #'  '#       #        #'  '#        
            ##       ##  #######   ##           ,######,      #####,   #    #        
            '#,     ,#'  ##    ##  '#,     ,#' ,#      #,         ##   #,  ,#        
             '#######'   ##     ##  '#######'  #'      '#     #####' # '####'        



                  #######################################################
                  #                        -***-                        #
                  #          Department of theory and spectroscopy      #
                  #    Directorship and core code : Frank Neese         #
                  #        Max Planck Institute fuer Kohlenforschung    #
                  #                Kaiser Wilhelm Platz 1               #
                  #                 D-45470 Muelheim/Ruhr               #
                  #                      Germany                        #
                  #                                                     #
                  #                  All rights reserved                #
                  #                        -***-                        #
                  #######################################################


                         Program Version 5.0.2 -  RELEASE  -


 With contributions from (in alphabetic order):
   Daniel Aravena         : Magnetic Suceptibility
   Michael Atanasov       : Ab Initio Ligand Field Theory (pilot matlab implementation)
   Alexander A. Auer      : GIAO ZORA, VPT2 properties, NMR spectrum
   Ute Becker             : Parallelization
   Giovanni Bistoni       : ED, misc. LED, open-shell LED, HFLD
   Martin Brehm           : Molecular dynamics
   Dmytro Bykov           : SCF Hessian
   Vijay G. Chilkuri      : MRCI spin determinant printing, contributions to CSF-ICE
   Dipayan Datta          : RHF DLPNO-CCSD density
   Achintya Kumar Dutta   : EOM-CC, STEOM-CC
   Dmitry Ganyushin       : Spin-Orbit,Spin-Spin,Magnetic field MRCI
   Miquel Garcia          : C-PCM and meta-GGA Hessian, CC/C-PCM, Gaussian charge scheme
   Yang Guo               : DLPNO-NEVPT2, F12-NEVPT2, CIM, IAO-localization
   Andreas Hansen         : Spin unrestricted coupled pair/coupled cluster methods
   Benjamin Helmich-Paris : MC-RPA, TRAH-SCF, COSX integrals
   Lee Huntington         : MR-EOM, pCC
   Robert Izsak           : Overlap fitted RIJCOSX, COSX-SCS-MP3, EOM
   Marcus Kettner         : VPT2
   Christian Kollmar      : KDIIS, OOCD, Brueckner-CCSD(T), CCSD density, CASPT2, CASPT2-K
   Simone Kossmann        : Meta GGA functionals, TD-DFT gradient, OOMP2, MP2 Hessian
   Martin Krupicka        : Initial AUTO-CI
   Lucas Lang             : DCDCAS
   Marvin Lechner         : AUTO-CI (C++ implementation), FIC-MRCC
   Dagmar Lenk            : GEPOL surface, SMD
   Dimitrios Liakos       : Extrapolation schemes; Compound Job, initial MDCI parallelization
   Dimitrios Manganas     : Further ROCIS development; embedding schemes
   Dimitrios Pantazis     : SARC Basis sets
   Anastasios Papadopoulos: AUTO-CI, single reference methods and gradients
   Taras Petrenko         : DFT Hessian,TD-DFT gradient, ASA, ECA, R-Raman, ABS, FL, XAS/XES, NRVS
   Peter Pinski           : DLPNO-MP2, DLPNO-MP2 Gradient
   Christoph Reimann      : Effective Core Potentials
   Marius Retegan         : Local ZFS, SOC
   Christoph Riplinger    : Optimizer, TS searches, QM/MM, DLPNO-CCSD(T), (RO)-DLPNO pert. Triples
   Tobias Risthaus        : Range-separated hybrids, TD-DFT gradient, RPA, STAB
   Michael Roemelt        : Original ROCIS implementation
   Masaaki Saitow         : Open-shell DLPNO-CCSD energy and density
   Barbara Sandhoefer     : DKH picture change effects
   Avijit Sen             : IP-ROCIS
   Kantharuban Sivalingam : CASSCF convergence, NEVPT2, FIC-MRCI
   Bernardo de Souza      : ESD, SOC TD-DFT
   Georgi Stoychev        : AutoAux, RI-MP2 NMR, DLPNO-MP2 response
   Willem Van den Heuvel  : Paramagnetic NMR
   Boris Wezisla          : Elementary symmetry handling
   Frank Wennmohs         : Technical directorship


 We gratefully acknowledge several colleagues who have allowed us to
 interface, adapt or use parts of their codes:
   Stefan Grimme, W. Hujo, H. Kruse, P. Pracht,  : VdW corrections, initial TS optimization,
                  C. Bannwarth, S. Ehlert          DFT functionals, gCP, sTDA/sTD-DF
   Ed Valeev, F. Pavosevic, A. Kumar             : LibInt (2-el integral package), F12 methods
   Garnet Chan, S. Sharma, J. Yang, R. Olivares  : DMRG
   Ulf Ekstrom                                   : XCFun DFT Library
   Mihaly Kallay                                 : mrcc  (arbitrary order and MRCC methods)
   Jiri Pittner, Ondrej Demel                    : Mk-CCSD
   Frank Weinhold                                : gennbo (NPA and NBO analysis)
   Christopher J. Cramer and Donald G. Truhlar   : smd solvation model
   Lars Goerigk                                  : TD-DFT with DH, B97 family of functionals
   V. Asgeirsson, H. Jonsson                     : NEB implementation
   FAccTs GmbH                                   : IRC, NEB, NEB-TS, DLPNO-Multilevel, CI-OPT
                                                   MM, QMMM, 2- and 3-layer-ONIOM, Crystal-QMMM,
                                                   LR-CPCM, SF, NACMEs, symmetry and pop. for TD-DFT,
                                                   nearIR, NL-DFT gradient (VV10), updates on ESD,
                                                   ML-optimized integration grids
   S Lehtola, MJT Oliveira, MAL Marques          : LibXC Library
   Liviu Ungur et al                             : ANISO software


 Your calculation uses the libint2 library for the computation of 2-el integrals
 For citations please refer to: http://libint.valeyev.net

 Your ORCA version has been built with support for libXC version: 5.1.0
 For citations please refer to: https://tddft.org/programs/libxc/

 This ORCA versions uses:
   CBLAS   interface :  Fast vector & matrix operations
   LAPACKE interface :  Fast linear algebra routines
   SCALAPACK package :  Parallel linear algebra routines
   Shared memory     :  Shared parallel matrices
   BLAS/LAPACK       :  OpenBLAS 0.3.15  USE64BITINT DYNAMIC_ARCH NO_AFFINITY Haswell SINGLE_THREADED
        Core in use  :  Haswell
   Copyright (c) 2011-2014, The OpenBLAS Project


Your calculation utilizes the atom-pairwise dispersion correction
with the Becke-Johnson damping scheme (D3BJ)
Cite in your paper:
S.Grimme, S.Ehrlich, L.Goerigk, J Comput Chem, (2011), 32, 1456–1465 
S.Grimme, J.Antony, S.Ehrlich and H.Krieg, J.Chem.Phys., 132, (2010), 154104 
   

Your calculation utilizes the SMD solvation module
Please cite in your paper:
A.V. Marenich, C.J. Cramer, D.G. Truhlar J. Phys. Chem. B, 113, (2009), 6378 

================================================================================

----- Orbital basis set information -----
Your calculation utilizes the basis: aug-cc-pVTZ 
    H, B-Ne : Obtained from the ccRepo (grant-hill.group.shef.ac.uk/ccrepo) Feb. 2017
              R. A. Kendall, T. H. Dunning, Jr., R. J. Harrison, J. Chem. Phys. 96, 6796 (1992)
         He : Obtained from the ccRepo (grant-hill.group.shef.ac.uk/ccrepo) Feb. 2017
              D. E. Woon, T. H. Dunning, Jr., J. Chem. Phys. 100, 2975 (1994)
  Li-Be, Na : Obtained from the ccRepo (grant-hill.group.shef.ac.uk/ccrepo) Feb. 2017
              B. P. Prascher, D. E. Woon, K. A. Peterson, T. H. Dunning, Jr., A. K. Wilson, Theor. Chem. Acc. 128, 69 (2011)
         Mg : Obtained from the Peterson Research Group Website (tyr0.chem.wsu.edu/~kipeters) Feb. 2017
              B. P. Prascher, D. E. Woon, K. A. Peterson, T. H. Dunning, Jr., A. K. Wilson, Theor. Chem. Acc. 128, 69 (2011)
      Al-Ar : Obtained from the ccRepo (grant-hill.group.shef.ac.uk/ccrepo) Feb. 2017
              D. E. Woon, T. H. Dunning, Jr., J. Chem. Phys. 98, 1358 (1993)
      Sc-Zn : Obtained from the ccRepo (grant-hill.group.shef.ac.uk/ccrepo) Feb. 2017
              N. B. Balabanov, K. A. Peterson, J. Chem. Phys. 123, 064107 (2005)
              N. B. Balabanov, K. A. Peterson, J. Chem. Phys. 125, 074110 (2006)
      Ga-Kr : Obtained from the ccRepo (grant-hill.group.shef.ac.uk/ccrepo) Feb. 2017
              A. K. Wilson, D. E. Woon, K. A. Peterson, T. H. Dunning, Jr., J. Chem. Phys. 110, 7667 (1999)
     Ag, Au : Obtained from the Peterson Research Group Website (tyr0.chem.wsu.edu/~kipeters) Feb. 2017
              K. A. Peterson, C. Puzzarini, Theor. Chem. Acc. 114, 283 (2005)

The basis set includes element-specific modifications.

Your calculation utilizes the basis: cc-pVTZ 
       H, B-Ne : Obtained from the ccRepo (grant-hill.group.shef.ac.uk/ccrepo) Feb. 2017
                 T. H. Dunning, Jr., J. Chem. Phys. 90, 1007 (1989)
            He : Obtained from the ccRepo (grant-hill.group.shef.ac.uk/ccrepo) Feb. 2017
                 D. E. Woon, T. H. Dunning, Jr., J. Chem. Phys. 100, 2975 (1994)
  Li-Be, Na-Mg : Obtained from the ccRepo (grant-hill.group.shef.ac.uk/ccrepo) Feb. 2017
                 B. P. Prascher, D. E. Woon, K. A. Peterson, T. H. Dunning, Jr., A. K. Wilson, Theor. Chem. Acc. 128, 69 (2011)
         Al-Ar : Obtained from the ccRepo (grant-hill.group.shef.ac.uk/ccrepo) Feb. 2017
                 D. E. Woon, T. H. Dunning, Jr., J. Chem. Phys. 98, 1358 (1993)
            Ca : Obtained from the Peterson Research Group Website (tyr0.chem.wsu.edu/~kipeters) Feb. 2017
                 J. Koput, K. A. Peterson, J. Phys. Chem. 106, 9595 (2002)
         Sc-Zn : Obtained from the ccRepo (grant-hill.group.shef.ac.uk/ccrepo) Feb. 2017
                 N. B. Balabanov, K. A. Peterson, J. Chem. Phys. 123, 064107 (2005)
                 N. B. Balabanov, K. A. Peterson, J. Chem. Phys. 125, 074110 (2006)
         Ga-Kr : Obtained from the ccRepo (grant-hill.group.shef.ac.uk/ccrepo) Feb. 2017
                 A. K. Wilson, D. E. Woon, K. A. Peterson, T. H. Dunning, Jr., J. Chem. Phys. 110, 7667 (1999)
             Y : Obtained from the ccRepo (grant-hill.group.shef.ac.uk/ccrepo) Feb. 2017
                 K. A. Peterson, D. Figgen, M. Dolg, H. Stoll, J. Chem. Phys. 126, 124101 (2007)
        Ag, Au : Obtained from the Peterson Research Group Website (tyr0.chem.wsu.edu/~kipeters) Feb. 2017
                 K. A. Peterson, C. Puzzarini, Theor. Chem. Acc. 114, 283 (2005)

----- AuxJ basis set information -----
Your calculation utilizes the auxiliary basis: aug-cc-pVTZ/JK 
  H, B-F, Al-Cl, Ga-Br : Obtained from the TURBOMOLE 7.0 basis set library

The basis set includes element-specific modifications.

Your calculation utilizes the auxiliary basis: cc-pVTZ/JK 
  H, B-F, Al-Cl, Ga-Br : Obtained from the TURBOMOLE 7.0 basis set library

----- AuxC basis set information -----
Your calculation utilizes the auxiliary basis: aug-cc-pVTZ/C 
  H-He, B-F, Al-Ar, Ga-Kr : Obtained from the EMSL Basis Set Exchange (bse.pnl.gov) Feb. 2017
                            F. Weigend, A. Kohn, C. Hattig, J. Chem. Phys. 116, 3175 (2002)
                   Be, Mg : Obtained from the TURBOMOLE 7.0 basis set library
                            C. Haettig, Phys. Chem. Chem. Phys. 7, 59 (2005)
                       Ne : Obtained from the EMSL Basis Set Exchange (bse.pnl.gov) Feb. 2017
                            C. Haettig, Phys. Chem. Chem. Phys. 7, 59 (2005)
                            F. Weigend, A. Kohn, C. Hattig, J. Chem. Phys. 116, 3175 (2002)
                    Sc-Zn : Obtained from the EMSL Basis Set Exchange (bse.pnl.gov) Feb. 2017
                            J. G. Hill, J. A. Platts, J. Chem. Phys. 128, 044104 (2008)

The basis set includes element-specific modifications.

Your calculation utilizes the auxiliary basis: cc-pVTZ/C 
  Obtained from the EMSL Basis Set Exchange (bse.pnl.gov) Feb. 2017
  H-He, B-F, Al-Ar, Ga-Kr : F. Weigend, A. Kohn, C. Hattig, J. Chem. Phys. 116, 3175 (2002)
             Li-Be, Na-Mg : C. Haettig, Phys. Chem. Chem. Phys. 7, 59 (2005)
                       Ne : C. Haettig, Phys. Chem. Chem. Phys. 7, 59 (2005)
                            F. Weigend, A. Kohn, C. Hattig, J. Chem. Phys. 116, 3175 (2002)
                    Sc-Zn : J. G. Hill, J. A. Platts, J. Chem. Phys. 128, 044104 (2008)

================================================================================
                                        WARNINGS
                       Please study these warnings very carefully!
================================================================================


WARNING: Geometry Optimization
  ===> : Switching off AutoStart
         For restart on a previous wavefunction, please use MOREAD

INFO   : the flag for use of the SHARK integral package has been found!



***************************************
The coordinates will be read from file: 
***************************************


Your calculation utilizes the atom-pairwise dispersion correction
with the Becke-Johnson damping scheme (D3BJ)
Cite in your paper:
S.Grimme, S.Ehrlich, L.Goerigk, J Comput Chem, (2011), 32, 1456–1465 
S.Grimme, J.Antony, S.Ehrlich and H.Krieg, J.Chem.Phys., 132, (2010), 154104 
   

Your calculation utilizes the SMD solvation module
Please cite in your paper:
A.V. Marenich, C.J. Cramer, D.G. Truhlar J. Phys. Chem. B, 113, (2009), 6378 

================================================================================

----- Orbital basis set information -----
Your calculation utilizes the basis: aug-cc-pVTZ 
    H, B-Ne : Obtained from the ccRepo (grant-hill.group.shef.ac.uk/ccrepo) Feb. 2017
              R. A. Kendall, T. H. Dunning, Jr., R. J. Harrison, J. Chem. Phys. 96, 6796 (1992)
         He : Obtained from the ccRepo (grant-hill.group.shef.ac.uk/ccrepo) Feb. 2017
              D. E. Woon, T. H. Dunning, Jr., J. Chem. Phys. 100, 2975 (1994)
  Li-Be, Na : Obtained from the ccRepo (grant-hill.group.shef.ac.uk/ccrepo) Feb. 2017
              B. P. Prascher, D. E. Woon, K. A. Peterson, T. H. Dunning, Jr., A. K. Wilson, Theor. Chem. Acc. 128, 69 (2011)
         Mg : Obtained from the Peterson Research Group Website (tyr0.chem.wsu.edu/~kipeters) Feb. 2017
              B. P. Prascher, D. E. Woon, K. A. Peterson, T. H. Dunning, Jr., A. K. Wilson, Theor. Chem. Acc. 128, 69 (2011)
      Al-Ar : Obtained from the ccRepo (grant-hill.group.shef.ac.uk/ccrepo) Feb. 2017
              D. E. Woon, T. H. Dunning, Jr., J. Chem. Phys. 98, 1358 (1993)
      Sc-Zn : Obtained from the ccRepo (grant-hill.group.shef.ac.uk/ccrepo) Feb. 2017
              N. B. Balabanov, K. A. Peterson, J. Chem. Phys. 123, 064107 (2005)
              N. B. Balabanov, K. A. Peterson, J. Chem. Phys. 125, 074110 (2006)
      Ga-Kr : Obtained from the ccRepo (grant-hill.group.shef.ac.uk/ccrepo) Feb. 2017
              A. K. Wilson, D. E. Woon, K. A. Peterson, T. H. Dunning, Jr., J. Chem. Phys. 110, 7667 (1999)
     Ag, Au : Obtained from the Peterson Research Group Website (tyr0.chem.wsu.edu/~kipeters) Feb. 2017
              K. A. Peterson, C. Puzzarini, Theor. Chem. Acc. 114, 283 (2005)

The basis set includes element-specific modifications.

Your calculation utilizes the basis: cc-pVTZ 
       H, B-Ne : Obtained from the ccRepo (grant-hill.group.shef.ac.uk/ccrepo) Feb. 2017
                 T. H. Dunning, Jr., J. Chem. Phys. 90, 1007 (1989)
            He : Obtained from the ccRepo (grant-hill.group.shef.ac.uk/ccrepo) Feb. 2017
                 D. E. Woon, T. H. Dunning, Jr., J. Chem. Phys. 100, 2975 (1994)
  Li-Be, Na-Mg : Obtained from the ccRepo (grant-hill.group.shef.ac.uk/ccrepo) Feb. 2017
                 B. P. Prascher, D. E. Woon, K. A. Peterson, T. H. Dunning, Jr., A. K. Wilson, Theor. Chem. Acc. 128, 69 (2011)
         Al-Ar : Obtained from the ccRepo (grant-hill.group.shef.ac.uk/ccrepo) Feb. 2017
                 D. E. Woon, T. H. Dunning, Jr., J. Chem. Phys. 98, 1358 (1993)
            Ca : Obtained from the Peterson Research Group Website (tyr0.chem.wsu.edu/~kipeters) Feb. 2017
                 J. Koput, K. A. Peterson, J. Phys. Chem. 106, 9595 (2002)
         Sc-Zn : Obtained from the ccRepo (grant-hill.group.shef.ac.uk/ccrepo) Feb. 2017
                 N. B. Balabanov, K. A. Peterson, J. Chem. Phys. 123, 064107 (2005)
                 N. B. Balabanov, K. A. Peterson, J. Chem. Phys. 125, 074110 (2006)
         Ga-Kr : Obtained from the ccRepo (grant-hill.group.shef.ac.uk/ccrepo) Feb. 2017
                 A. K. Wilson, D. E. Woon, K. A. Peterson, T. H. Dunning, Jr., J. Chem. Phys. 110, 7667 (1999)
             Y : Obtained from the ccRepo (grant-hill.group.shef.ac.uk/ccrepo) Feb. 2017
                 K. A. Peterson, D. Figgen, M. Dolg, H. Stoll, J. Chem. Phys. 126, 124101 (2007)
        Ag, Au : Obtained from the Peterson Research Group Website (tyr0.chem.wsu.edu/~kipeters) Feb. 2017
                 K. A. Peterson, C. Puzzarini, Theor. Chem. Acc. 114, 283 (2005)

----- AuxJ basis set information -----
Your calculation utilizes the auxiliary basis: aug-cc-pVTZ/JK 
  H, B-F, Al-Cl, Ga-Br : Obtained from the TURBOMOLE 7.0 basis set library

The basis set includes element-specific modifications.

Your calculation utilizes the auxiliary basis: cc-pVTZ/JK 
  H, B-F, Al-Cl, Ga-Br : Obtained from the TURBOMOLE 7.0 basis set library

----- AuxC basis set information -----
Your calculation utilizes the auxiliary basis: aug-cc-pVTZ/C 
  H-He, B-F, Al-Ar, Ga-Kr : Obtained from the EMSL Basis Set Exchange (bse.pnl.gov) Feb. 2017
                            F. Weigend, A. Kohn, C. Hattig, J. Chem. Phys. 116, 3175 (2002)
                   Be, Mg : Obtained from the TURBOMOLE 7.0 basis set library
                            C. Haettig, Phys. Chem. Chem. Phys. 7, 59 (2005)
                       Ne : Obtained from the EMSL Basis Set Exchange (bse.pnl.gov) Feb. 2017
                            C. Haettig, Phys. Chem. Chem. Phys. 7, 59 (2005)
                            F. Weigend, A. Kohn, C. Hattig, J. Chem. Phys. 116, 3175 (2002)
                    Sc-Zn : Obtained from the EMSL Basis Set Exchange (bse.pnl.gov) Feb. 2017
                            J. G. Hill, J. A. Platts, J. Chem. Phys. 128, 044104 (2008)

The basis set includes element-specific modifications.

Your calculation utilizes the auxiliary basis: cc-pVTZ/C 
  Obtained from the EMSL Basis Set Exchange (bse.pnl.gov) Feb. 2017
  H-He, B-F, Al-Ar, Ga-Kr : F. Weigend, A. Kohn, C. Hattig, J. Chem. Phys. 116, 3175 (2002)
             Li-Be, Na-Mg : C. Haettig, Phys. Chem. Chem. Phys. 7, 59 (2005)
                       Ne : C. Haettig, Phys. Chem. Chem. Phys. 7, 59 (2005)
                            F. Weigend, A. Kohn, C. Hattig, J. Chem. Phys. 116, 3175 (2002)
                    Sc-Zn : J. G. Hill, J. A. Platts, J. Chem. Phys. 128, 044104 (2008)

================================================================================
                                        WARNINGS
                       Please study these warnings very carefully!
================================================================================

INFO   : Checking CIS options ...
  ===> : (D) CORRECTION FOUND - SETTING MODE=3
  ===> : JK MODE FOUND - ACTIVATING RI-MP2 CODE
  ===> : MP2 AND CIS FOUND - CHECKING
WARNING: CIS(D) and MP2 runs must have the same orbital window
  ===> : adjusting orbital windows

WARNING: No MP2 level density has been requested!
         To caclulate MP2 level properties use
         %mp2 Density relaxed end
         or
         %mp2 Density unrelaxed end
         Otherwise for double-hybrid DFT only the energy is correct!

WARNING: The frozen-core approximation is turned on by default for 
         the MP2 part of double-hybrid DFT.

INFO   : the flag for use of the SHARK integral package has been found!

================================================================================
                                       INPUT FILE
================================================================================
NAME = optpbed3-b2plyp-test-583.inp
|  1> ! pbe0 d3bj aug-cc-PVTZ RIJCOSX Opt
|  2> %maxcore 4000
|  3> %basis
|  4>  AuxJ "aug-cc-PVTZ/JK"
|  5>  AuxC "aug-cc-PVTZ/C"
|  6>  newGTO H "cc-PVTZ" end
|  7>  newAuxJGTO H "cc-PVTZ/JK" end
|  8>  newAuxCGTO H "cc-PVTZ/C" end
|  9> end
| 10> %cpcm
| 11>  SMD true
| 12>  SMDsolvent "ethanol"
| 13> end
| 14> %pal nprocs 4 end
| 15> * xyz 0 1
| 16> C          4.63740       -0.81200       -0.47210
| 17> N          3.87370        0.28530        0.06560
| 18> C          4.55950        1.53100        0.31480
| 19> C          2.50190        0.25090        0.01950
| 20> C          1.73550        1.33410        0.51840
| 21> C          0.37140        1.30950        0.52980
| 22> C         -0.35820        0.20380        0.04660
| 23> C         -1.78550        0.13870        0.03170
| 24> C         -2.41560       -0.96880       -0.51930
| 25> C         -1.64680       -2.02550       -1.03570
| 26> C         -0.28380       -1.98930       -1.01580
| 27> C          0.39950       -0.87510       -0.48410
| 28> C          1.80250       -0.83180       -0.48610
| 29> C         -3.91070       -1.10280       -0.60780
| 30> C         -4.64400       -0.13450        0.30770
| 31> C         -4.04320        1.25330        0.12770
| 32> C         -2.60550        1.22470        0.60660
| 33> O         -2.21110        2.03300        1.42130
| 34> H          4.30540       -1.75210       -0.02750
| 35> H          5.68770       -0.67790       -0.22170
| 36> H          4.54720       -0.88900       -1.56320
| 37> H          5.62730        1.39180        0.16320
| 38> H          4.40630        1.86070        1.34640
| 39> H          4.22030        2.32410       -0.36020
| 40> H          2.23300        2.20730        0.90750
| 41> H         -0.16070        2.15780        0.92620
| 42> H         -2.16050       -2.88260       -1.44910
| 43> H          0.29170       -2.81620       -1.40790
| 44> H          2.31630       -1.67850       -0.91250
| 45> H         -4.20310       -0.90590       -1.64640
| 46> H         -4.19730       -2.13320       -0.38320
| 47> H         -5.71060       -0.12380        0.07400
| 48> H         -4.52970       -0.44560        1.34900
| 49> H         -4.06200        1.53200       -0.92930
| 50> H         -4.58770        2.00610        0.69950
| 51> *
| 52> 
| 53> 
| 54> $new_job
| 55> ! b2plyp aug-cc-PVTZ RIJCOSX SP
| 56> %maxcore 4000
| 57> %basis
| 58>  AuxJ "aug-cc-PVTZ/JK"
| 59>  AuxC "aug-cc-PVTZ/C"
| 60>  newGTO H "cc-PVTZ" end
| 61>  newAuxJGTO H "cc-PVTZ/JK" end
| 62>  newAuxCGTO H "cc-PVTZ/C" end
| 63> end
| 64> %cpcm
| 65>  SMD true
| 66>  SMDsolvent "ethanol"
| 67> end
| 68> %pal nprocs 4 end
| 69> %tddft
| 70>  nroots 10
| 71>  maxdim 7
| 72> end
| 73> * xyzfile 0 1
| 74> 
| 75>                          ****END OF INPUT****
================================================================================


                 $$$$$$$$$$$$$$$$$$$$$$$$$$$$$$$$$$$$$$$$$$$$$$ 
                 $ THERE ARE  2 JOBS TO BE PROCESSED THIS RUN $
                 $$$$$$$$$$$$$$$$$$$$$$$$$$$$$$$$$$$$$$$$$$$$$$ 




                 $$$$$$$$$$$$$$$$  JOB NUMBER  1 $$$$$$$$$$$$$$


                       *****************************
                       * Geometry Optimization Run *
                       *****************************

Geometry optimization settings:
Update method            Update   .... BFGS
Choice of coordinates    CoordSys .... Z-matrix Internals
Initial Hessian          InHess   .... Almoef's Model

Convergence Tolerances:
Energy Change            TolE     ....  5.0000e-06 Eh
Max. Gradient            TolMAXG  ....  3.0000e-04 Eh/bohr
RMS Gradient             TolRMSG  ....  1.0000e-04 Eh/bohr
Max. Displacement        TolMAXD  ....  4.0000e-03 bohr
RMS Displacement         TolRMSD  ....  2.0000e-03 bohr
Strict Convergence                ....  False
------------------------------------------------------------------------------
                        ORCA OPTIMIZATION COORDINATE SETUP
------------------------------------------------------------------------------

The optimization will be done in new redundant internal coordinates
Making redundant internal coordinates   ...  (new redundants) done
Evaluating the initial hessian          ...  (Almloef) done
Evaluating the coordinates              ...  done
Calculating the B-matrix                .... done
Calculating the G-matrix                .... done
Diagonalizing the G-matrix              .... done
Small eigenvalue found = 8.362e-03
Small eigenvalue found = 2.577e-02
Small eigenvalue found = 2.938e-02
The first mode is                       ....   98
The number of degrees of freedom        ....   99

    -----------------------------------------------------------------
                    Redundant Internal Coordinates


    -----------------------------------------------------------------
         Definition                    Initial Value    Approx d2E/dq
    -----------------------------------------------------------------
      1. B(N   1,C   0)                  1.4410         0.464022   
      2. B(C   2,N   1)                  1.4437         0.459456   
      3. B(C   3,N   1)                  1.3730         0.595647   
      4. B(C   4,C   3)                  1.4176         0.564551   
      5. B(C   5,C   4)                  1.3644         0.686484   
      6. B(C   6,C   5)                  1.4101         0.580332   
      7. B(C   7,C   6)                  1.4289         0.541673   
      8. B(C   8,C   7)                  1.3882         0.628872   
      9. B(C   9,C   8)                  1.4051         0.591057   
     10. B(C  10,C   9)                  1.3636         0.688362   
     11. B(C  11,C  10)                  1.4110         0.578314   
     12. B(C  11,C   6)                  1.4212         0.557159   
     13. B(C  12,C  11)                  1.4037         0.594196   
     14. B(C  12,C   3)                  1.3846         0.637387   
     15. B(C  13,C   8)                  1.5037         0.411470   
     16. B(C  14,C  13)                  1.5210         0.386117   
     17. B(C  15,C  14)                  1.5229         0.383389   
     18. B(C  16,C  15)                  1.5156         0.393821   
     19. B(C  16,C   7)                  1.4773         0.453436   
     20. B(O  17,C  16)                  1.2135         1.070125   
     21. B(H  18,C   0)                  1.0916         0.357935   
     22. B(H  19,C   0)                  1.0880         0.362713   
     23. B(H  20,C   0)                  1.0975         0.350280   
     24. B(H  21,C   2)                  1.0875         0.363484   
     25. B(H  22,C   2)                  1.0938         0.355124   
     26. B(H  23,C   2)                  1.0953         0.353152   
     27. B(H  24,C   4)                  1.0777         0.376779   
     28. B(H  25,C   5)                  1.0770         0.377749   
     29. B(H  26,C   9)                  1.0814         0.371670   
     30. B(H  27,C  10)                  1.0811         0.372113   
     31. B(H  28,C  12)                  1.0783         0.375930   
     32. B(H  29,C  13)                  1.0968         0.351223   
     33. B(H  30,C  13)                  1.0928         0.356357   
     34. B(H  31,C  14)                  1.0920         0.357523   
     35. B(H  32,C  14)                  1.0928         0.356450   
     36. B(H  33,C  15)                  1.0933         0.355778   
     37. B(H  34,C  15)                  1.0909         0.358863   
     38. A(N   1,C   0,H  18)          110.0369         0.333787   
     39. A(N   1,C   0,H  20)          112.3852         0.332592   
     40. A(H  18,C   0,H  19)          107.8179         0.290894   
     41. A(H  18,C   0,H  20)          108.6314         0.289307   
     42. A(N   1,C   0,H  19)          109.3827         0.334522   
     43. A(H  19,C   0,H  20)          108.4680         0.289909   
     44. A(C   2,N   1,C   3)          120.1348         0.403289   
     45. A(C   0,N   1,C   2)          118.0160         0.386018   
     46. A(C   0,N   1,C   3)          119.8620         0.403993   
     47. A(H  21,C   2,H  22)          107.9146         0.290631   
     48. A(N   1,C   2,H  23)          111.7962         0.332497   
     49. A(N   1,C   2,H  22)          110.8768         0.332804   
     50. A(H  21,C   2,H  23)          108.1113         0.290377   
     51. A(N   1,C   2,H  21)          109.3864         0.334091   
     52. A(H  22,C   2,H  23)          108.6382         0.289320   
     53. A(N   1,C   3,C  12)          122.4490         0.430267   
     54. A(N   1,C   3,C   4)          120.6103         0.421021   
     55. A(C   4,C   3,C  12)          116.9321         0.428947   
     56. A(C   3,C   4,C   5)          121.9844         0.434705   
     57. A(C   3,C   4,H  24)          119.7764         0.350033   
     58. A(C   5,C   4,H  24)          118.2385         0.361846   
     59. A(C   4,C   5,C   6)          121.9099         0.436869   
     60. A(C   6,C   5,H  25)          119.2174         0.351820   
     61. A(C   4,C   5,H  25)          118.8714         0.362005   
     62. A(C   5,C   6,C   7)          123.7896         0.418706   
     63. A(C   7,C   6,C  11)          119.6092         0.415679   
     64. A(C   5,C   6,C  11)          116.5757         0.420817   
     65. A(C   6,C   7,C  16)          121.1260         0.400798   
     66. A(C   8,C   7,C  16)          119.2749         0.411511   
     67. A(C   6,C   7,C   8)          119.5958         0.424755   
     68. A(C   9,C   8,C  13)          117.0887         0.400102   
     69. A(C   7,C   8,C  13)          123.0755         0.404499   
     70. A(C   7,C   8,C   9)          119.8340         0.431452   
     71. A(C  10,C   9,H  26)          120.0952         0.361172   
     72. A(C   8,C   9,H  26)          118.4663         0.351944   
     73. A(C   8,C   9,C  10)          121.4374         0.438530   
     74. A(C  11,C  10,H  27)          118.8724         0.350721   
     75. A(C   9,C  10,C  11)          120.6965         0.436810   
     76. A(C   9,C  10,H  27)          120.4311         0.361246   
     77. A(C   6,C  11,C  10)          118.8149         0.420555   
     78. A(C  10,C  11,C  12)          120.5202         0.425420   
     79. A(C   6,C  11,C  12)          120.6642         0.422594   
     80. A(C  11,C  12,H  28)          116.9112         0.352939   
     81. A(C   3,C  12,H  28)          121.1803         0.357165   
     82. A(C   3,C  12,C  11)          121.9042         0.432908   
     83. A(C  14,C  13,H  30)          110.4936         0.325524   
     84. A(H  29,C  13,H  30)          107.0955         0.289228   
     85. A(C   8,C  13,H  30)          109.4314         0.328953   
     86. A(C  14,C  13,H  29)          109.0959         0.324749   
     87. A(C   8,C  13,H  29)          107.7464         0.328167   
     88. A(C   8,C  13,C  14)          112.7804         0.371521   
     89. A(C  15,C  14,H  32)          109.3166         0.325159   
     90. A(H  31,C  14,H  32)          107.9927         0.290047   
     91. A(C  13,C  14,H  32)          109.9918         0.325538   
     92. A(C  15,C  14,H  31)          110.5555         0.325320   
     93. A(C  13,C  14,H  31)          110.3857         0.325699   
     94. A(C  13,C  14,C  15)          108.5898         0.367037   
     95. A(C  16,C  15,H  33)          109.0630         0.326497   
     96. A(C  14,C  15,H  33)          109.8637         0.325058   
     97. A(C  14,C  15,C  16)          108.6432         0.368283   
     98. A(H  33,C  15,H  34)          108.7991         0.290132   
     99. A(C  16,C  15,H  34)          108.7147         0.326961   
    100. A(C  14,C  15,H  34)          111.7136         0.325520   
    101. A(C  15,C  16,O  17)          120.5209         0.438427   
    102. A(C   7,C  16,O  17)          124.7869         0.449754   
    103. A(C   7,C  16,C  15)          114.6734         0.379094   
    104. D(C   2,N   1,C   0,H  19)     24.0434         0.018386   
    105. D(C   3,N   1,C   0,H  18)    -53.6976         0.018386   
    106. D(C   2,N   1,C   0,H  20)    -96.4924         0.018386   
    107. D(C   3,N   1,C   0,H  20)     67.4995         0.018386   
    108. D(C   2,N   1,C   0,H  18)    142.3105         0.018386   
    109. D(C   3,N   1,C   0,H  19)   -171.9647         0.018386   
    110. D(H  21,C   2,N   1,C   0)     -7.4036         0.018020   
    111. D(H  21,C   2,N   1,C   3)   -171.3503         0.018020   
    112. D(H  22,C   2,N   1,C   0)   -126.2988         0.018020   
    113. D(H  23,C   2,N   1,C   3)    -51.6383         0.018020   
    114. D(H  22,C   2,N   1,C   3)     69.7545         0.018020   
    115. D(H  23,C   2,N   1,C   0)    112.3084         0.018020   
    116. D(C   4,C   3,N   1,C   2)    -15.0240         0.028559   
    117. D(C  12,C   3,N   1,C   0)      2.4252         0.028559   
    118. D(C  12,C   3,N   1,C   2)    166.0752         0.028559   
    119. D(C   4,C   3,N   1,C   0)   -178.6741         0.028559   
    120. D(H  24,C   4,C   3,C  12)   -178.9802         0.021846   
    121. D(H  24,C   4,C   3,N   1)      2.0602         0.021846   
    122. D(C   5,C   4,C   3,N   1)   -177.6452         0.021846   
    123. D(C   5,C   4,C   3,C  12)      1.3144         0.021846   
    124. D(H  25,C   5,C   4,H  24)     -0.0872         0.033084   
    125. D(H  25,C   5,C   4,C   3)    179.6226         0.033084   
    126. D(C   6,C   5,C   4,H  24)   -179.6579         0.033084   
    127. D(C   6,C   5,C   4,C   3)      0.0518         0.033084   
    128. D(C  11,C   6,C   5,H  25)    178.9883         0.023140   
    129. D(C  11,C   6,C   5,C   4)     -1.4424         0.023140   
    130. D(C   7,C   6,C   5,H  25)      0.8358         0.023140   
    131. D(C   7,C   6,C   5,C   4)   -179.5949         0.023140   
    132. D(C  16,C   7,C   6,C   5)     -3.5338         0.020052   
    133. D(C   8,C   7,C   6,C  11)     -0.9655         0.020052   
    134. D(C   8,C   7,C   6,C   5)    177.1340         0.020052   
    135. D(C  16,C   7,C   6,C  11)    178.3667         0.020052   
    136. D(C  13,C   8,C   7,C  16)      2.2663         0.027414   
    137. D(C  13,C   8,C   7,C   6)   -178.3890         0.027414   
    138. D(C   9,C   8,C   7,C  16)   -178.2301         0.027414   
    139. D(C   9,C   8,C   7,C   6)      1.1146         0.027414   
    140. D(H  26,C   9,C   8,C  13)     -1.1805         0.024046   
    141. D(H  26,C   9,C   8,C   7)    179.2867         0.024046   
    142. D(C  10,C   9,C   8,C  13)    179.2127         0.024046   
    143. D(C  10,C   9,C   8,C   7)     -0.3201         0.024046   
    144. D(H  27,C  10,C   9,H  26)     -0.2651         0.033280   
    145. D(H  27,C  10,C   9,C   8)    179.3354         0.033280   
    146. D(C  11,C  10,C   9,H  26)    179.7560         0.033280   
    147. D(C  11,C  10,C   9,C   8)     -0.6436         0.033280   
    148. D(C  12,C  11,C  10,H  27)      1.1057         0.022972   
    149. D(C  12,C  11,C  10,C   9)   -178.9150         0.022972   
    150. D(C   6,C  11,C  10,H  27)   -179.2055         0.022972   
    151. D(C   6,C  11,C  10,C   9)      0.7738         0.022972   
    152. D(C  12,C  11,C   6,C   7)    179.7165         0.021256   
    153. D(C  12,C  11,C   6,C   5)      1.4825         0.021256   
    154. D(C  10,C  11,C   6,C   5)   -178.2058         0.021256   
    155. D(C  10,C  11,C   6,C   7)      0.0281         0.021256   
    156. D(H  28,C  12,C  11,C  10)      0.2862         0.024315   
    157. D(C   3,C  12,C  11,C  10)    179.5406         0.024315   
    158. D(C   3,C  12,C  11,C   6)     -0.1424         0.024315   
    159. D(H  28,C  12,C   3,C   4)    177.9700         0.028211   
    160. D(H  28,C  12,C   3,N   1)     -3.0911         0.028211   
    161. D(H  28,C  12,C  11,C   6)   -179.3968         0.024315   
    162. D(C  11,C  12,C   3,C   4)     -1.2529         0.028211   
    163. D(C  11,C  12,C   3,N   1)    177.6860         0.028211   
    164. D(H  29,C  13,C   8,C   7)    103.5724         0.012536   
    165. D(C  14,C  13,C   8,C   9)    163.5947         0.012536   
    166. D(C  14,C  13,C   8,C   7)    -16.8890         0.012536   
    167. D(H  30,C  13,C   8,C   9)     40.1722         0.012536   
    168. D(H  30,C  13,C   8,C   7)   -140.3114         0.012536   
    169. D(H  29,C  13,C   8,C   9)    -75.9440         0.012536   
    170. D(H  32,C  14,C  13,H  29)    168.2694         0.011863   
    171. D(H  32,C  14,C  13,C   8)    -72.0455         0.011863   
    172. D(H  31,C  14,C  13,H  30)    -68.2833         0.011863   
    173. D(H  31,C  14,C  13,H  29)     49.2004         0.011863   
    174. D(H  31,C  14,C  13,C   8)    168.8856         0.011863   
    175. D(C  15,C  14,C  13,H  30)    170.3723         0.011863   
    176. D(C  15,C  14,C  13,H  29)    -72.1440         0.011863   
    177. D(H  32,C  14,C  13,H  30)     50.7857         0.011863   
    178. D(C  15,C  14,C  13,C   8)     47.5411         0.011863   
    179. D(H  34,C  15,C  14,H  32)    -64.8090         0.011704   
    180. D(H  34,C  15,C  14,H  31)     53.9431         0.011704   
    181. D(H  34,C  15,C  14,C  13)    175.1832         0.011704   
    182. D(H  33,C  15,C  14,H  32)    174.3488         0.011704   
    183. D(H  33,C  15,C  14,H  31)    -66.8991         0.011704   
    184. D(H  33,C  15,C  14,C  13)     54.3411         0.011704   
    185. D(C  16,C  15,C  14,H  32)     55.1141         0.011704   
    186. D(C  16,C  15,C  14,H  31)    173.8662         0.011704   
    187. D(C  16,C  15,C  14,C  13)    -64.8936         0.011704   
    188. D(O  17,C  16,C  15,H  34)     -5.4269         0.011527   
    189. D(O  17,C  16,C  15,H  33)    113.0657         0.011527   
    190. D(O  17,C  16,C  15,C  14)   -127.1992         0.011527   
    191. D(C   7,C  16,C  15,H  34)    173.0695         0.011527   
    192. D(C   7,C  16,C  15,H  33)    -68.4379         0.011527   
    193. D(C   7,C  16,C  15,C  14)     51.2972         0.011527   
    194. D(O  17,C  16,C   7,C   8)    158.4639         0.014012   
    195. D(O  17,C  16,C   7,C   6)    -20.8704         0.014012   
    196. D(C  15,C  16,C   7,C   8)    -19.9590         0.014012   
    197. D(C  15,C  16,C   7,C   6)    160.7067         0.014012   
    -----------------------------------------------------------------

Number of atoms                         .... 35
Number of degrees of freedom            .... 197

         *************************************************************
         *                GEOMETRY OPTIMIZATION CYCLE   1            *
         *************************************************************
---------------------------------
CARTESIAN COORDINATES (ANGSTROEM)
---------------------------------
  C      4.637400   -0.812000   -0.472100
  N      3.873700    0.285300    0.065600
  C      4.559500    1.531000    0.314800
  C      2.501900    0.250900    0.019500
  C      1.735500    1.334100    0.518400
  C      0.371400    1.309500    0.529800
  C     -0.358200    0.203800    0.046600
  C     -1.785500    0.138700    0.031700
  C     -2.415600   -0.968800   -0.519300
  C     -1.646800   -2.025500   -1.035700
  C     -0.283800   -1.989300   -1.015800
  C      0.399500   -0.875100   -0.484100
  C      1.802500   -0.831800   -0.486100
  C     -3.910700   -1.102800   -0.607800
  C     -4.644000   -0.134500    0.307700
  C     -4.043200    1.253300    0.127700
  C     -2.605500    1.224700    0.606600
  O     -2.211100    2.033000    1.421300
  H      4.305400   -1.752100   -0.027500
  H      5.687700   -0.677900   -0.221700
  H      4.547200   -0.889000   -1.563200
  H      5.627300    1.391800    0.163200
  H      4.406300    1.860700    1.346400
  H      4.220300    2.324100   -0.360200
  H      2.233000    2.207300    0.907500
  H     -0.160700    2.157800    0.926200
  H     -2.160500   -2.882600   -1.449100
  H      0.291700   -2.816200   -1.407900
  H      2.316300   -1.678500   -0.912500
  H     -4.203100   -0.905900   -1.646400
  H     -4.197300   -2.133200   -0.383200
  H     -5.710600   -0.123800    0.074000
  H     -4.529700   -0.445600    1.349000
  H     -4.062000    1.532000   -0.929300
  H     -4.587700    2.006100    0.699500

----------------------------
CARTESIAN COORDINATES (A.U.)
----------------------------
  NO LB      ZA    FRAG     MASS         X           Y           Z
   0 C     6.0000    0    12.011    8.763416   -1.534458   -0.892140
   1 N     7.0000    0    14.007    7.320232    0.539139    0.123966
   2 C     6.0000    0    12.011    8.616206    2.893171    0.594886
   3 C     6.0000    0    12.011    4.727906    0.474132    0.036850
   4 C     6.0000    0    12.011    3.279620    2.521084    0.979634
   5 C     6.0000    0    12.011    0.701844    2.474596    1.001177
   6 C     6.0000    0    12.011   -0.676900    0.385126    0.088061
   7 C     6.0000    0    12.011   -3.374106    0.262105    0.059904
   8 C     6.0000    0    12.011   -4.564822   -1.830767   -0.981335
   9 C     6.0000    0    12.011   -3.112001   -3.827640   -1.957189
  10 C     6.0000    0    12.011   -0.536304   -3.759232   -1.919584
  11 C     6.0000    0    12.011    0.754946   -1.653699   -0.914816
  12 C     6.0000    0    12.011    3.406231   -1.571874   -0.918596
  13 C     6.0000    0    12.011   -7.390152   -2.083990   -1.148576
  14 C     6.0000    0    12.011   -8.775888   -0.254168    0.581469
  15 C     6.0000    0    12.011   -7.640541    2.368394    0.241318
  16 C     6.0000    0    12.011   -4.923681    2.314348    1.146308
  17 O     8.0000    0    15.999   -4.178373    3.841813    2.685868
  18 H     1.0000    0     1.008    8.136027   -3.310989   -0.051967
  19 H     1.0000    0     1.008   10.748195   -1.281045   -0.418952
  20 H     1.0000    0     1.008    8.592963   -1.679967   -2.954020
  21 H     1.0000    0     1.008   10.634056    2.630121    0.308403
  22 H     1.0000    0     1.008    8.326700    3.516213    2.544327
  23 H     1.0000    0     1.008    7.975211    4.391913   -0.680679
  24 H     1.0000    0     1.008    4.219758    4.171192    1.714926
  25 H     1.0000    0     1.008   -0.303679    4.077651    1.750264
  26 H     1.0000    0     1.008   -4.082753   -5.447325   -2.738402
  27 H     1.0000    0     1.008    0.551233   -5.321847   -2.660545
  28 H     1.0000    0     1.008    4.377173   -3.171905   -1.724375
  29 H     1.0000    0     1.008   -7.942708   -1.711903   -3.111245
  30 H     1.0000    0     1.008   -7.931748   -4.031164   -0.724143
  31 H     1.0000    0     1.008  -10.791470   -0.233948    0.139840
  32 H     1.0000    0     1.008   -8.559892   -0.842062    2.549241
  33 H     1.0000    0     1.008   -7.676068    2.895060   -1.756122
  34 H     1.0000    0     1.008   -8.669497    3.790980    1.321863

--------------------------------
INTERNAL COORDINATES (ANGSTROEM)
--------------------------------
 C      0   0   0     0.000000000000     0.00000000     0.00000000
 N      1   0   0     1.440981009590     0.00000000     0.00000000
 C      2   1   0     1.443672667193   118.01597209     0.00000000
 C      2   1   3     1.373005393289   119.86203092   163.99192475
 C      4   2   1     1.417600934678   120.61030534   181.32594891
 C      5   4   2     1.364369425779   121.98440465   182.35482977
 C      6   5   4     1.410096057012   121.90985225     0.05182928
 C      7   6   5     1.428861543327   123.78961825   180.40510148
 C      8   7   6     1.388230261880   119.59575814   177.13396675
 C      9   8   7     1.405111130836   119.83400792     1.11457540
 C     10   9   8     1.363625846778   121.43739393   359.67992396
 C     11  10   9     1.411044088610   120.69649075   359.35643774
 C      4   2   1     1.384568889583   122.44899629     2.42515950
 C      9   8   7     1.503699524506   123.07554288   181.61095784
 C     14   9   8     1.521010857949   112.78041401   343.11103529
 C     15  14   9     1.522941062550   108.58981172    47.54111982
 C      8   7   6     1.477263013143   121.12601739   356.46620785
 O     17   8   7     1.213522286569   124.78690057   339.12955737
 H      1   2   3     1.091641502509   110.03691926   142.31048089
 H      1   2   3     1.088031736669   109.38267803    24.04336296
 H      1   2   3     1.097526423372   112.38520510   263.50760882
 H      3   2   1     1.087453925461   109.38638777   352.59642859
 H      3   2   1     1.093787406217   110.87680761   233.70116071
 H      3   2   1     1.095303268506   111.79619247   112.30839662
 H      5   4   2     1.077674950994   119.77643267     2.06023944
 H      6   5   4     1.076975515042   118.87136043   179.62257403
 H     10   9   8     1.081391538713   118.46627281   179.28665868
 H     11  10   9     1.081067190326   120.43107721   179.33536096
 H     13   4   2     1.078289520491   121.18032514   356.90889108
 H     14   9   8     1.096794114682   107.74641304   103.57239350
 H     14   9   8     1.092844398805   109.43137075   219.68858644
 H     15  14   9     1.091955008231   110.38570139   168.88556754
 H     15  14   9     1.092773256444   109.99183122   287.95450919
 H     16  15  14     1.093286847081   109.86373579    54.34105893
 H     16  15  14     1.090936904683   111.71361930   175.18323693

---------------------------
INTERNAL COORDINATES (A.U.)
---------------------------
 C      0   0   0     0.000000000000     0.00000000     0.00000000
 N      1   0   0     2.723059472307     0.00000000     0.00000000
 C      2   1   0     2.728145968022   118.01597209     0.00000000
 C      2   1   3     2.594604173713   119.86203092   163.99192475
 C      4   2   1     2.678877533732   120.61030534   181.32594891
 C      5   4   2     2.578284560217   121.98440465   182.35482977
 C      6   5   4     2.664695370274   121.90985225     0.05182928
 C      7   6   5     2.700157000181   123.78961825   180.40510148
 C      8   7   6     2.623375005775   119.59575814   177.13396675
 C      9   8   7     2.655275225005   119.83400792     1.11457540
 C     10   9   8     2.576879399546   121.43739393   359.67992396
 C     11  10   9     2.666486890361   120.69649075   359.35643774
 C      4   2   1     2.616456014859   122.44899629     2.42515950
 C      9   8   7     2.841580289024   123.07554288   181.61095784
 C     14   9   8     2.874293968245   112.78041401   343.11103529
 C     15  14   9     2.877941526322   108.58981172    47.54111982
 C      8   7   6     2.791622522611   121.12601739   356.46620785
 O     17   8   7     2.293224779026   124.78690057   339.12955737
 H      1   2   3     2.062903476164   110.03691926   142.31048089
 H      1   2   3     2.056082007320   109.38267803    24.04336296
 H      1   2   3     2.074024364915   112.38520510   263.50760882
 H      3   2   1     2.054990102378   109.38638777   352.59642859
 H      3   2   1     2.066958646483   110.87680761   233.70116071
 H      3   2   1     2.069823211065   111.79619247   112.30839662
 H      5   4   2     2.036510518766   119.77643267     2.06023944
 H      6   5   4     2.035188776368   118.87136043   179.62257403
 H     10   9   8     2.043533851707   118.46627281   179.28665868
 H     11  10   9     2.042920922084   120.43107721   179.33536096
 H     13   4   2     2.037671886805   121.18032514   356.90889108
 H     14   9   8     2.072640502045   107.74641304   103.57239350
 H     14   9   8     2.065176620732   109.43137075   219.68858644
 H     15  14   9     2.063495916120   110.38570139   168.88556754
 H     15  14   9     2.065042181153   109.99183122   287.95450919
 H     16  15  14     2.066012726801   109.86373579    54.34105893
 H     16  15  14     2.061571979239   111.71361930   175.18323693

---------------------
BASIS SET INFORMATION
---------------------
There are 4 groups of distinct atoms

 Group   1 Type C   : 19s6p3d2f contracted to 5s4p3d2f pattern {88111/3111/111/11}
 Group   2 Type N   : 19s6p3d2f contracted to 5s4p3d2f pattern {88111/3111/111/11}
 Group   3 Type O   : 19s6p3d2f contracted to 5s4p3d2f pattern {88111/3111/111/11}
 Group   4 Type H   : 5s2p1d contracted to 3s2p1d pattern {311/11/1}

Atom   0C    basis set group =>   1
Atom   1N    basis set group =>   2
Atom   2C    basis set group =>   1
Atom   3C    basis set group =>   1
Atom   4C    basis set group =>   1
Atom   5C    basis set group =>   1
Atom   6C    basis set group =>   1
Atom   7C    basis set group =>   1
Atom   8C    basis set group =>   1
Atom   9C    basis set group =>   1
Atom  10C    basis set group =>   1
Atom  11C    basis set group =>   1
Atom  12C    basis set group =>   1
Atom  13C    basis set group =>   1
Atom  14C    basis set group =>   1
Atom  15C    basis set group =>   1
Atom  16C    basis set group =>   1
Atom  17O    basis set group =>   3
Atom  18H    basis set group =>   4
Atom  19H    basis set group =>   4
Atom  20H    basis set group =>   4
Atom  21H    basis set group =>   4
Atom  22H    basis set group =>   4
Atom  23H    basis set group =>   4
Atom  24H    basis set group =>   4
Atom  25H    basis set group =>   4
Atom  26H    basis set group =>   4
Atom  27H    basis set group =>   4
Atom  28H    basis set group =>   4
Atom  29H    basis set group =>   4
Atom  30H    basis set group =>   4
Atom  31H    basis set group =>   4
Atom  32H    basis set group =>   4
Atom  33H    basis set group =>   4
Atom  34H    basis set group =>   4
---------------------------------
AUXILIARY/J BASIS SET INFORMATION
---------------------------------
There are 4 groups of distinct atoms

 Group   1 Type C   : 10s7p5d2f1g contracted to 10s7p5d2f1g pattern {1111111111/1111111/11111/11/1}
 Group   2 Type N   : 10s7p5d2f1g contracted to 10s7p5d2f1g pattern {1111111111/1111111/11111/11/1}
 Group   3 Type O   : 10s7p5d2f1g contracted to 10s7p5d2f1g pattern {1111111111/1111111/11111/11/1}
 Group   4 Type H   : 4s3p2d1f contracted to 4s3p2d1f pattern {1111/111/11/1}

Atom   0C    basis set group =>   1
Atom   1N    basis set group =>   2
Atom   2C    basis set group =>   1
Atom   3C    basis set group =>   1
Atom   4C    basis set group =>   1
Atom   5C    basis set group =>   1
Atom   6C    basis set group =>   1
Atom   7C    basis set group =>   1
Atom   8C    basis set group =>   1
Atom   9C    basis set group =>   1
Atom  10C    basis set group =>   1
Atom  11C    basis set group =>   1
Atom  12C    basis set group =>   1
Atom  13C    basis set group =>   1
Atom  14C    basis set group =>   1
Atom  15C    basis set group =>   1
Atom  16C    basis set group =>   1
Atom  17O    basis set group =>   3
Atom  18H    basis set group =>   4
Atom  19H    basis set group =>   4
Atom  20H    basis set group =>   4
Atom  21H    basis set group =>   4
Atom  22H    basis set group =>   4
Atom  23H    basis set group =>   4
Atom  24H    basis set group =>   4
Atom  25H    basis set group =>   4
Atom  26H    basis set group =>   4
Atom  27H    basis set group =>   4
Atom  28H    basis set group =>   4
Atom  29H    basis set group =>   4
Atom  30H    basis set group =>   4
Atom  31H    basis set group =>   4
Atom  32H    basis set group =>   4
Atom  33H    basis set group =>   4
Atom  34H    basis set group =>   4
---------------------------------
AUXILIARY/C BASIS SET INFORMATION
---------------------------------
There are 4 groups of distinct atoms

 Group   1 Type C   : 9s7p6d4f2g contracted to 9s7p6d4f2g pattern {111111111/1111111/111111/1111/11}
 Group   2 Type N   : 9s7p6d4f2g contracted to 9s7p6d4f2g pattern {111111111/1111111/111111/1111/11}
 Group   3 Type O   : 9s7p6d4f2g contracted to 9s7p6d4f2g pattern {111111111/1111111/111111/1111/11}
 Group   4 Type H   : 4s3p2d1f contracted to 4s3p2d1f pattern {1111/111/11/1}

Atom   0C    basis set group =>   1
Atom   1N    basis set group =>   2
Atom   2C    basis set group =>   1
Atom   3C    basis set group =>   1
Atom   4C    basis set group =>   1
Atom   5C    basis set group =>   1
Atom   6C    basis set group =>   1
Atom   7C    basis set group =>   1
Atom   8C    basis set group =>   1
Atom   9C    basis set group =>   1
Atom  10C    basis set group =>   1
Atom  11C    basis set group =>   1
Atom  12C    basis set group =>   1
Atom  13C    basis set group =>   1
Atom  14C    basis set group =>   1
Atom  15C    basis set group =>   1
Atom  16C    basis set group =>   1
Atom  17O    basis set group =>   3
Atom  18H    basis set group =>   4
Atom  19H    basis set group =>   4
Atom  20H    basis set group =>   4
Atom  21H    basis set group =>   4
Atom  22H    basis set group =>   4
Atom  23H    basis set group =>   4
Atom  24H    basis set group =>   4
Atom  25H    basis set group =>   4
Atom  26H    basis set group =>   4
Atom  27H    basis set group =>   4
Atom  28H    basis set group =>   4
Atom  29H    basis set group =>   4
Atom  30H    basis set group =>   4
Atom  31H    basis set group =>   4
Atom  32H    basis set group =>   4
Atom  33H    basis set group =>   4
Atom  34H    basis set group =>   4


           ************************************************************
           *        Program running with 4 parallel MPI-processes     *
           *              working on a common directory               *
           ************************************************************
------------------------------------------------------------------------------
                           ORCA GTO INTEGRAL CALCULATION
                           -- RI-GTO INTEGRALS CHOSEN --
------------------------------------------------------------------------------
------------------------------------------------------------------------------
                   ___                                                        
                  /   \      - P O W E R E D   B Y -                         
                 /     \                                                     
                 |  |  |   _    _      __       _____    __    __             
                 |  |  |  | |  | |    /  \     |  _  \  |  |  /  |          
                  \  \/   | |  | |   /    \    | | | |  |  | /  /          
                 / \  \   | |__| |  /  /\  \   | |_| |  |  |/  /          
                |  |  |   |  __  | /  /__\  \  |    /   |      \           
                |  |  |   | |  | | |   __   |  |    \   |  |\   \          
                \     /   | |  | | |  |  |  |  | |\  \  |  | \   \       
                 \___/    |_|  |_| |__|  |__|  |_| \__\ |__|  \__/        
                                                                              
                      - O R C A' S   B I G   F R I E N D -                    
                                      &                                       
                       - I N T E G R A L  F E E D E R -                       
                                                                              
 v1 FN, 2020, v2 2021                                                         
------------------------------------------------------------------------------


Reading SHARK input file optpbed3-b2plyp-test-583.SHARKINP.tmp ... ok
----------------------
SHARK INTEGRAL PACKAGE
----------------------

Number of atoms                             ...     35
Number of basis functions                   ...   1174
Number of shells                            ...    462
Maximum angular momentum                    ...      3
Integral batch strategy                     ... SHARK/LIBINT Hybrid
RI-J (if used) integral strategy            ... SPLIT-RIJ (Revised 2003 algorithm where possible)
Printlevel                                  ...      1
Contraction scheme used                     ... PARTIAL GENERAL contraction
Coulomb Range Separation                    ... NOT USED
Exchange Range Separation                   ... NOT USED
Finite Nucleus Model                        ... NOT USED
Auxiliary Coulomb fitting basis             ... AVAILABLE
   # of basis functions in Aux-J            ...   1932
   # of shells in Aux-J                     ...    620
   Maximum angular momentum in Aux-J        ...      4
Auxiliary J/K fitting basis                 ... NOT available
Auxiliary Correlation fitting basis         ... AVAILABLE
   # of basis functions in Aux-C            ...   2418
   # of shells in Aux-C                     ...    674
   Maximum angular momentum in Aux-C        ...      4
Auxiliary 'external' fitting basis          ... NOT available
Integral threshold                          ...     2.500000e-11
Primitive cut-off                           ...     2.500000e-12
Primitive pair pre-selection threshold      ...     2.500000e-12

Calculating pre-screening integrals         ... done (  0.2 sec) Dimension = 462
Calculating pre-screening integrals (ORCA)  ... done (  0.5 sec) Dimension = 354
Organizing shell pair data                  ... done (  1.4 sec)
Shell pair information
Total number of shell pairs                 ...    106953
Shell pairs after pre-screening             ...     72365
Total number of primitive shell pairs       ...    141883
Primitive shell pairs kept                  ...     86184
          la=0 lb=0:  16837 shell pairs
          la=1 lb=0:  18523 shell pairs
          la=1 lb=1:   4580 shell pairs
          la=2 lb=0:  12171 shell pairs
          la=2 lb=1:   5965 shell pairs
          la=2 lb=2:   2012 shell pairs
          la=3 lb=0:   6490 shell pairs
          la=3 lb=1:   3123 shell pairs
          la=3 lb=2:   2082 shell pairs
          la=3 lb=3:    582 shell pairs

Calculating one electron integrals          ... done (  0.3 sec)
Calculating RI/J V-Matrix + Cholesky decomp.... done (  0.3 sec)
Calculating RI/C V-Matrix + Cholesky decomp.... done (  0.5 sec)
Calculating Nuclear repulsion               ... done (  0.0 sec) ENN=   1260.546725944376 Eh

SHARK setup successfully completed in   4.6 seconds

Maximum memory used throughout the entire GTOINT-calculation: 110.7 MB


           ************************************************************
           *        Program running with 4 parallel MPI-processes     *
           *              working on a common directory               *
           ************************************************************
-------------------------------------------------------------------------------
                                 ORCA SCF
-------------------------------------------------------------------------------

------------
SCF SETTINGS
------------
Hamiltonian:
 Density Functional     Method          .... DFT(GTOs)
 Exchange Functional    Exchange        .... PBE
   PBE kappa parameter   XKappa         ....  0.804000
   PBE mue parameter    XMuePBE         ....  0.219520
 Correlation Functional Correlation     .... PBE
   PBE beta parameter  CBetaPBE         ....  0.066725
 LDA part of GGA corr.  LDAOpt          .... PW91-LDA
 Gradients option       PostSCFGGA      .... off
 Hybrid DFT is turned on
   Fraction HF Exchange ScalHFX         ....  0.250000
   Scaling of DF-GGA-X  ScalDFX         ....  0.750000
   Scaling of DF-GGA-C  ScalDFC         ....  1.000000
   Scaling of DF-LDA-C  ScalLDAC        ....  1.000000
   Perturbative correction              ....  0.000000
   Density functional embedding theory  .... OFF
   NL short-range parameter             ....  6.900000
 RI-approximation to the Coulomb term is turned on
   Number of AuxJ basis functions       .... 1932
   RIJ-COSX (HFX calculated with COS-X)).... on


General Settings:
 Integral files         IntName         .... optpbed3-b2plyp-test-583
 Hartree-Fock type      HFTyp           .... RHF
 Total Charge           Charge          ....    0
 Multiplicity           Mult            ....    1
 Number of Electrons    NEL             ....  128
 Basis Dimension        Dim             .... 1066
 Nuclear Repulsion      ENuc            ....   1260.5467259444 Eh

Convergence Acceleration:
 DIIS                   CNVDIIS         .... on
   Start iteration      DIISMaxIt       ....    12
   Startup error        DIISStart       ....  0.200000
   # of expansion vecs  DIISMaxEq       ....     5
   Bias factor          DIISBfac        ....   1.050
   Max. coefficient     DIISMaxC        ....  10.000
 Trust-Rad. Augm. Hess. CNVTRAH         .... auto
   Auto Start mean grad. ratio tolernc. ....  1.125000
   Auto Start start iteration           ....    20
   Auto Start num. interpolation iter.  ....    10
   Max. Number of Micro iterations      ....    16
   Max. Number of Macro iterations      .... Maxiter - #DIIS iter
   Number of Davidson start vectors     ....     2
   Converg. threshold I  (grad. norm)   ....   1.000e-05
   Converg. threshold II (energy diff.) ....   1.000e-08
   Grad. Scal. Fac. for Micro threshold ....   0.100
   Minimum threshold for Micro iter.    ....   0.010
   NR start threshold (gradient norm)   ....   0.001
   Initial trust radius                 ....   0.400
   Minimum AH scaling param. (alpha)    ....   1.000
   Maximum AH scaling param. (alpha)    .... 1000.000
   Orbital update algorithm             .... Taylor
   White noise on init. David. guess    .... on
   Maximum white noise                  ....   0.010
   Quad. conv. algorithm                .... NR
 SOSCF                  CNVSOSCF        .... on
   Start iteration      SOSCFMaxIt      ....   150
   Startup grad/error   SOSCFStart      ....  0.003300
 Level Shifting         CNVShift        .... on
   Level shift para.    LevelShift      ....    0.2500
   Turn off err/grad.   ShiftErr        ....    0.0010
 Zerner damping         CNVZerner       .... off
 Static damping         CNVDamp         .... on
   Fraction old density DampFac         ....    0.7000
   Max. Damping (<1)    DampMax         ....    0.9800
   Min. Damping (>=0)   DampMin         ....    0.0000
   Turn off err/grad.   DampErr         ....    0.1000
 Fernandez-Rico         CNVRico         .... off

SCF Procedure:
 Maximum # iterations   MaxIter         ....   125
 SCF integral mode      SCFMode         .... Direct
   Integral package                     .... SHARK and LIBINT hybrid scheme
 Reset frequency        DirectResetFreq ....    20
 Integral Threshold     Thresh          ....  2.500e-11 Eh
 Primitive CutOff       TCut            ....  2.500e-12 Eh

Convergence Tolerance:
 Convergence Check Mode ConvCheckMode   .... Total+1el-Energy
 Convergence forced     ConvForced      .... 0
 Energy Change          TolE            ....  1.000e-08 Eh
 1-El. energy change                    ....  1.000e-05 Eh
 Orbital Gradient       TolG            ....  1.000e-05
 Orbital Rotation angle TolX            ....  1.000e-05
 DIIS Error             TolErr          ....  5.000e-07


Diagonalization of the overlap matrix:
Smallest eigenvalue                        ... 1.353e-07
Time for diagonalization                   ...    0.293 sec
Threshold for overlap eigenvalues          ... 1.000e-08
Number of eigenvalues below threshold      ... 0
Time for construction of square roots      ...    0.210 sec
Total time needed                          ...    0.511 sec

Time for model grid setup =    0.990 sec

------------------------------
INITIAL GUESS: MODEL POTENTIAL
------------------------------
Loading Hartree-Fock densities                     ... done
Calculating cut-offs                               ... done
Initializing the effective Hamiltonian             ... done
Setting up the integral package (SHARK)            ... done
Starting the Coulomb interaction                   ... done (   2.8 sec)
Reading the grid                                   ... done
Mapping shells                                     ... done
Starting the XC term evaluation                    ... done (   2.6 sec)
  promolecular density results
     # of electrons  =    127.989526399
     EX              =   -101.660540720
     EC              =     -4.300420536
     EX+EC           =   -105.960961256
Transforming the Hamiltonian                       ... done (   0.2 sec)
Diagonalizing the Hamiltonian                      ... done (   0.3 sec)
Back transforming the eigenvectors                 ... done (   0.1 sec)
Now organizing SCF variables                       ... done
                      ------------------
                      INITIAL GUESS DONE (   6.9 sec)
                      ------------------
-------------------
DFT GRID GENERATION
-------------------

General Integration Accuracy     IntAcc      ... 4.388
Radial Grid Type                 RadialGrid  ... OptM3 with GC (2021)
Angular Grid (max. ang.)         AngularGrid ... 4 (Lebedev-302)
Angular grid pruning method      GridPruning ... 4 (adaptive)
Weight generation scheme         WeightScheme... Becke
Basis function cutoff            BFCut       ... 1.0000e-11
Integration weight cutoff        WCut        ... 1.0000e-14
Angular grids for H and He will be reduced by one unit
Partially contracted basis set               ... off
Rotationally invariant grid construction     ... off

Total number of grid points                  ...   165558
Total number of batches                      ...     2603
Average number of points per batch           ...       63
Average number of grid points per atom       ...     4730
Time for grid setup =    3.059 sec

--------------------
COSX GRID GENERATION
--------------------

GRIDX 1
-------
General Integration Accuracy     IntAcc      ... 3.816
Radial Grid Type                 RadialGrid  ... OptM3 with GC (2021)
Angular Grid (max. ang.)         AngularGrid ... 1 (Lebedev-50)
Angular grid pruning method      GridPruning ... 4 (adaptive)
Weight generation scheme         WeightScheme... Becke
Basis function cutoff            BFCut       ... 1.0000e-11
Integration weight cutoff        WCut        ... 1.0000e-14
Angular grids for H and He will be reduced by one unit
Partially contracted basis set               ... on
Rotationally invariant grid construction     ... off

Total number of grid points                  ...    21126
Total number of batches                      ...      349
Average number of points per batch           ...       60
Average number of grid points per atom       ...      604
UseSFitting                                  ... on

GRIDX 2
-------
General Integration Accuracy     IntAcc      ... 4.020
Radial Grid Type                 RadialGrid  ... OptM3 with GC (2021)
Angular Grid (max. ang.)         AngularGrid ... 2 (Lebedev-110)
Angular grid pruning method      GridPruning ... 4 (adaptive)
Weight generation scheme         WeightScheme... Becke
Basis function cutoff            BFCut       ... 1.0000e-11
Integration weight cutoff        WCut        ... 1.0000e-14
Angular grids for H and He will be reduced by one unit
Partially contracted basis set               ... on
Rotationally invariant grid construction     ... off

Total number of grid points                  ...    48653
Total number of batches                      ...      776
Average number of points per batch           ...       62
Average number of grid points per atom       ...     1390
UseSFitting                                  ... on

GRIDX 3
-------
General Integration Accuracy     IntAcc      ... 4.338
Radial Grid Type                 RadialGrid  ... OptM3 with GC (2021)
Angular Grid (max. ang.)         AngularGrid ... 3 (Lebedev-194)
Angular grid pruning method      GridPruning ... 4 (adaptive)
Weight generation scheme         WeightScheme... Becke
Basis function cutoff            BFCut       ... 1.0000e-11
Integration weight cutoff        WCut        ... 1.0000e-14
Angular grids for H and He will be reduced by one unit
Partially contracted basis set               ... on
Rotationally invariant grid construction     ... off

Total number of grid points                  ...   105010
Total number of batches                      ...     1658
Average number of points per batch           ...       63
Average number of grid points per atom       ...     3000
UseSFitting                                  ... on

Time for X-Grid setup             =    7.387 sec


--------------------
CPCM SOLVATION MODEL
--------------------
CPCM parameters:
  Epsilon                                         ...      24.8520
  Refrac                                          ...       1.3611
  Rsolv                                           ...       1.3000
  Surface type                                    ... GAUSSIAN VDW
  Epsilon function type                           ...         CPCM
Solvent:                                     ... ETHANOL
SMD-CDS solvent descriptors:
  Soln                                       ...    1.3611
  Soln25                                     ...    1.3593
  Sola                                       ...    0.3700
  Solb                                       ...    0.4800
  Solg                                       ...   31.6200
  Solc                                       ...    0.0000
  Solh                                       ...    0.0000
Radii:
 Radius for C  used is    3.4960 Bohr (=   1.8500 Ang.)
 Radius for N  used is    3.5716 Bohr (=   1.8900 Ang.)
 Radius for O  used is    3.0765 Bohr (=   1.6280 Ang.)
 Radius for H  used is    2.2677 Bohr (=   1.2000 Ang.)
Calculating surface                               ...        done! (  0.0s)
GEPOL surface points                              ...         1961
GEPOL Volume                                      ...    1677.0922
GEPOL Surface-area                                ...     942.4597
Calculating surface distance matrix               ...        done! (  0.1s)
Performing Cholesky decomposition & store         ...        done! (  0.2s)
Overall time for CPCM initialization              ...                 0.3s
 re-compute Schwartz prescreening matrix in partically contracted basis (1) ...done (   0.231 sec)
--------------
SCF ITERATIONS
--------------
ITER       Energy         Delta-E        Max-DP      RMS-DP      [F,P]     Damp
               ***  Starting incremental Fock matrix formation  ***
  0   -748.9276760262   0.000000000000 0.38417826  0.00168424  0.2521712 0.7000
  1   -749.0981523784  -0.170476352206 0.27940328  0.00134077  0.1076421 0.7000
                               ***Turning on DIIS***
  2   -749.1763233919  -0.078171013470 0.59890242  0.00294475  0.0401715 0.0000
  3   -749.2941445624  -0.117821170463 0.06286674  0.00057355  0.0533828 0.0000
  4   -749.3186606521  -0.024516089747 0.02859246  0.00023274  0.0123604 0.0000
  5   -749.3196913737  -0.001030721621 0.01177735  0.00009629  0.0110701 0.0000
                      *** Initiating the SOSCF procedure ***
                           *** Shutting down DIIS ***
                      *** Re-Reading the Fockian *** 
                      *** Removing any level shift *** 
ITER      Energy       Delta-E        Grad      Rot      Max-DP    RMS-DP
  6   -749.31986717  -0.0001757914  0.000195  0.000195  0.028599  0.000162
               *** Restarting incremental Fock matrix formation ***
  7   -749.31987779  -0.0000106222  0.000160  0.001195  0.051246  0.000644
  8   -749.31987986  -0.0000020731  0.000115  0.000344  0.018245  0.000192
  9   -749.31988130  -0.0000014444  0.000044  0.000094  0.051999  0.000321
 10   -749.31988149  -0.0000001844  0.000035  0.000053  0.017605  0.000133
 11   -749.31988155  -0.0000000593  0.000012  0.000054  0.014075  0.000115
 12   -749.31988156  -0.0000000081  0.000006  0.000026  0.021115  0.000186
 13   -749.31988159  -0.0000000327  0.000003  0.000016  0.020114  0.000147
                  ***Gradient check signals convergence***
              ***Rediagonalizing the Fockian in SOSCF/NRSCF***

               *****************************************************
               *                     SUCCESS                       *
               *           SCF CONVERGED AFTER  14 CYCLES          *
               *****************************************************

Old exchange energy                            =    -26.001322914 Eh
New exchange energy                            =    -26.001304484 Eh
Exchange energy change after final integration =      0.000018430 Eh
Total energy after final integration           =   -749.319863176 Eh
Final COS-X integration done in                =   147.358 sec

SMD CDS free energy correction energy :                -2.23713     Kcal/mol
Total Energy after SMD CDS correction =              -749.323428276 Eh

----------------
TOTAL SCF ENERGY
----------------

Total Energy       :         -749.32342828 Eh          -20390.12710 eV

Components:
Nuclear Repulsion  :         1260.54672594 Eh           34301.22025 eV
Electronic Energy  :        -2009.87015422 Eh          -54691.34735 eV
One Electron Energy:        -3518.77708659 Eh          -95750.79240 eV
Two Electron Energy:         1508.90693237 Eh           41059.44505 eV
Max COSX asymmetry :            0.00004994 Eh               0.00136 eV
CPCM Dielectric    :           -0.02344070 Eh              -0.63785 eV
SMD CDS (Gcds)     :           -0.00356510 Eh              -0.09701 eV

Virial components:
Potential Energy   :        -1494.36673651 Eh          -40663.78621 eV
Kinetic Energy     :          745.04330824 Eh           20273.65911 eV
Virial Ratio       :            2.00574479


DFT components:
N(Alpha)           :       64.000041274891 electrons
N(Beta)            :       64.000041274891 electrons
N(Total)           :      128.000082549783 electrons
E(X)               :      -77.746440218918 Eh       
E(C)               :       -4.293439792329 Eh       
E(XC)              :      -82.039880011247 Eh       
DFET-embed. en.    :        0.000000000000 Eh       
CPCM Solvation Model Properties:
Surface-charge          :           -0.06504991
Charge-correction       :           -0.00044186 Eh              -0.01202 eV
Free-energy (cav+disp)  :           -0.00356510 Eh              -0.09701 eV

---------------
SCF CONVERGENCE
---------------

  Last Energy change         ...   -1.6696e-08  Tolerance :   1.0000e-08
  Last MAX-Density change    ...    2.8866e-15  Tolerance :   1.0000e-07
  Last RMS-Density change    ...    1.4311e-17  Tolerance :   5.0000e-09
  Last Orbital Gradient      ...    1.9604e-06  Tolerance :   1.0000e-05
  Last Orbital Rotation      ...    6.7191e-06  Tolerance :   1.0000e-05

             **** THE GBW FILE WAS UPDATED (optpbed3-b2plyp-test-583.gbw) ****
             **** DENSITY optpbed3-b2plyp-test-583.scfp WAS UPDATED ****
             **** ENERGY FILE WAS UPDATED (optpbed3-b2plyp-test-583.en.tmp) ****
             **** THE GBW FILE WAS UPDATED (optpbed3-b2plyp-test-583.gbw) ****
             **** DENSITY optpbed3-b2plyp-test-583.scfp WAS UPDATED ****
----------------
ORBITAL ENERGIES
----------------

  NO   OCC          E(Eh)            E(eV) 
   0   2.0000     -19.200028      -522.4593 
   1   2.0000     -14.402821      -391.9207 
   2   2.0000     -10.313672      -280.6493 
   3   2.0000     -10.265160      -279.3292 
   4   2.0000     -10.244368      -278.7634 
   5   2.0000     -10.238572      -278.6057 
   6   2.0000     -10.238243      -278.5968 
   7   2.0000     -10.237230      -278.5692 
   8   2.0000     -10.236732      -278.5556 
   9   2.0000     -10.235910      -278.5333 
  10   2.0000     -10.230945      -278.3982 
  11   2.0000     -10.224562      -278.2245 
  12   2.0000     -10.222576      -278.1704 
  13   2.0000     -10.221495      -278.1410 
  14   2.0000     -10.220905      -278.1250 
  15   2.0000     -10.220247      -278.1071 
  16   2.0000     -10.218260      -278.0530 
  17   2.0000     -10.213576      -277.9255 
  18   2.0000      -1.079515       -29.3751 
  19   2.0000      -0.978106       -26.6156 
  20   2.0000      -0.907983       -24.7075 
  21   2.0000      -0.865068       -23.5397 
  22   2.0000      -0.828568       -22.5465 
  23   2.0000      -0.797902       -21.7120 
  24   2.0000      -0.776400       -21.1269 
  25   2.0000      -0.752804       -20.4848 
  26   2.0000      -0.739371       -20.1193 
  27   2.0000      -0.727885       -19.8068 
  28   2.0000      -0.680018       -18.5042 
  29   2.0000      -0.648568       -17.6484 
  30   2.0000      -0.628679       -17.1072 
  31   2.0000      -0.624755       -17.0005 
  32   2.0000      -0.592579       -16.1249 
  33   2.0000      -0.559479       -15.2242 
  34   2.0000      -0.533319       -14.5124 
  35   2.0000      -0.521580       -14.1929 
  36   2.0000      -0.512365       -13.9422 
  37   2.0000      -0.492172       -13.3927 
  38   2.0000      -0.482853       -13.1391 
  39   2.0000      -0.476237       -12.9591 
  40   2.0000      -0.466924       -12.7056 
  41   2.0000      -0.463764       -12.6197 
  42   2.0000      -0.445072       -12.1110 
  43   2.0000      -0.441359       -12.0100 
  44   2.0000      -0.432595       -11.7715 
  45   2.0000      -0.429660       -11.6916 
  46   2.0000      -0.419255       -11.4085 
  47   2.0000      -0.415184       -11.2977 
  48   2.0000      -0.408140       -11.1060 
  49   2.0000      -0.401584       -10.9277 
  50   2.0000      -0.397787       -10.8243 
  51   2.0000      -0.391553       -10.6547 
  52   2.0000      -0.378574       -10.3015 
  53   2.0000      -0.375755       -10.2248 
  54   2.0000      -0.356686        -9.7059 
  55   2.0000      -0.354608        -9.6494 
  56   2.0000      -0.340457        -9.2643 
  57   2.0000      -0.338097        -9.2001 
  58   2.0000      -0.335066        -9.1176 
  59   2.0000      -0.304957        -8.2983 
  60   2.0000      -0.277213        -7.5434 
  61   2.0000      -0.261222        -7.1082 
  62   2.0000      -0.243384        -6.6228 
  63   2.0000      -0.197548        -5.3756 
  64   0.0000      -0.064055        -1.7430 
  65   0.0000      -0.011596        -0.3155 
  66   0.0000      -0.002536        -0.0690 
  67   0.0000       0.006683         0.1818 
  68   0.0000       0.012098         0.3292 
  69   0.0000       0.018584         0.5057 
  70   0.0000       0.026119         0.7107 
  71   0.0000       0.027383         0.7451 
  72   0.0000       0.030201         0.8218 
  73   0.0000       0.036989         1.0065 
[...]
   Forming the XC and CPCM contribution:
   Time for densities:            0.248
   Time for XC-Integration:      23.354
   Time for LR-CPCM terms:       12.376
   Time for Sigma-Completion:     0.180
   Time for building 10 sigma-vectors
   Data Preparation Phase         ...     0.01 sec
   Transformed RI Coulomb         ...     0.76 sec
   Transformed RI-exchange        ...   423.06 sec
   (ab|v) reading and digestion   ...   407.08 sec
   Final sigma-completion         ...     0.01 sec
   Done building sigma-vectors             Size of expansion space: 70
   Lowest Energy          :     0.136882806940
   Maximum Energy change  :     0.000838865516 (vector 9)
   Maximum residual norm  :     0.000041916821
   Rebuilding the expansion space

                       ****Iteration    5****
              <<< Entering MO-section for Build Sigma(Double) >>>
   Forming the XC and CPCM contribution:
   Time for densities:            0.437
   Time for XC-Integration:      45.297
   Time for LR-CPCM terms:       19.772
   Time for Sigma-Completion:     0.376
   Time for building 20 sigma-vectors
   Data Preparation Phase         ...     0.02 sec
   Transformed RI Coulomb         ...     1.27 sec
   Transformed RI-exchange        ...   842.19 sec
   (ab|v) reading and digestion   ...   810.50 sec
   Final sigma-completion         ...     0.01 sec
   Done building sigma-vectors             Size of expansion space: 20
   Lowest Energy          :     0.136882659893
   Maximum Energy change  :     0.000085160705 (vector 9)
   Maximum residual norm  :     0.000011170420

                       ****Iteration    6****
              <<< Entering MO-section for Build Sigma(Double) >>>
   Forming the XC and CPCM contribution:
   Time for densities:            0.250
   Time for XC-Integration:      23.308
   Time for LR-CPCM terms:       12.409
   Time for Sigma-Completion:     0.183
   Time for building 10 sigma-vectors
   Data Preparation Phase         ...     0.01 sec
   Transformed RI Coulomb         ...     0.79 sec
   Transformed RI-exchange        ...   422.93 sec
   (ab|v) reading and digestion   ...   407.43 sec
   Final sigma-completion         ...     0.01 sec
   Done building sigma-vectors             Size of expansion space: 30
   Lowest Energy          :     0.136882643063
   Maximum Energy change  :     0.000020051644 (vector 9)
   Maximum residual norm  :     0.000002665960

                       ****Iteration    7****
              <<< Entering MO-section for Build Sigma(Double) >>>
   Forming the XC and CPCM contribution:
   Time for densities:            0.225
   Time for XC-Integration:      20.174
   Time for LR-CPCM terms:       11.833
   Time for Sigma-Completion:     0.167
   Time for building 10 sigma-vectors
   Data Preparation Phase         ...     0.01 sec
   Transformed RI Coulomb         ...     0.76 sec
   Transformed RI-exchange        ...   412.95 sec
   (ab|v) reading and digestion   ...   397.48 sec
   Final sigma-completion         ...     0.01 sec
   Done building sigma-vectors             Size of expansion space: 40
   Lowest Energy          :     0.136882641362
   Maximum Energy change  :     0.000005670239 (vector 9)
   Maximum residual norm  :     0.000000907106

      *** CONVERGENCE OF RESIDUAL NORM REACHED ***

Storing the converged CI vectors               ... optpbed3-b2plyp-test-583_job2.cis1

                 *** DAVIDSON DONE ***

Total time for solving the CIS problem:  3788.846sec

------------------
DOUBLES CORRECTION (Double precision version)
------------------

The (D) correction will be scaled by  0.2700
Doing v(i,a)*T(i,a) terms (RI)                    ... ok
Doing u(i,j,a,b) terms for state   0              ... ok
Doing u(i,j,a,b) terms for state   1              ... ok
Doing u(i,j,a,b) terms for state   2              ... ok
Doing u(i,j,a,b) terms for state   3              ... ok
Doing u(i,j,a,b) terms for state   4              ... ok
Doing u(i,j,a,b) terms for state   5              ... ok
Doing u(i,j,a,b) terms for state   6              ... ok
Doing u(i,j,a,b) terms for state   7              ... ok
Doing u(i,j,a,b) terms for state   8              ... ok
Doing u(i,j,a,b) terms for state   9              ... ok

Contributions to the (D) correction(s) (in eV)

STATE  Final   Init.   Total   v(ext)   v(int)  v(3)    u
       omega   omega     (D)                             
-----------------------------------------------------------------------------
   0   3.122   3.725  -0.603   0.623   0.985  -0.058  -2.152
   1   3.773   4.359  -0.587   0.634   0.799  -0.028  -1.991
   2   4.113   4.478  -0.365   0.604   0.953  -0.047  -1.875
   3   4.561   4.899  -0.338   0.088   0.958  -0.009  -1.375
   4   4.498   5.098  -0.600   0.439   0.976  -0.042  -1.974
   5   4.739   5.256  -0.517   0.446   0.961  -0.061  -1.862
   6   5.032   5.410  -0.378   0.078   0.969  -0.006  -1.419
   7   5.130   5.471  -0.341   0.037   0.970  -0.001  -1.347
   8   5.280   5.631  -0.351   0.074   0.965  -0.004  -1.386
   9   4.946   5.698  -0.752   0.566   0.873  -0.027  -2.164

(D)-timings
 V(i,a)*T(i,a) terms           ...   470.026 sec
 U(i,j,a,b) 3-internal         ...    11.628 sec
 U(i,j,a,b) 3-external         ...   308.795 sec
 U(i,j,a,b) pair terms         ...   251.768 sec
 Total measured time           ...  2125.068 sec

 Time for (ab|v) I/O           ...    77.181 sec


------------------------------------
TD-DFT/TDA EXCITED STATES (SINGLETS)
------------------------------------

the weight of the individual excitations are printed if larger than 1.0e-02

STATE  1:  E=   0.114724 au      3.122 eV    25179.0 cm**-1 <S**2> =   0.000000
    63a ->  64a  :     0.917853 (c= -0.95804662)

STATE  2:  E=   0.138639 au      3.773 eV    30427.8 cm**-1 <S**2> =   0.000000
    60a ->  64a  :     0.602007 (c= -0.77589137)
    60a ->  68a  :     0.029820 (c= -0.17268500)
    60a ->  69a  :     0.013074 (c= -0.11433977)
    60a ->  72a  :     0.044855 (c= -0.21178898)
    60a ->  73a  :     0.016507 (c=  0.12847781)
    60a ->  78a  :     0.016520 (c=  0.12853099)
    60a ->  79a  :     0.011435 (c= -0.10693667)
    61a ->  64a  :     0.032525 (c= -0.18034731)
    62a ->  64a  :     0.066435 (c=  0.25774980)
    63a ->  68a  :     0.021021 (c= -0.14498452)

STATE  3:  E=   0.151163 au      4.113 eV    33176.5 cm**-1 <S**2> =   0.000000
    60a ->  64a  :     0.060534 (c= -0.24603665)
    61a ->  64a  :     0.012778 (c= -0.11303965)
    62a ->  64a  :     0.617973 (c= -0.78611289)
    63a ->  65a  :     0.025065 (c=  0.15831829)
    63a ->  68a  :     0.144735 (c=  0.38044095)
    63a ->  71a  :     0.036986 (c= -0.19231766)

STATE  4:  E=   0.167616 au      4.561 eV    36787.5 cm**-1 <S**2> =   0.000000
    62a ->  64a  :     0.037866 (c= -0.19459120)
    63a ->  65a  :     0.712844 (c= -0.84430111)
    63a ->  66a  :     0.051087 (c= -0.22602387)
    63a ->  69a  :     0.011197 (c= -0.10581754)
    63a ->  71a  :     0.015888 (c=  0.12604787)
    63a ->  72a  :     0.058253 (c=  0.24135570)
    63a ->  74a  :     0.033772 (c= -0.18377151)
    63a ->  77a  :     0.014638 (c= -0.12098725)

STATE  5:  E=   0.165290 au      4.498 eV    36276.9 cm**-1 <S**2> =   0.000000
    61a ->  64a  :     0.020510 (c=  0.14321306)
    62a ->  64a  :     0.079731 (c=  0.28236704)
    63a ->  67a  :     0.014470 (c=  0.12029143)
    63a ->  68a  :     0.345679 (c=  0.58794511)
    63a ->  69a  :     0.093462 (c=  0.30571545)
    63a ->  72a  :     0.312697 (c=  0.55919326)
    63a ->  74a  :     0.019364 (c=  0.13915534)

STATE  6:  E=   0.174150 au      4.739 eV    38221.6 cm**-1 <S**2> =   0.000000
    61a ->  64a  :     0.016201 (c= -0.12728223)
    62a ->  64a  :     0.131060 (c=  0.36202213)
    62a ->  72a  :     0.015439 (c=  0.12425263)
    63a ->  65a  :     0.014234 (c= -0.11930473)
    63a ->  67a  :     0.060465 (c=  0.24589566)
    63a ->  68a  :     0.158158 (c=  0.39769127)
    63a ->  69a  :     0.258704 (c= -0.50862935)
    63a ->  70a  :     0.013463 (c=  0.11602849)
    63a ->  71a  :     0.021851 (c= -0.14781922)
    63a ->  72a  :     0.092392 (c= -0.30396096)
    63a ->  73a  :     0.033902 (c=  0.18412613)
    63a ->  74a  :     0.060006 (c= -0.24496184)
    63a ->  75a  :     0.010683 (c= -0.10335807)
    63a ->  79a  :     0.018795 (c= -0.13709334)

STATE  7:  E=   0.184922 au      5.032 eV    40585.6 cm**-1 <S**2> =   0.000000
    61a ->  65a  :     0.013677 (c= -0.11694699)
    62a ->  65a  :     0.014471 (c=  0.12029359)
    63a ->  66a  :     0.630262 (c=  0.79389056)
    63a ->  67a  :     0.065006 (c=  0.25496318)
    63a ->  68a  :     0.041580 (c= -0.20391094)
    63a ->  69a  :     0.031771 (c= -0.17824556)
    63a ->  72a  :     0.055131 (c=  0.23480033)
    63a ->  73a  :     0.048307 (c= -0.21978939)
    63a ->  76a  :     0.012449 (c=  0.11157377)
    63a ->  77a  :     0.012640 (c=  0.11242744)

STATE  8:  E=   0.188531 au      5.130 eV    41377.9 cm**-1 <S**2> =   0.000000
    63a ->  66a  :     0.038788 (c=  0.19694738)
    63a ->  67a  :     0.663627 (c= -0.81463288)
    63a ->  68a  :     0.030233 (c=  0.17387631)
    63a ->  69a  :     0.096444 (c= -0.31055434)
    63a ->  70a  :     0.048034 (c= -0.21916772)
    63a ->  72a  :     0.031106 (c=  0.17636869)
    63a ->  74a  :     0.036590 (c= -0.19128514)

STATE  9:  E=   0.194050 au      5.280 eV    42589.1 cm**-1 <S**2> =   0.000000
    63a ->  65a  :     0.048618 (c=  0.22049408)
    63a ->  67a  :     0.025217 (c=  0.15879740)
    63a ->  69a  :     0.013542 (c= -0.11637163)
    63a ->  71a  :     0.550988 (c=  0.74228555)
    63a ->  72a  :     0.056476 (c=  0.23764655)
    63a ->  73a  :     0.158292 (c=  0.39785958)
    63a ->  74a  :     0.016971 (c= -0.13027395)
    63a ->  75a  :     0.012319 (c= -0.11098983)
    63a ->  78a  :     0.011080 (c=  0.10526135)
    63a ->  80a  :     0.010062 (c=  0.10031120)

STATE 10:  E=   0.181764 au      4.946 eV    39892.7 cm**-1 <S**2> =   0.000000
    60a ->  64a  :     0.028576 (c=  0.16904426)
    61a ->  64a  :     0.563031 (c= -0.75035422)
    62a ->  65a  :     0.023866 (c= -0.15448486)
    62a ->  67a  :     0.011335 (c= -0.10646389)
    62a ->  68a  :     0.182969 (c= -0.42774835)
    62a ->  71a  :     0.044588 (c=  0.21115868)
    63a ->  64a  :     0.016225 (c=  0.12737927)
    63a ->  66a  :     0.014130 (c=  0.11886917)
    63a ->  69a  :     0.019793 (c=  0.14068784)


-----------------------------
TD-DFT/TDA-EXCITATION SPECTRA
-----------------------------

Center of mass = ( -0.3557,  0.1396, -0.0129)
Calculating the Dipole integrals                  ... done
Transforming integrals                            ... done
Calculating the Linear Momentum integrals         ... done
Transforming integrals                            ... done
Calculating angular momentum integrals            ... done
Transforming integrals                            ... done

-----------------------------------------------------------------------------
         ABSORPTION SPECTRUM VIA TRANSITION ELECTRIC DIPOLE MOMENTS
-----------------------------------------------------------------------------
State   Energy    Wavelength  fosc         T2        TX        TY        TZ  
        (cm-1)      (nm)                 (au**2)    (au)      (au)      (au) 
-----------------------------------------------------------------------------
   1   25179.0    397.2   0.124449879   1.62716   0.16718   1.14547   0.53582
   2   30427.8    328.6   0.009287808   0.10049  -0.28992  -0.12817  -0.00313
   3   33176.5    301.4   0.064865409   0.64366   0.69432  -0.36883  -0.15984
   4   36787.5    271.8   0.170322808   1.52422   1.17687   0.16232  -0.33595
   5   36276.9    275.7   0.059849706   0.54313  -0.73434   0.05909  -0.01961
   6   38221.6    261.6   1.046507555   9.01382  -2.99583  -0.19694   0.00689
   7   40585.6    246.4   0.090652104   0.73533   0.83376  -0.09757   0.17508
   8   41377.9    241.7   0.001816372   0.01445  -0.08107  -0.01595   0.08732
   9   42589.1    234.8   0.007455875   0.05763  -0.03093   0.00534   0.23801
  10   39892.7    250.7   0.002192503   0.01809   0.07925   0.07501   0.07865

-----------------------------------------------------------------------------
         ABSORPTION SPECTRUM VIA TRANSITION VELOCITY DIPOLE MOMENTS
-----------------------------------------------------------------------------
State   Energy    Wavelength   fosc        P2         PX        PY        PZ  
        (cm-1)      (nm)                 (au**2)     (au)      (au)      (au) 
-----------------------------------------------------------------------------
   1   25179.0    397.2   0.013319504   0.00229  -0.02861   0.03153   0.02189
   2   30427.8    328.6   0.003610003   0.00075   0.02521   0.00764  -0.00753
   3   33176.5    301.4   0.015930702   0.00361  -0.05536   0.02339   0.00062
   4   36787.5    271.8   0.099253657   0.02495  -0.14935  -0.02238   0.04634
   5   36276.9    275.7   0.016627268   0.00412   0.06052   0.01742   0.01250
   6   38221.6    261.6   0.634713479   0.16580   0.40574   0.02604  -0.02231
   7   40585.6    246.4   0.057782443   0.01603  -0.12016   0.02058  -0.03413
   8   41377.9    241.7   0.002009735   0.00057   0.00883   0.00437  -0.02171
   9   42589.1    234.8   0.008565369   0.00249   0.02788   0.00253  -0.04135
  10   39892.7    250.7   0.000650952   0.00018  -0.00301  -0.01257  -0.00322

-------------------------------------------------------------------
                             CD SPECTRUM
-------------------------------------------------------------------
State  Energy     Wavelength     R         MX        MY        MZ   
       (cm-1)       (nm)     (1e40*cgs)   (au)      (au)      (au)  
-------------------------------------------------------------------
   1   25179.0    397.2     45.00413   0.02300   0.10896  -0.06195
   2   30427.8    328.6    -29.39315   0.09739   0.25861   0.30803
   3   33176.5    301.4      1.61997   0.03142  -0.04178   0.21141
   4   36787.5    271.8    -10.47826   0.02741   0.21609   0.26658
   5   36276.9    275.7    -11.24233   0.03826   0.04881  -0.06963
   6   38221.6    261.6    -21.28402   0.00646   0.11568  -0.43632
   7   40585.6    246.4      7.26180  -0.01009  -0.08918   0.08633
   8   41377.9    241.7      1.72953   0.01436  -0.07085   0.04240
   9   42589.1    234.8      9.60745   0.03054  -0.32992   0.09698
  10   39892.7    250.7      2.87262  -0.05007  -0.08199   0.20611

-------------------------------------------------------------------
         CD SPECTRUM VIA TRANSITION VELOCITY DIPOLE MOMENTS        
-------------------------------------------------------------------
State  Energy     Wavelength     R         MX        MY        MZ   
       (cm-1)       (nm)     (1e40*cgs)   (au)      (au)      (au)  
-------------------------------------------------------------------
   1   25179.0    397.2      5.84044   0.02300   0.10896  -0.06195
   2   30427.8    328.6      7.18610   0.09739   0.25861   0.30803
   3   33176.5    301.4     -8.06727   0.03142  -0.04178   0.21141
   4   36787.5    271.8      9.63021   0.02741   0.21609   0.26658
   5   36276.9    275.7      6.54743   0.03826   0.04881  -0.06963
   6   38221.6    261.6     41.60309   0.00646   0.11568  -0.43632
   7   40585.6    246.4     -9.10034  -0.01009  -0.08918   0.08633
   8   41377.9    241.7     -2.75932   0.01436  -0.07085   0.04240
   9   42589.1    234.8     -9.70054   0.03054  -0.32992   0.09698
  10   39892.7    250.7      1.34351  -0.05007  -0.08199   0.20611

Total run time:     5922.062 sec

           *** ORCA-CIS/TD-DFT FINISHED WITHOUT ERROR ***

Maximum memory used throughout the entire CIS-calculation: 1211.6 MB

-----------------------
CIS/TD-DFT TOTAL ENERGY
-----------------------

    E(SCF)  =   -748.575752331 Eh
    DE(CIS) =      0.114724166 Eh (Root  1)
    ----------------------------- ---------
    E(tot)  =   -748.461028165 Eh



-------------------------------------------------------------------------------
                          DFT DISPERSION CORRECTION                            
                                                                               
                              DFTD3 V3.1  Rev 1                                
                          USING Becke-Johnson damping                          
-------------------------------------------------------------------------------
The B2PLYP functional is recognized
Active option DFTDOPT                   ...         4   

molecular C6(AA) [au] = 12887.081277 


            DFT-D V3
 parameters
 s6 scaling factor         :     0.6400 
 a1 scaling factor         :     0.3065 
 s8 scaling factor         :     0.9147 
 a2 scaling factor         :     5.0570 
 ad hoc parameters k1-k3   :    16.0000     1.3333    -4.0000 

 Edisp/kcal,au: -22.243021399538  -0.035446507099 
 E6   /kcal   : -12.556567766 
 E8   /kcal   :  -9.686453633 
 % E8         :  43.548281771 

-------------------------   ----------------
Dispersion correction           -0.035446507
-------------------------   ----------------


-------------------------   --------------------
FINAL SINGLE POINT ENERGY      -748.496474672197
-------------------------   --------------------


                            ***************************************
                            *     ORCA property calculations      *
                            ***************************************


  WARNING: The energy has been calculated at the MP2 level but the densities
           used in the property calculations are still SCF densities
           MP2 response densities have not been calculated 
           use %mp2 Density relaxed end
           or  %mp2 Density unrelaxed end

                                    ---------------------
                                    Active property flags
                                    ---------------------
   (+) Dipole Moment


------------------------------------------------------------------------------
                       ORCA ELECTRIC PROPERTIES CALCULATION
------------------------------------------------------------------------------

Dipole Moment Calculation                       ... on
Quadrupole Moment Calculation                   ... off
Polarizability Calculation                      ... off
GBWName                                         ... optpbed3-b2plyp-test-583_job2.gbw
Electron density                                ... optpbed3-b2plyp-test-583_job2.scfp
The origin for moment calculation is the CENTER OF MASS  = (-0.355697,  0.139609 -0.012933)

-------------
DIPOLE MOMENT
-------------
                                X             Y             Z
Electronic contribution:     -6.21778       0.52874       1.91840
Nuclear contribution   :      6.74451      -1.91102      -3.39566
                        -----------------------------------------
Total Dipole Moment    :      0.52673      -1.38228      -1.47726
                        -----------------------------------------
Magnitude (a.u.)       :      2.09056
Magnitude (Debye)      :      5.31377



--------------------
Rotational spectrum 
--------------------
 
Rotational constants in cm-1:     0.035179     0.007938     0.006556 
Rotational constants in MHz :  1054.654184   237.988637   196.543491 

 Dipole components along the rotational axes: 
x,y,z [a.u.] :     0.501899    -1.898480    -0.717143 
x,y,z [Debye]:     1.275727    -4.825552    -1.822833 

 

Timings for individual modules:

Sum of individual times         ...     7840.092 sec (= 130.668 min)
GTO integral calculation        ...        5.526 sec (=   0.092 min)   0.1 %
SCF iterations                  ...      949.820 sec (=  15.830 min)  12.1 %
MP2 module                      ...      962.028 sec (=  16.034 min)  12.3 %
CIS module                      ...     5922.719 sec (=  98.712 min)  75.5 %



                             ****ORCA TERMINATED NORMALLY****
TOTAL RUN TIME: 0 days 8 hours 24 minutes 32 seconds 846 msec
