
                                 *****************
                                 * O   R   C   A *
                                 *****************

                                            #,                                       
                                            ###                                      
                                            ####                                     
                                            #####                                    
                                            ######                                   
                                           ########,                                 
                                     ,,################,,,,,                         
                               ,,#################################,,                 
                          ,,##########################################,,             
                       ,#########################################, ''#####,          
                    ,#############################################,,   '####,        
                  ,##################################################,,,,####,       
                ,###########''''           ''''###############################       
              ,#####''   ,,,,##########,,,,          '''####'''          '####       
            ,##' ,,,,###########################,,,                        '##       
           ' ,,###''''                  '''############,,,                           
         ,,##''                                '''############,,,,        ,,,,,,###''
      ,#''                                            '''#######################'''  
     '                                                          ''''####''''         
             ,#######,   #######,   ,#######,      ##                                
            ,#'     '#,  ##    ##  ,#'     '#,    #''#        ######   ,####,        
            ##       ##  ##   ,#'  ##            #'  '#       #        #'  '#        
            ##       ##  #######   ##           ,######,      #####,   #    #        
            '#,     ,#'  ##    ##  '#,     ,#' ,#      #,         ##   #,  ,#        
             '#######'   ##     ##  '#######'  #'      '#     #####' # '####'        



                  #######################################################
                  #                        -***-                        #
                  #          Department of theory and spectroscopy      #
                  #    Directorship and core code : Frank Neese         #
                  #        Max Planck Institute fuer Kohlenforschung    #
                  #                Kaiser Wilhelm Platz 1               #
                  #                 D-45470 Muelheim/Ruhr               #
                  #                      Germany                        #
                  #                                                     #
                  #                  All rights reserved                #
                  #                        -***-                        #
                  #######################################################


                         Program Version 5.0.2 -  RELEASE  -


 With contributions from (in alphabetic order):
   Daniel Aravena         : Magnetic Suceptibility
   Michael Atanasov       : Ab Initio Ligand Field Theory (pilot matlab implementation)
   Alexander A. Auer      : GIAO ZORA, VPT2 properties, NMR spectrum
   Ute Becker             : Parallelization
   Giovanni Bistoni       : ED, misc. LED, open-shell LED, HFLD
   Martin Brehm           : Molecular dynamics
   Dmytro Bykov           : SCF Hessian
   Vijay G. Chilkuri      : MRCI spin determinant printing, contributions to CSF-ICE
   Dipayan Datta          : RHF DLPNO-CCSD density
   Achintya Kumar Dutta   : EOM-CC, STEOM-CC
   Dmitry Ganyushin       : Spin-Orbit,Spin-Spin,Magnetic field MRCI
   Miquel Garcia          : C-PCM and meta-GGA Hessian, CC/C-PCM, Gaussian charge scheme
   Yang Guo               : DLPNO-NEVPT2, F12-NEVPT2, CIM, IAO-localization
   Andreas Hansen         : Spin unrestricted coupled pair/coupled cluster methods
   Benjamin Helmich-Paris : MC-RPA, TRAH-SCF, COSX integrals
   Lee Huntington         : MR-EOM, pCC
   Robert Izsak           : Overlap fitted RIJCOSX, COSX-SCS-MP3, EOM
   Marcus Kettner         : VPT2
   Christian Kollmar      : KDIIS, OOCD, Brueckner-CCSD(T), CCSD density, CASPT2, CASPT2-K
   Simone Kossmann        : Meta GGA functionals, TD-DFT gradient, OOMP2, MP2 Hessian
   Martin Krupicka        : Initial AUTO-CI
   Lucas Lang             : DCDCAS
   Marvin Lechner         : AUTO-CI (C++ implementation), FIC-MRCC
   Dagmar Lenk            : GEPOL surface, SMD
   Dimitrios Liakos       : Extrapolation schemes; Compound Job, initial MDCI parallelization
   Dimitrios Manganas     : Further ROCIS development; embedding schemes
   Dimitrios Pantazis     : SARC Basis sets
   Anastasios Papadopoulos: AUTO-CI, single reference methods and gradients
   Taras Petrenko         : DFT Hessian,TD-DFT gradient, ASA, ECA, R-Raman, ABS, FL, XAS/XES, NRVS
   Peter Pinski           : DLPNO-MP2, DLPNO-MP2 Gradient
   Christoph Reimann      : Effective Core Potentials
   Marius Retegan         : Local ZFS, SOC
   Christoph Riplinger    : Optimizer, TS searches, QM/MM, DLPNO-CCSD(T), (RO)-DLPNO pert. Triples
   Tobias Risthaus        : Range-separated hybrids, TD-DFT gradient, RPA, STAB
   Michael Roemelt        : Original ROCIS implementation
   Masaaki Saitow         : Open-shell DLPNO-CCSD energy and density
   Barbara Sandhoefer     : DKH picture change effects
   Avijit Sen             : IP-ROCIS
   Kantharuban Sivalingam : CASSCF convergence, NEVPT2, FIC-MRCI
   Bernardo de Souza      : ESD, SOC TD-DFT
   Georgi Stoychev        : AutoAux, RI-MP2 NMR, DLPNO-MP2 response
   Willem Van den Heuvel  : Paramagnetic NMR
   Boris Wezisla          : Elementary symmetry handling
   Frank Wennmohs         : Technical directorship


 We gratefully acknowledge several colleagues who have allowed us to
 interface, adapt or use parts of their codes:
   Stefan Grimme, W. Hujo, H. Kruse, P. Pracht,  : VdW corrections, initial TS optimization,
                  C. Bannwarth, S. Ehlert          DFT functionals, gCP, sTDA/sTD-DF
   Ed Valeev, F. Pavosevic, A. Kumar             : LibInt (2-el integral package), F12 methods
   Garnet Chan, S. Sharma, J. Yang, R. Olivares  : DMRG
   Ulf Ekstrom                                   : XCFun DFT Library
   Mihaly Kallay                                 : mrcc  (arbitrary order and MRCC methods)
   Jiri Pittner, Ondrej Demel                    : Mk-CCSD
   Frank Weinhold                                : gennbo (NPA and NBO analysis)
   Christopher J. Cramer and Donald G. Truhlar   : smd solvation model
   Lars Goerigk                                  : TD-DFT with DH, B97 family of functionals
   V. Asgeirsson, H. Jonsson                     : NEB implementation
   FAccTs GmbH                                   : IRC, NEB, NEB-TS, DLPNO-Multilevel, CI-OPT
                                                   MM, QMMM, 2- and 3-layer-ONIOM, Crystal-QMMM,
                                                   LR-CPCM, SF, NACMEs, symmetry and pop. for TD-DFT,
                                                   nearIR, NL-DFT gradient (VV10), updates on ESD,
                                                   ML-optimized integration grids
   S Lehtola, MJT Oliveira, MAL Marques          : LibXC Library
   Liviu Ungur et al                             : ANISO software


 Your calculation uses the libint2 library for the computation of 2-el integrals
 For citations please refer to: http://libint.valeyev.net

 Your ORCA version has been built with support for libXC version: 5.1.0
 For citations please refer to: https://tddft.org/programs/libxc/

 This ORCA versions uses:
   CBLAS   interface :  Fast vector & matrix operations
   LAPACKE interface :  Fast linear algebra routines
   SCALAPACK package :  Parallel linear algebra routines
   Shared memory     :  Shared parallel matrices
   BLAS/LAPACK       :  OpenBLAS 0.3.15  USE64BITINT DYNAMIC_ARCH NO_AFFINITY SkylakeX SINGLE_THREADED
        Core in use  :  SkylakeX
   Copyright (c) 2011-2014, The OpenBLAS Project


Your calculation utilizes the atom-pairwise dispersion correction
with the Becke-Johnson damping scheme (D3BJ)
Cite in your paper:
S.Grimme, S.Ehrlich, L.Goerigk, J Comput Chem, (2011), 32, 1456–1465 
S.Grimme, J.Antony, S.Ehrlich and H.Krieg, J.Chem.Phys., 132, (2010), 154104 
   

Your calculation utilizes the SMD solvation module
Please cite in your paper:
A.V. Marenich, C.J. Cramer, D.G. Truhlar J. Phys. Chem. B, 113, (2009), 6378 

================================================================================

----- Orbital basis set information -----
Your calculation utilizes the basis: aug-cc-pVTZ 
    H, B-Ne : Obtained from the ccRepo (grant-hill.group.shef.ac.uk/ccrepo) Feb. 2017
              R. A. Kendall, T. H. Dunning, Jr., R. J. Harrison, J. Chem. Phys. 96, 6796 (1992)
         He : Obtained from the ccRepo (grant-hill.group.shef.ac.uk/ccrepo) Feb. 2017
              D. E. Woon, T. H. Dunning, Jr., J. Chem. Phys. 100, 2975 (1994)
  Li-Be, Na : Obtained from the ccRepo (grant-hill.group.shef.ac.uk/ccrepo) Feb. 2017
              B. P. Prascher, D. E. Woon, K. A. Peterson, T. H. Dunning, Jr., A. K. Wilson, Theor. Chem. Acc. 128, 69 (2011)
         Mg : Obtained from the Peterson Research Group Website (tyr0.chem.wsu.edu/~kipeters) Feb. 2017
              B. P. Prascher, D. E. Woon, K. A. Peterson, T. H. Dunning, Jr., A. K. Wilson, Theor. Chem. Acc. 128, 69 (2011)
      Al-Ar : Obtained from the ccRepo (grant-hill.group.shef.ac.uk/ccrepo) Feb. 2017
              D. E. Woon, T. H. Dunning, Jr., J. Chem. Phys. 98, 1358 (1993)
      Sc-Zn : Obtained from the ccRepo (grant-hill.group.shef.ac.uk/ccrepo) Feb. 2017
              N. B. Balabanov, K. A. Peterson, J. Chem. Phys. 123, 064107 (2005)
              N. B. Balabanov, K. A. Peterson, J. Chem. Phys. 125, 074110 (2006)
      Ga-Kr : Obtained from the ccRepo (grant-hill.group.shef.ac.uk/ccrepo) Feb. 2017
              A. K. Wilson, D. E. Woon, K. A. Peterson, T. H. Dunning, Jr., J. Chem. Phys. 110, 7667 (1999)
     Ag, Au : Obtained from the Peterson Research Group Website (tyr0.chem.wsu.edu/~kipeters) Feb. 2017
              K. A. Peterson, C. Puzzarini, Theor. Chem. Acc. 114, 283 (2005)

The basis set includes element-specific modifications.

Your calculation utilizes the basis: cc-pVTZ 
       H, B-Ne : Obtained from the ccRepo (grant-hill.group.shef.ac.uk/ccrepo) Feb. 2017
                 T. H. Dunning, Jr., J. Chem. Phys. 90, 1007 (1989)
            He : Obtained from the ccRepo (grant-hill.group.shef.ac.uk/ccrepo) Feb. 2017
                 D. E. Woon, T. H. Dunning, Jr., J. Chem. Phys. 100, 2975 (1994)
  Li-Be, Na-Mg : Obtained from the ccRepo (grant-hill.group.shef.ac.uk/ccrepo) Feb. 2017
                 B. P. Prascher, D. E. Woon, K. A. Peterson, T. H. Dunning, Jr., A. K. Wilson, Theor. Chem. Acc. 128, 69 (2011)
         Al-Ar : Obtained from the ccRepo (grant-hill.group.shef.ac.uk/ccrepo) Feb. 2017
                 D. E. Woon, T. H. Dunning, Jr., J. Chem. Phys. 98, 1358 (1993)
            Ca : Obtained from the Peterson Research Group Website (tyr0.chem.wsu.edu/~kipeters) Feb. 2017
                 J. Koput, K. A. Peterson, J. Phys. Chem. 106, 9595 (2002)
         Sc-Zn : Obtained from the ccRepo (grant-hill.group.shef.ac.uk/ccrepo) Feb. 2017
                 N. B. Balabanov, K. A. Peterson, J. Chem. Phys. 123, 064107 (2005)
                 N. B. Balabanov, K. A. Peterson, J. Chem. Phys. 125, 074110 (2006)
         Ga-Kr : Obtained from the ccRepo (grant-hill.group.shef.ac.uk/ccrepo) Feb. 2017
                 A. K. Wilson, D. E. Woon, K. A. Peterson, T. H. Dunning, Jr., J. Chem. Phys. 110, 7667 (1999)
             Y : Obtained from the ccRepo (grant-hill.group.shef.ac.uk/ccrepo) Feb. 2017
                 K. A. Peterson, D. Figgen, M. Dolg, H. Stoll, J. Chem. Phys. 126, 124101 (2007)
        Ag, Au : Obtained from the Peterson Research Group Website (tyr0.chem.wsu.edu/~kipeters) Feb. 2017
                 K. A. Peterson, C. Puzzarini, Theor. Chem. Acc. 114, 283 (2005)

----- AuxJ basis set information -----
Your calculation utilizes the auxiliary basis: aug-cc-pVTZ/JK 
  H, B-F, Al-Cl, Ga-Br : Obtained from the TURBOMOLE 7.0 basis set library

The basis set includes element-specific modifications.

Your calculation utilizes the auxiliary basis: cc-pVTZ/JK 
  H, B-F, Al-Cl, Ga-Br : Obtained from the TURBOMOLE 7.0 basis set library

----- AuxC basis set information -----
Your calculation utilizes the auxiliary basis: aug-cc-pVTZ/C 
  H-He, B-F, Al-Ar, Ga-Kr : Obtained from the EMSL Basis Set Exchange (bse.pnl.gov) Feb. 2017
                            F. Weigend, A. Kohn, C. Hattig, J. Chem. Phys. 116, 3175 (2002)
                   Be, Mg : Obtained from the TURBOMOLE 7.0 basis set library
                            C. Haettig, Phys. Chem. Chem. Phys. 7, 59 (2005)
                       Ne : Obtained from the EMSL Basis Set Exchange (bse.pnl.gov) Feb. 2017
                            C. Haettig, Phys. Chem. Chem. Phys. 7, 59 (2005)
                            F. Weigend, A. Kohn, C. Hattig, J. Chem. Phys. 116, 3175 (2002)
                    Sc-Zn : Obtained from the EMSL Basis Set Exchange (bse.pnl.gov) Feb. 2017
                            J. G. Hill, J. A. Platts, J. Chem. Phys. 128, 044104 (2008)

The basis set includes element-specific modifications.

Your calculation utilizes the auxiliary basis: cc-pVTZ/C 
  Obtained from the EMSL Basis Set Exchange (bse.pnl.gov) Feb. 2017
  H-He, B-F, Al-Ar, Ga-Kr : F. Weigend, A. Kohn, C. Hattig, J. Chem. Phys. 116, 3175 (2002)
             Li-Be, Na-Mg : C. Haettig, Phys. Chem. Chem. Phys. 7, 59 (2005)
                       Ne : C. Haettig, Phys. Chem. Chem. Phys. 7, 59 (2005)
                            F. Weigend, A. Kohn, C. Hattig, J. Chem. Phys. 116, 3175 (2002)
                    Sc-Zn : J. G. Hill, J. A. Platts, J. Chem. Phys. 128, 044104 (2008)

================================================================================
                                        WARNINGS
                       Please study these warnings very carefully!
================================================================================


WARNING: Geometry Optimization
  ===> : Switching off AutoStart
         For restart on a previous wavefunction, please use MOREAD

INFO   : the flag for use of the SHARK integral package has been found!



***************************************
The coordinates will be read from file: 
***************************************


Your calculation utilizes the atom-pairwise dispersion correction
with the Becke-Johnson damping scheme (D3BJ)
Cite in your paper:
S.Grimme, S.Ehrlich, L.Goerigk, J Comput Chem, (2011), 32, 1456–1465 
S.Grimme, J.Antony, S.Ehrlich and H.Krieg, J.Chem.Phys., 132, (2010), 154104 
   

Your calculation utilizes the SMD solvation module
Please cite in your paper:
A.V. Marenich, C.J. Cramer, D.G. Truhlar J. Phys. Chem. B, 113, (2009), 6378 

================================================================================

----- Orbital basis set information -----
Your calculation utilizes the basis: aug-cc-pVTZ 
    H, B-Ne : Obtained from the ccRepo (grant-hill.group.shef.ac.uk/ccrepo) Feb. 2017
              R. A. Kendall, T. H. Dunning, Jr., R. J. Harrison, J. Chem. Phys. 96, 6796 (1992)
         He : Obtained from the ccRepo (grant-hill.group.shef.ac.uk/ccrepo) Feb. 2017
              D. E. Woon, T. H. Dunning, Jr., J. Chem. Phys. 100, 2975 (1994)
  Li-Be, Na : Obtained from the ccRepo (grant-hill.group.shef.ac.uk/ccrepo) Feb. 2017
              B. P. Prascher, D. E. Woon, K. A. Peterson, T. H. Dunning, Jr., A. K. Wilson, Theor. Chem. Acc. 128, 69 (2011)
         Mg : Obtained from the Peterson Research Group Website (tyr0.chem.wsu.edu/~kipeters) Feb. 2017
              B. P. Prascher, D. E. Woon, K. A. Peterson, T. H. Dunning, Jr., A. K. Wilson, Theor. Chem. Acc. 128, 69 (2011)
      Al-Ar : Obtained from the ccRepo (grant-hill.group.shef.ac.uk/ccrepo) Feb. 2017
              D. E. Woon, T. H. Dunning, Jr., J. Chem. Phys. 98, 1358 (1993)
      Sc-Zn : Obtained from the ccRepo (grant-hill.group.shef.ac.uk/ccrepo) Feb. 2017
              N. B. Balabanov, K. A. Peterson, J. Chem. Phys. 123, 064107 (2005)
              N. B. Balabanov, K. A. Peterson, J. Chem. Phys. 125, 074110 (2006)
      Ga-Kr : Obtained from the ccRepo (grant-hill.group.shef.ac.uk/ccrepo) Feb. 2017
              A. K. Wilson, D. E. Woon, K. A. Peterson, T. H. Dunning, Jr., J. Chem. Phys. 110, 7667 (1999)
     Ag, Au : Obtained from the Peterson Research Group Website (tyr0.chem.wsu.edu/~kipeters) Feb. 2017
              K. A. Peterson, C. Puzzarini, Theor. Chem. Acc. 114, 283 (2005)

The basis set includes element-specific modifications.

Your calculation utilizes the basis: cc-pVTZ 
       H, B-Ne : Obtained from the ccRepo (grant-hill.group.shef.ac.uk/ccrepo) Feb. 2017
                 T. H. Dunning, Jr., J. Chem. Phys. 90, 1007 (1989)
            He : Obtained from the ccRepo (grant-hill.group.shef.ac.uk/ccrepo) Feb. 2017
                 D. E. Woon, T. H. Dunning, Jr., J. Chem. Phys. 100, 2975 (1994)
  Li-Be, Na-Mg : Obtained from the ccRepo (grant-hill.group.shef.ac.uk/ccrepo) Feb. 2017
                 B. P. Prascher, D. E. Woon, K. A. Peterson, T. H. Dunning, Jr., A. K. Wilson, Theor. Chem. Acc. 128, 69 (2011)
         Al-Ar : Obtained from the ccRepo (grant-hill.group.shef.ac.uk/ccrepo) Feb. 2017
                 D. E. Woon, T. H. Dunning, Jr., J. Chem. Phys. 98, 1358 (1993)
            Ca : Obtained from the Peterson Research Group Website (tyr0.chem.wsu.edu/~kipeters) Feb. 2017
                 J. Koput, K. A. Peterson, J. Phys. Chem. 106, 9595 (2002)
         Sc-Zn : Obtained from the ccRepo (grant-hill.group.shef.ac.uk/ccrepo) Feb. 2017
                 N. B. Balabanov, K. A. Peterson, J. Chem. Phys. 123, 064107 (2005)
                 N. B. Balabanov, K. A. Peterson, J. Chem. Phys. 125, 074110 (2006)
         Ga-Kr : Obtained from the ccRepo (grant-hill.group.shef.ac.uk/ccrepo) Feb. 2017
                 A. K. Wilson, D. E. Woon, K. A. Peterson, T. H. Dunning, Jr., J. Chem. Phys. 110, 7667 (1999)
             Y : Obtained from the ccRepo (grant-hill.group.shef.ac.uk/ccrepo) Feb. 2017
                 K. A. Peterson, D. Figgen, M. Dolg, H. Stoll, J. Chem. Phys. 126, 124101 (2007)
        Ag, Au : Obtained from the Peterson Research Group Website (tyr0.chem.wsu.edu/~kipeters) Feb. 2017
                 K. A. Peterson, C. Puzzarini, Theor. Chem. Acc. 114, 283 (2005)

----- AuxJ basis set information -----
Your calculation utilizes the auxiliary basis: aug-cc-pVTZ/JK 
  H, B-F, Al-Cl, Ga-Br : Obtained from the TURBOMOLE 7.0 basis set library

The basis set includes element-specific modifications.

Your calculation utilizes the auxiliary basis: cc-pVTZ/JK 
  H, B-F, Al-Cl, Ga-Br : Obtained from the TURBOMOLE 7.0 basis set library

----- AuxC basis set information -----
Your calculation utilizes the auxiliary basis: aug-cc-pVTZ/C 
  H-He, B-F, Al-Ar, Ga-Kr : Obtained from the EMSL Basis Set Exchange (bse.pnl.gov) Feb. 2017
                            F. Weigend, A. Kohn, C. Hattig, J. Chem. Phys. 116, 3175 (2002)
                   Be, Mg : Obtained from the TURBOMOLE 7.0 basis set library
                            C. Haettig, Phys. Chem. Chem. Phys. 7, 59 (2005)
                       Ne : Obtained from the EMSL Basis Set Exchange (bse.pnl.gov) Feb. 2017
                            C. Haettig, Phys. Chem. Chem. Phys. 7, 59 (2005)
                            F. Weigend, A. Kohn, C. Hattig, J. Chem. Phys. 116, 3175 (2002)
                    Sc-Zn : Obtained from the EMSL Basis Set Exchange (bse.pnl.gov) Feb. 2017
                            J. G. Hill, J. A. Platts, J. Chem. Phys. 128, 044104 (2008)

The basis set includes element-specific modifications.

Your calculation utilizes the auxiliary basis: cc-pVTZ/C 
  Obtained from the EMSL Basis Set Exchange (bse.pnl.gov) Feb. 2017
  H-He, B-F, Al-Ar, Ga-Kr : F. Weigend, A. Kohn, C. Hattig, J. Chem. Phys. 116, 3175 (2002)
             Li-Be, Na-Mg : C. Haettig, Phys. Chem. Chem. Phys. 7, 59 (2005)
                       Ne : C. Haettig, Phys. Chem. Chem. Phys. 7, 59 (2005)
                            F. Weigend, A. Kohn, C. Hattig, J. Chem. Phys. 116, 3175 (2002)
                    Sc-Zn : J. G. Hill, J. A. Platts, J. Chem. Phys. 128, 044104 (2008)

================================================================================
                                        WARNINGS
                       Please study these warnings very carefully!
================================================================================

INFO   : Checking CIS options ...
  ===> : (D) CORRECTION FOUND - SETTING MODE=3
  ===> : JK MODE FOUND - ACTIVATING RI-MP2 CODE
  ===> : MP2 AND CIS FOUND - CHECKING
WARNING: CIS(D) and MP2 runs must have the same orbital window
  ===> : adjusting orbital windows

WARNING: No MP2 level density has been requested!
         To caclulate MP2 level properties use
         %mp2 Density relaxed end
         or
         %mp2 Density unrelaxed end
         Otherwise for double-hybrid DFT only the energy is correct!

WARNING: The frozen-core approximation is turned on by default for 
         the MP2 part of double-hybrid DFT.

INFO   : the flag for use of the SHARK integral package has been found!

================================================================================
                                       INPUT FILE
================================================================================
NAME = optpbed3-b2plyp-test-592.inp
|  1> ! pbe0 d3bj aug-cc-PVTZ RIJCOSX Opt
|  2> %maxcore 4000
|  3> %basis
|  4>  AuxJ "aug-cc-PVTZ/JK"
|  5>  AuxC "aug-cc-PVTZ/C"
|  6>  newGTO H "cc-PVTZ" end
|  7>  newAuxJGTO H "cc-PVTZ/JK" end
|  8>  newAuxCGTO H "cc-PVTZ/C" end
|  9> end
| 10> %cpcm
| 11>  SMD true
| 12>  SMDsolvent "methanol"
| 13> end
| 14> %pal nprocs 4 end
| 15> * xyz 0 1
| 16> O          3.13930       -2.92040        0.37440
| 17> C          2.35660       -1.98410        0.36950
| 18> C          0.91990       -2.17470        0.42400
| 19> C          0.01790       -1.16170        0.41230
| 20> N         -1.32380       -1.41660        0.43730
| 21> C         -2.35820       -0.57590        0.06610
| 22> C         -2.22350        0.43170       -0.88610
| 23> C         -3.32040        1.20670       -1.20840
| 24> F         -3.16850        2.17600       -2.12900
| 25> C         -4.56860        1.01040       -0.64370
| 26> C         -4.72120       -0.01500        0.27380
| 27> C         -3.63010       -0.78660        0.60990
| 28> F         -3.77980       -1.80220        1.49380
| 29> C          0.47850        0.24970        0.59160
| 30> O         -0.26820        1.11620        0.99870
| 31> C          1.91130        0.48470        0.34320
| 32> C          2.37160        1.79480        0.23660
| 33> C          3.71500        2.04790        0.02340
| 34> C          4.61210        0.99490       -0.07250
| 35> C          4.16520       -0.31050        0.04520
| 36> C          2.81690       -0.57770        0.24760
| 37> H          0.58240       -3.20280        0.43760
| 38> H         -1.60440       -2.33540        0.75810
| 39> H         -1.28010        0.61530       -1.37310
| 40> H         -5.39590        1.63970       -0.92600
| 41> H         -5.67480       -0.21800        0.73340
| 42> H          1.65800        2.60100        0.32190
| 43> H          4.06350        3.06600       -0.06310
| 44> H          5.66130        1.19200       -0.23490
| 45> H          4.84800       -1.14490       -0.01590
| 46> *
| 47> 
| 48> 
| 49> $new_job
| 50> ! b2plyp aug-cc-PVTZ RIJCOSX SP
| 51> %maxcore 4000
| 52> %basis
| 53>  AuxJ "aug-cc-PVTZ/JK"
| 54>  AuxC "aug-cc-PVTZ/C"
| 55>  newGTO H "cc-PVTZ" end
| 56>  newAuxJGTO H "cc-PVTZ/JK" end
| 57>  newAuxCGTO H "cc-PVTZ/C" end
| 58> end
| 59> %cpcm
| 60>  SMD true
| 61>  SMDsolvent "methanol"
| 62> end
| 63> %pal nprocs 4 end
| 64> %tddft
| 65>  nroots 10
| 66>  maxdim 7
| 67> end
| 68> * xyzfile 0 1
| 69> 
| 70>                          ****END OF INPUT****
================================================================================


                 $$$$$$$$$$$$$$$$$$$$$$$$$$$$$$$$$$$$$$$$$$$$$$ 
                 $ THERE ARE  2 JOBS TO BE PROCESSED THIS RUN $
                 $$$$$$$$$$$$$$$$$$$$$$$$$$$$$$$$$$$$$$$$$$$$$$ 




                 $$$$$$$$$$$$$$$$  JOB NUMBER  1 $$$$$$$$$$$$$$


                       *****************************
                       * Geometry Optimization Run *
                       *****************************

Geometry optimization settings:
Update method            Update   .... BFGS
Choice of coordinates    CoordSys .... Z-matrix Internals
Initial Hessian          InHess   .... Almoef's Model

Convergence Tolerances:
Energy Change            TolE     ....  5.0000e-06 Eh
Max. Gradient            TolMAXG  ....  3.0000e-04 Eh/bohr
RMS Gradient             TolRMSG  ....  1.0000e-04 Eh/bohr
Max. Displacement        TolMAXD  ....  4.0000e-03 bohr
RMS Displacement         TolRMSD  ....  2.0000e-03 bohr
Strict Convergence                ....  False
------------------------------------------------------------------------------
                        ORCA OPTIMIZATION COORDINATE SETUP
------------------------------------------------------------------------------

The optimization will be done in new redundant internal coordinates
Making redundant internal coordinates   ...  (new redundants) done
Evaluating the initial hessian          ...  (Almloef) done
Evaluating the coordinates              ...  done
Calculating the B-matrix                .... done
Calculating the G-matrix                .... done
Diagonalizing the G-matrix              .... done
Small eigenvalue found = 3.509e-03
Small eigenvalue found = 2.084e-02
Small eigenvalue found = 2.434e-02
The first mode is                       ....   75
The number of degrees of freedom        ....   84

    -----------------------------------------------------------------
                    Redundant Internal Coordinates


    -----------------------------------------------------------------
         Definition                    Initial Value    Approx d2E/dq
    -----------------------------------------------------------------
      1. B(C   1,O   0)                  1.2204         1.043544   
      2. B(C   2,C   1)                  1.4503         0.500627   
      3. B(C   3,C   2)                  1.3564         0.706794   
      4. B(N   4,C   3)                  1.3659         0.611338   
      5. B(C   5,N   4)                  1.3837         0.572757   
      6. B(C   6,C   5)                  1.3929         0.618244   
      7. B(C   7,C   6)                  1.3812         0.645343   
      8. B(F   8,C   7)                  1.3454         0.612508   
      9. B(C   9,C   7)                  1.3840         0.638749   
     10. B(C  10,C   9)                  1.3844         0.637804   
     11. B(C  11,C  10)                  1.3780         0.653004   
     12. B(C  11,C   5)                  1.3992         0.603968   
     13. B(F  12,C  11)                  1.3547         0.592015   
     14. B(C  13,C   3)                  1.4954         0.424141   
     15. B(O  14,C  13)                  1.2141         1.067735   
     16. B(C  15,C  13)                  1.4730         0.460527   
     17. B(C  16,C  15)                  1.3927         0.618639   
     18. B(C  17,C  16)                  1.3836         0.639755   
     19. B(C  18,C  17)                  1.3866         0.632536   
     20. B(C  19,C  18)                  1.3848         0.636871   
     21. B(C  20,C  19)                  1.3893         0.626306   
     22. B(C  20,C  15)                  1.3993         0.603887   
     23. B(C  20,C   1)                  1.4848         0.441018   
     24. B(H  21,C   2)                  1.0822         0.370615   
     25. B(H  22,N   4)                  1.0128         0.428219   
     26. B(H  23,C   6)                  1.0774         0.377102   
     27. B(H  24,C   9)                  1.0771         0.377581   
     28. B(H  25,C  10)                  1.0779         0.376516   
     29. B(H  26,C  16)                  1.0800         0.373537   
     30. B(H  27,C  17)                  1.0796         0.374171   
     31. B(H  28,C  18)                  1.0798         0.373802   
     32. B(H  29,C  19)                  1.0799         0.373719   
     33. A(O   0,C   1,C  20)          121.8846         0.445459   
     34. A(O   0,C   1,C   2)          122.3008         0.455835   
     35. A(C   2,C   1,C  20)          115.7635         0.393367   
     36. A(C   3,C   2,H  21)          120.1469         0.362629   
     37. A(C   1,C   2,C   3)          124.0743         0.427657   
     38. A(C   1,C   2,H  21)          115.7391         0.342082   
     39. A(C   2,C   3,N   4)          120.9081         0.440406   
     40. A(N   4,C   3,C  13)          118.4551         0.402049   
     41. A(C   2,C   3,C  13)          119.9333         0.415184   
     42. A(C   3,N   4,H  22)          116.5650         0.357178   
     43. A(C   3,N   4,C   5)          128.0263         0.421316   
     44. A(C   5,N   4,H  22)          115.4062         0.353250   
     45. A(N   4,C   5,C   6)          123.4101         0.424926   
     46. A(C   6,C   5,C  11)          117.5501         0.431806   
     47. A(N   4,C   5,C  11)          118.9334         0.423155   
     48. A(C   5,C   6,C   7)          119.2504         0.436986   
     49. A(C   7,C   6,H  23)          119.6223         0.358108   
     50. A(C   5,C   6,H  23)          121.1273         0.355508   
     51. A(C   6,C   7,F   8)          118.3111         0.431472   
     52. A(F   8,C   7,C   9)          118.8948         0.430677   
     53. A(C   6,C   7,C   9)          122.7826         0.439565   
     54. A(C  10,C   9,H  24)          121.4522         0.357471   
     55. A(C   7,C   9,H  24)          120.1930         0.357560   
     56. A(C   7,C   9,C  10)          118.3520         0.438634   
     57. A(C   9,C  10,C  11)          119.2825         0.440385   
     58. A(C   9,C  10,H  25)          121.3062         0.357299   
     59. A(C  11,C  10,H  25)          119.4106         0.358733   
     60. A(C   5,C  11,F  12)          117.8349         0.423785   
     61. A(C   5,C  11,C  10)          122.7275         0.436076   
     62. A(C  10,C  11,F  12)          119.4354         0.429753   
     63. A(O  14,C  13,C  15)          122.7445         0.450841   
     64. A(C   3,C  13,C  15)          115.4637         0.385043   
     65. A(C   3,C  13,O  14)          121.6244         0.444162   
     66. A(C  16,C  15,C  20)          119.6758         0.431845   
     67. A(C  13,C  15,C  20)          121.3263         0.409690   
     68. A(C  13,C  15,C  16)          118.9772         0.411447   
     69. A(C  15,C  16,C  17)          120.3178         0.436352   
     70. A(C  17,C  16,H  26)          121.1421         0.357002   
     71. A(C  15,C  16,H  26)          118.5399         0.354974   
     72. A(C  16,C  17,C  18)          119.9945         0.438103   
     73. A(C  18,C  17,H  27)          120.1165         0.356417   
     74. A(C  16,C  17,H  27)          119.8883         0.357105   
     75. A(C  17,C  18,C  19)          120.0785         0.437746   
     76. A(C  19,C  18,H  28)          119.8950         0.356771   
     77. A(C  17,C  18,H  28)          120.0261         0.356358   
     78. A(C  18,C  19,C  20)          120.4552         0.436965   
     79. A(C  20,C  19,H  29)          118.2453         0.355746   
     80. A(C  18,C  19,H  29)          121.2995         0.356758   
     81. A(C   1,C  20,C  15)          120.8580         0.406563   
     82. A(C  15,C  20,C  19)          119.4728         0.432802   
     83. A(C   1,C  20,C  19)          119.6677         0.409194   
     84. D(C   3,C   2,C   1,C  20)     -2.1357         0.017072   
     85. D(H  21,C   2,C   1,C  20)    175.5706         0.017072   
     86. D(H  21,C   2,C   1,O   0)     -1.8735         0.017072   
     87. D(C   3,C   2,C   1,O   0)   -179.5798         0.017072   
     88. D(N   4,C   3,C   2,H  21)      0.9726         0.035242   
     89. D(C  13,C   3,C   2,H  21)    171.2140         0.035242   
     90. D(C  13,C   3,C   2,C   1)    -11.1753         0.035242   
     91. D(N   4,C   3,C   2,C   1)    178.5833         0.035242   
     92. D(H  22,N   4,C   3,C  13)   -151.4032         0.030198   
     93. D(H  22,N   4,C   3,C   2)     18.9792         0.030198   
     94. D(C   5,N   4,C   3,C  13)     29.2030         0.030198   
     95. D(C   5,N   4,C   3,C   2)   -160.4146         0.030198   
     96. D(C  11,C   5,N   4,C   3)   -156.0532         0.026270   
     97. D(C   6,C   5,N   4,C   3)     27.7932         0.026270   
     98. D(C   6,C   5,N   4,H  22)   -151.6065         0.026270   
     99. D(C  11,C   5,N   4,H  22)     24.5470         0.026270   
    100. D(H  23,C   6,C   5,C  11)   -177.3479         0.026440   
    101. D(C   7,C   6,C   5,N   4)    178.8725         0.026440   
    102. D(H  23,C   6,C   5,N   4)     -1.1447         0.026440   
    103. D(C   7,C   6,C   5,C  11)      2.6693         0.026440   
    104. D(C   9,C   7,C   6,H  23)    178.6604         0.028968   
    105. D(C   9,C   7,C   6,C   5)     -1.3566         0.028968   
    106. D(F   8,C   7,C   6,H  23)     -0.0887         0.028968   
    107. D(F   8,C   7,C   6,C   5)    179.8944         0.028968   
    108. D(H  24,C   9,C   7,F   8)     -1.2339         0.028340   
    109. D(H  24,C   9,C   7,C   6)   -179.9761         0.028340   
    110. D(C  10,C   9,C   7,F   8)    178.1659         0.028340   
    111. D(C  10,C   9,C   7,C   6)     -0.5762         0.028340   
    112. D(H  25,C  10,C   9,C   7)   -179.2274         0.028251   
    113. D(C  11,C  10,C   9,H  24)   -179.5273         0.028251   
    114. D(C  11,C  10,C   9,C   7)      1.0808         0.028251   
    115. D(H  25,C  10,C   9,H  24)      0.1645         0.028251   
    116. D(F  12,C  11,C  10,H  25)      1.1832         0.029709   
    117. D(C   5,C  11,C  10,H  25)   -179.3647         0.029709   
    118. D(F  12,C  11,C   5,C   6)    177.2336         0.025165   
    119. D(F  12,C  11,C   5,N   4)      0.8547         0.025165   
    120. D(C   5,C  11,C  10,C   9)      0.3330         0.029709   
    121. D(F  12,C  11,C  10,C   9)   -179.1191         0.029709   
    122. D(C  10,C  11,C   5,C   6)     -2.2267         0.025165   
    123. D(C  10,C  11,C   5,N   4)   -178.6056         0.025165   
    124. D(C  15,C  13,C   3,N   4)   -170.7378         0.012303   
    125. D(C  15,C  13,C   3,C   2)     18.7833         0.012303   
    126. D(O  14,C  13,C   3,N   4)     13.8426         0.012303   
    127. D(O  14,C  13,C   3,C   2)   -156.6363         0.012303   
    128. D(C  20,C  15,C  13,O  14)    161.5601         0.014447   
    129. D(C  20,C  15,C  13,C   3)    -13.8026         0.014447   
    130. D(C  16,C  15,C  13,O  14)    -16.7805         0.014447   
    131. D(C  16,C  15,C  13,C   3)    167.8567         0.014447   
    132. D(H  26,C  16,C  15,C  20)   -179.4623         0.026476   
    133. D(H  26,C  16,C  15,C  13)     -1.0937         0.026476   
    134. D(C  17,C  16,C  15,C  20)      0.6662         0.026476   
    135. D(C  17,C  16,C  15,C  13)    179.0348         0.026476   
    136. D(H  27,C  17,C  16,H  26)     -0.1749         0.028435   
    137. D(H  27,C  17,C  16,C  15)    179.6932         0.028435   
    138. D(C  18,C  17,C  16,H  26)    179.5210         0.028435   
    139. D(C  18,C  17,C  16,C  15)     -0.6109         0.028435   
    140. D(H  28,C  18,C  17,H  27)     -0.0572         0.027756   
    141. D(H  28,C  18,C  17,C  16)   -179.7525         0.027756   
    142. D(C  19,C  18,C  17,H  27)    179.6794         0.027756   
    143. D(C  19,C  18,C  17,C  16)     -0.0159         0.027756   
    144. D(H  29,C  19,C  18,C  17)   -179.3477         0.028162   
    145. D(C  20,C  19,C  18,H  28)   -179.6761         0.028162   
    146. D(C  20,C  19,C  18,C  17)      0.5869         0.028162   
    147. D(H  29,C  19,C  18,H  28)      0.3892         0.028162   
    148. D(C  15,C  20,C  19,H  29)    179.4103         0.027177   
    149. D(C   1,C  20,C  19,H  29)     -0.1469         0.027177   
    150. D(C   1,C  20,C  19,C  18)    179.9164         0.027177   
    151. D(C  19,C  20,C  15,C  16)     -0.0982         0.025158   
    152. D(C  19,C  20,C  15,C  13)   -178.4274         0.025158   
    153. D(C   1,C  20,C  15,C  16)    179.4537         0.025158   
    154. D(C   1,C  20,C  15,C  13)      1.1245         0.025158   
    155. D(C  19,C  20,C   1,C   2)   -173.1537         0.013270   
    156. D(C  19,C  20,C   1,O   0)      4.3021         0.013270   
    157. D(C  15,C  20,C  19,C  18)     -0.5263         0.027177   
    158. D(C  15,C  20,C   1,C   2)      7.2953         0.013270   
    159. D(C  15,C  20,C   1,O   0)   -175.2489         0.013270   
    -----------------------------------------------------------------

Number of atoms                         .... 30
Number of degrees of freedom            .... 159

         *************************************************************
         *                GEOMETRY OPTIMIZATION CYCLE   1            *
         *************************************************************
---------------------------------
CARTESIAN COORDINATES (ANGSTROEM)
---------------------------------
  O      3.139300   -2.920400    0.374400
  C      2.356600   -1.984100    0.369500
  C      0.919900   -2.174700    0.424000
  C      0.017900   -1.161700    0.412300
  N     -1.323800   -1.416600    0.437300
  C     -2.358200   -0.575900    0.066100
  C     -2.223500    0.431700   -0.886100
  C     -3.320400    1.206700   -1.208400
  F     -3.168500    2.176000   -2.129000
  C     -4.568600    1.010400   -0.643700
  C     -4.721200   -0.015000    0.273800
  C     -3.630100   -0.786600    0.609900
  F     -3.779800   -1.802200    1.493800
  C      0.478500    0.249700    0.591600
  O     -0.268200    1.116200    0.998700
  C      1.911300    0.484700    0.343200
  C      2.371600    1.794800    0.236600
  C      3.715000    2.047900    0.023400
  C      4.612100    0.994900   -0.072500
  C      4.165200   -0.310500    0.045200
  C      2.816900   -0.577700    0.247600
  H      0.582400   -3.202800    0.437600
  H     -1.604400   -2.335400    0.758100
  H     -1.280100    0.615300   -1.373100
  H     -5.395900    1.639700   -0.926000
  H     -5.674800   -0.218000    0.733400
  H      1.658000    2.601000    0.321900
  H      4.063500    3.066000   -0.063100
  H      5.661300    1.192000   -0.234900
  H      4.848000   -1.144900   -0.015900

----------------------------
CARTESIAN COORDINATES (A.U.)
----------------------------
  NO LB      ZA    FRAG     MASS         X           Y           Z
   0 O     8.0000    0    15.999    5.932417   -5.518756    0.707513
   1 C     6.0000    0    12.011    4.453329   -3.749406    0.698254
   2 C     6.0000    0    12.011    1.738359   -4.109587    0.801244
   3 C     6.0000    0    12.011    0.033826   -2.195295    0.779134
   4 N     7.0000    0    14.007   -2.501619   -2.676986    0.826377
   5 C     6.0000    0    12.011   -4.456352   -1.088293    0.124911
   6 C     6.0000    0    12.011   -4.201806    0.815795   -1.674486
   7 C     6.0000    0    12.011   -6.274647    2.280333   -2.283545
   8 F     9.0000    0    18.998   -5.987597    4.112044   -4.023227
   9 C     6.0000    0    12.011   -8.633403    1.909379   -1.216417
  10 C     6.0000    0    12.011   -8.921775   -0.028346    0.517407
  11 C     6.0000    0    12.011   -6.859895   -1.486459    1.152544
  12 F     9.0000    0    18.998   -7.142787   -3.405664    2.822873
  13 C     6.0000    0    12.011    0.904234    0.471865    1.117962
  14 O     8.0000    0    15.999   -0.506825    2.109312    1.887269
  15 C     6.0000    0    12.011    3.611834    0.915950    0.648554
  16 C     6.0000    0    12.011    4.481674    3.391680    0.447109
  17 C     6.0000    0    12.011    7.020333    3.869970    0.044220
  18 C     6.0000    0    12.011    8.715606    1.880089   -0.137005
  19 C     6.0000    0    12.011    7.871087   -0.586760    0.085416
  20 C     6.0000    0    12.011    5.323170   -1.091695    0.467896
  21 H     1.0000    0     1.008    1.100577   -6.052415    0.826944
  22 H     1.0000    0     1.008   -3.031877   -4.413266    1.432601
  23 H     1.0000    0     1.008   -2.419038    1.162748   -2.594783
  24 H     1.0000    0     1.008  -10.196773    3.098584   -1.749886
  25 H     1.0000    0     1.008  -10.723818   -0.411960    1.385925
  26 H     1.0000    0     1.008    3.133166    4.915178    0.608303
  27 H     1.0000    0     1.008    7.678902    5.793900   -0.119242
  28 H     1.0000    0     1.008   10.698307    2.252554   -0.443897
  29 H     1.0000    0     1.008    9.161392   -2.163547   -0.030047

--------------------------------
INTERNAL COORDINATES (ANGSTROEM)
--------------------------------
 O      0   0   0     0.000000000000     0.00000000     0.00000000
 C      1   0   0     1.220369202332     0.00000000     0.00000000
 C      2   1   0     1.450312207768   122.30077742     0.00000000
 C      3   2   1     1.356432781232   124.07433919   180.42016809
 N      4   3   2     1.365927487094   120.90806268   178.58331232
 C      5   4   3     1.383672392584   128.02625051   199.58541458
 C      6   5   4     1.392869947267   123.41011846    27.79323629
 C      7   6   5     1.381192202411   119.25040179   178.87251751
 F      8   7   6     1.345407172569   118.31106008   179.89436536
 C      8   7   6     1.383988085209   122.78256526   358.64344974
 C     10   8   7     1.384390902166   118.35197084   359.42381374
 C     11  10   8     1.377980036140   119.28249611     1.08079227
 F     12  11  10     1.354670683229   119.43536184   180.88094182
 C      4   3   2     1.495443348977   119.93332371   348.82469393
 O     14   4   3     1.214130779611   121.62441423   203.36370196
 C     14   4   3     1.473038831803   115.46366308    18.78326413
 C     16  14   4     1.392695824651   118.97721080   167.85673184
 C     17  16  14     1.383559687907   120.31781972   179.03476803
 C     18  17  16     1.386648556773   119.99448941   359.38910223
 C     19  18  17     1.384789536356   120.07846852     0.00000000
 C     20  19  18     1.389343186545   120.45519131     0.58694978
 H      3   2   1     1.082164876532   115.73911792   358.12649073
 H      5   4   3     1.012838802574   116.56500807    18.97922904
 H      7   6   5     1.077442119095   121.12729977   358.85534762
 H     10   8   7     1.077096592697   120.19302859   180.02394242
 H     11  10   8     1.077865538924   121.30623605   180.77258985
 H     17  16  14     1.080027541315   118.53994005   358.90626505
 H     18  17  16     1.079565704346   119.88826543   179.69316958
 H     19  18  17     1.079834621597   120.02605540   180.24753879
 H     20  19  18     1.079894629119   121.29946981   180.65229136

---------------------------
INTERNAL COORDINATES (A.U.)
---------------------------
 O      0   0   0     0.000000000000     0.00000000     0.00000000
 C      1   0   0     2.306163574679     0.00000000     0.00000000
 C      2   1   0     2.740692881364   122.30077742     0.00000000
 C      3   2   1     2.563286475601   124.07433919   180.42016809
 N      4   3   2     2.581228869404   120.90806268   178.58331232
 C      5   4   3     2.614761881052   128.02625051   199.58541458
 C      6   5   4     2.632142740504   123.41011846    27.79323629
 C      7   6   5     2.610075000864   119.25040179   178.87251751
 F      8   7   6     2.542451094769   118.31106008   179.89436536
 C      8   7   6     2.615358453655   122.78256526   358.64344974
 C     10   8   7     2.616119667386   118.35197084   359.42381374
 C     11  10   8     2.604004886315   119.28249611     1.08079227
 F     12  11  10     2.559956592955   119.43536184   180.88094182
 C      4   3   2     2.825978378361   119.93332371   348.82469393
 O     14   4   3     2.294374664230   121.62441423   203.36370196
 C     14   4   3     2.783639976739   115.46366308    18.78326413
 C     16  14   4     2.631813696446   118.97721080   167.85673184
 C     17  16  14     2.614548900077   120.31781972   179.03476803
 C     18  17  16     2.620386016298   119.99448941   359.38910223
 C     19  18  17     2.616872976832   120.07846852     0.00000000
 C     20  19  18     2.625478128600   120.45519131     0.58694978
 H      3   2   1     2.044995248395   115.73911792   358.12649073
 H      5   4   3     1.913987954674   116.56500807    18.97922904
 H      7   6   5     2.036070530241   121.12729977   358.85534762
 H     10   8   7     2.035417579978   120.19302859   180.02394242
 H     11  10   8     2.036870677758   121.30623605   180.77258985
 H     17  16  14     2.040956270179   118.53994005   358.90626505
 H     18  17  16     2.040083524788   119.88826543   179.69316958
 H     19  18  17     2.040591704745   120.02605540   180.24753879
 H     20  19  18     2.040705102527   121.29946981   180.65229136

---------------------
BASIS SET INFORMATION
---------------------
There are 5 groups of distinct atoms

 Group   1 Type O   : 19s6p3d2f contracted to 5s4p3d2f pattern {88111/3111/111/11}
 Group   2 Type C   : 19s6p3d2f contracted to 5s4p3d2f pattern {88111/3111/111/11}
 Group   3 Type N   : 19s6p3d2f contracted to 5s4p3d2f pattern {88111/3111/111/11}
 Group   4 Type F   : 19s6p3d2f contracted to 5s4p3d2f pattern {88111/3111/111/11}
 Group   5 Type H   : 5s2p1d contracted to 3s2p1d pattern {311/11/1}

Atom   0O    basis set group =>   1
Atom   1C    basis set group =>   2
Atom   2C    basis set group =>   2
Atom   3C    basis set group =>   2
Atom   4N    basis set group =>   3
Atom   5C    basis set group =>   2
Atom   6C    basis set group =>   2
Atom   7C    basis set group =>   2
Atom   8F    basis set group =>   4
Atom   9C    basis set group =>   2
Atom  10C    basis set group =>   2
Atom  11C    basis set group =>   2
Atom  12F    basis set group =>   4
Atom  13C    basis set group =>   2
Atom  14O    basis set group =>   1
Atom  15C    basis set group =>   2
Atom  16C    basis set group =>   2
Atom  17C    basis set group =>   2
Atom  18C    basis set group =>   2
Atom  19C    basis set group =>   2
Atom  20C    basis set group =>   2
Atom  21H    basis set group =>   5
Atom  22H    basis set group =>   5
Atom  23H    basis set group =>   5
Atom  24H    basis set group =>   5
Atom  25H    basis set group =>   5
Atom  26H    basis set group =>   5
Atom  27H    basis set group =>   5
Atom  28H    basis set group =>   5
Atom  29H    basis set group =>   5
---------------------------------
AUXILIARY/J BASIS SET INFORMATION
---------------------------------
There are 5 groups of distinct atoms

 Group   1 Type O   : 10s7p5d2f1g contracted to 10s7p5d2f1g pattern {1111111111/1111111/11111/11/1}
 Group   2 Type C   : 10s7p5d2f1g contracted to 10s7p5d2f1g pattern {1111111111/1111111/11111/11/1}
 Group   3 Type N   : 10s7p5d2f1g contracted to 10s7p5d2f1g pattern {1111111111/1111111/11111/11/1}
 Group   4 Type F   : 10s7p5d2f1g contracted to 10s7p5d2f1g pattern {1111111111/1111111/11111/11/1}
 Group   5 Type H   : 4s3p2d1f contracted to 4s3p2d1f pattern {1111/111/11/1}

Atom   0O    basis set group =>   1
Atom   1C    basis set group =>   2
Atom   2C    basis set group =>   2
Atom   3C    basis set group =>   2
Atom   4N    basis set group =>   3
Atom   5C    basis set group =>   2
Atom   6C    basis set group =>   2
Atom   7C    basis set group =>   2
Atom   8F    basis set group =>   4
Atom   9C    basis set group =>   2
Atom  10C    basis set group =>   2
Atom  11C    basis set group =>   2
Atom  12F    basis set group =>   4
Atom  13C    basis set group =>   2
Atom  14O    basis set group =>   1
Atom  15C    basis set group =>   2
Atom  16C    basis set group =>   2
Atom  17C    basis set group =>   2
Atom  18C    basis set group =>   2
Atom  19C    basis set group =>   2
Atom  20C    basis set group =>   2
Atom  21H    basis set group =>   5
Atom  22H    basis set group =>   5
Atom  23H    basis set group =>   5
Atom  24H    basis set group =>   5
Atom  25H    basis set group =>   5
Atom  26H    basis set group =>   5
Atom  27H    basis set group =>   5
Atom  28H    basis set group =>   5
Atom  29H    basis set group =>   5
---------------------------------
AUXILIARY/C BASIS SET INFORMATION
---------------------------------
There are 5 groups of distinct atoms

 Group   1 Type O   : 9s7p6d4f2g contracted to 9s7p6d4f2g pattern {111111111/1111111/111111/1111/11}
 Group   2 Type C   : 9s7p6d4f2g contracted to 9s7p6d4f2g pattern {111111111/1111111/111111/1111/11}
 Group   3 Type N   : 9s7p6d4f2g contracted to 9s7p6d4f2g pattern {111111111/1111111/111111/1111/11}
 Group   4 Type F   : 9s7p6d4f2g contracted to 9s7p6d4f2g pattern {111111111/1111111/111111/1111/11}
 Group   5 Type H   : 4s3p2d1f contracted to 4s3p2d1f pattern {1111/111/11/1}

Atom   0O    basis set group =>   1
Atom   1C    basis set group =>   2
Atom   2C    basis set group =>   2
Atom   3C    basis set group =>   2
Atom   4N    basis set group =>   3
Atom   5C    basis set group =>   2
Atom   6C    basis set group =>   2
Atom   7C    basis set group =>   2
Atom   8F    basis set group =>   4
Atom   9C    basis set group =>   2
Atom  10C    basis set group =>   2
Atom  11C    basis set group =>   2
Atom  12F    basis set group =>   4
Atom  13C    basis set group =>   2
Atom  14O    basis set group =>   1
Atom  15C    basis set group =>   2
Atom  16C    basis set group =>   2
Atom  17C    basis set group =>   2
Atom  18C    basis set group =>   2
Atom  19C    basis set group =>   2
Atom  20C    basis set group =>   2
Atom  21H    basis set group =>   5
Atom  22H    basis set group =>   5
Atom  23H    basis set group =>   5
Atom  24H    basis set group =>   5
Atom  25H    basis set group =>   5
Atom  26H    basis set group =>   5
Atom  27H    basis set group =>   5
Atom  28H    basis set group =>   5
Atom  29H    basis set group =>   5


           ************************************************************
           *        Program running with 4 parallel MPI-processes     *
           *              working on a common directory               *
           ************************************************************
------------------------------------------------------------------------------
                           ORCA GTO INTEGRAL CALCULATION
                           -- RI-GTO INTEGRALS CHOSEN --
------------------------------------------------------------------------------
------------------------------------------------------------------------------
                   ___                                                        
                  /   \      - P O W E R E D   B Y -                         
                 /     \                                                     
                 |  |  |   _    _      __       _____    __    __             
                 |  |  |  | |  | |    /  \     |  _  \  |  |  /  |          
                  \  \/   | |  | |   /    \    | | | |  |  | /  /          
                 / \  \   | |__| |  /  /\  \   | |_| |  |  |/  /          
                |  |  |   |  __  | /  /__\  \  |    /   |      \           
                |  |  |   | |  | | |   __   |  |    \   |  |\   \          
                \     /   | |  | | |  |  |  |  | |\  \  |  | \   \       
                 \___/    |_|  |_| |__|  |__|  |_| \__\ |__|  \__/        
                                                                              
                      - O R C A' S   B I G   F R I E N D -                    
                                      &                                       
                       - I N T E G R A L  F E E D E R -                       
                                                                              
 v1 FN, 2020, v2 2021                                                         
------------------------------------------------------------------------------


Reading SHARK input file optpbed3-b2plyp-test-592.SHARKINP.tmp ... ok
----------------------
SHARK INTEGRAL PACKAGE
----------------------

Number of atoms                             ...     30
Number of basis functions                   ...   1218
Number of shells                            ...    474
Maximum angular momentum                    ...      3
Integral batch strategy                     ... SHARK/LIBINT Hybrid
RI-J (if used) integral strategy            ... SPLIT-RIJ (Revised 2003 algorithm where possible)
Printlevel                                  ...      1
Contraction scheme used                     ... PARTIAL GENERAL contraction
Coulomb Range Separation                    ... NOT USED
Exchange Range Separation                   ... NOT USED
Finite Nucleus Model                        ... NOT USED
Auxiliary Coulomb fitting basis             ... AVAILABLE
   # of basis functions in Aux-J            ...   1929
   # of shells in Aux-J                     ...    615
   Maximum angular momentum in Aux-J        ...      4
Auxiliary J/K fitting basis                 ... NOT available
Auxiliary Correlation fitting basis         ... AVAILABLE
   # of basis functions in Aux-C            ...   2496
   # of shells in Aux-C                     ...    678
   Maximum angular momentum in Aux-C        ...      4
Auxiliary 'external' fitting basis          ... NOT available
Integral threshold                          ...     2.500000e-11
Primitive cut-off                           ...     2.500000e-12
Primitive pair pre-selection threshold      ...     2.500000e-12

Calculating pre-screening integrals         ... done (  0.2 sec) Dimension = 474
Calculating pre-screening integrals (ORCA)  ... done (  0.5 sec) Dimension = 348
Organizing shell pair data                  ... done (  1.2 sec)
Shell pair information
Total number of shell pairs                 ...    112575
Shell pairs after pre-screening             ...     72938
Total number of primitive shell pairs       ...    142935
Primitive shell pairs kept                  ...     84697
          la=0 lb=0:  16157 shell pairs
          la=1 lb=0:  18474 shell pairs
          la=1 lb=1:   4381 shell pairs
          la=2 lb=0:  12391 shell pairs
          la=2 lb=1:   5959 shell pairs
          la=2 lb=2:   2080 shell pairs
          la=3 lb=0:   6952 shell pairs
          la=3 lb=1:   3450 shell pairs
          la=3 lb=2:   2381 shell pairs
          la=3 lb=3:    713 shell pairs

Calculating one electron integrals          ... done (  0.3 sec)
Calculating RI/J V-Matrix + Cholesky decomp.... done (  0.3 sec)
Calculating RI/C V-Matrix + Cholesky decomp.... done (  0.5 sec)
Calculating Nuclear repulsion               ... done (  0.0 sec) ENN=   1554.145364363948 Eh

SHARK setup successfully completed in   4.2 seconds

Maximum memory used throughout the entire GTOINT-calculation: 114.1 MB


           ************************************************************
           *        Program running with 4 parallel MPI-processes     *
           *              working on a common directory               *
           ************************************************************
-------------------------------------------------------------------------------
                                 ORCA SCF
-------------------------------------------------------------------------------

------------
SCF SETTINGS
------------
Hamiltonian:
 Density Functional     Method          .... DFT(GTOs)
 Exchange Functional    Exchange        .... PBE
   PBE kappa parameter   XKappa         ....  0.804000
   PBE mue parameter    XMuePBE         ....  0.219520
 Correlation Functional Correlation     .... PBE
   PBE beta parameter  CBetaPBE         ....  0.066725
 LDA part of GGA corr.  LDAOpt          .... PW91-LDA
 Gradients option       PostSCFGGA      .... off
 Hybrid DFT is turned on
   Fraction HF Exchange ScalHFX         ....  0.250000
   Scaling of DF-GGA-X  ScalDFX         ....  0.750000
   Scaling of DF-GGA-C  ScalDFC         ....  1.000000
   Scaling of DF-LDA-C  ScalLDAC        ....  1.000000
   Perturbative correction              ....  0.000000
   Density functional embedding theory  .... OFF
   NL short-range parameter             ....  6.900000
 RI-approximation to the Coulomb term is turned on
   Number of AuxJ basis functions       .... 1929
   RIJ-COSX (HFX calculated with COS-X)).... on


General Settings:
 Integral files         IntName         .... optpbed3-b2plyp-test-592
 Hartree-Fock type      HFTyp           .... RHF
 Total Charge           Charge          ....    0
 Multiplicity           Mult            ....    1
 Number of Electrons    NEL             ....  146
 Basis Dimension        Dim             .... 1092
 Nuclear Repulsion      ENuc            ....   1554.1453643639 Eh

Convergence Acceleration:
 DIIS                   CNVDIIS         .... on
   Start iteration      DIISMaxIt       ....    12
   Startup error        DIISStart       ....  0.200000
   # of expansion vecs  DIISMaxEq       ....     5
   Bias factor          DIISBfac        ....   1.050
   Max. coefficient     DIISMaxC        ....  10.000
 Trust-Rad. Augm. Hess. CNVTRAH         .... auto
   Auto Start mean grad. ratio tolernc. ....  1.125000
   Auto Start start iteration           ....    20
   Auto Start num. interpolation iter.  ....    10
   Max. Number of Micro iterations      ....    16
   Max. Number of Macro iterations      .... Maxiter - #DIIS iter
   Number of Davidson start vectors     ....     2
   Converg. threshold I  (grad. norm)   ....   1.000e-05
   Converg. threshold II (energy diff.) ....   1.000e-08
   Grad. Scal. Fac. for Micro threshold ....   0.100
   Minimum threshold for Micro iter.    ....   0.010
   NR start threshold (gradient norm)   ....   0.001
   Initial trust radius                 ....   0.400
   Minimum AH scaling param. (alpha)    ....   1.000
   Maximum AH scaling param. (alpha)    .... 1000.000
   Orbital update algorithm             .... Taylor
   White noise on init. David. guess    .... on
   Maximum white noise                  ....   0.010
   Quad. conv. algorithm                .... NR
 SOSCF                  CNVSOSCF        .... on
   Start iteration      SOSCFMaxIt      ....   150
   Startup grad/error   SOSCFStart      ....  0.003300
 Level Shifting         CNVShift        .... on
   Level shift para.    LevelShift      ....    0.2500
   Turn off err/grad.   ShiftErr        ....    0.0010
 Zerner damping         CNVZerner       .... off
 Static damping         CNVDamp         .... on
   Fraction old density DampFac         ....    0.7000
   Max. Damping (<1)    DampMax         ....    0.9800
   Min. Damping (>=0)   DampMin         ....    0.0000
   Turn off err/grad.   DampErr         ....    0.1000
 Fernandez-Rico         CNVRico         .... off

SCF Procedure:
 Maximum # iterations   MaxIter         ....   125
 SCF integral mode      SCFMode         .... Direct
   Integral package                     .... SHARK and LIBINT hybrid scheme
 Reset frequency        DirectResetFreq ....    20
 Integral Threshold     Thresh          ....  2.500e-11 Eh
 Primitive CutOff       TCut            ....  2.500e-12 Eh

Convergence Tolerance:
 Convergence Check Mode ConvCheckMode   .... Total+1el-Energy
 Convergence forced     ConvForced      .... 0
 Energy Change          TolE            ....  1.000e-08 Eh
 1-El. energy change                    ....  1.000e-05 Eh
 Orbital Gradient       TolG            ....  1.000e-05
 Orbital Rotation angle TolX            ....  1.000e-05
 DIIS Error             TolErr          ....  5.000e-07


Diagonalization of the overlap matrix:
Smallest eigenvalue                        ... 5.267e-07
Time for diagonalization                   ...    0.292 sec
Threshold for overlap eigenvalues          ... 1.000e-08
Number of eigenvalues below threshold      ... 0
Time for construction of square roots      ...    0.218 sec
Total time needed                          ...    0.517 sec

Time for model grid setup =    0.639 sec

------------------------------
INITIAL GUESS: MODEL POTENTIAL
------------------------------
Loading Hartree-Fock densities                     ... done
Calculating cut-offs                               ... done
Initializing the effective Hamiltonian             ... done
Setting up the integral package (SHARK)            ... done
Starting the Coulomb interaction                   ... done (   2.7 sec)
Reading the grid                                   ... done
Mapping shells                                     ... done
Starting the XC term evaluation                    ... done (   2.3 sec)
  promolecular density results
     # of electrons  =    145.993302559
     EX              =   -127.407189285
     EC              =     -4.962805903
     EX+EC           =   -132.369995188
Transforming the Hamiltonian                       ... done (   0.1 sec)
Diagonalizing the Hamiltonian                      ... done (   0.3 sec)
Back transforming the eigenvectors                 ... done (   0.1 sec)
Now organizing SCF variables                       ... done
                      ------------------
                      INITIAL GUESS DONE (   6.3 sec)
                      ------------------
-------------------
DFT GRID GENERATION
-------------------

General Integration Accuracy     IntAcc      ... 4.388
Radial Grid Type                 RadialGrid  ... OptM3 with GC (2021)
Angular Grid (max. ang.)         AngularGrid ... 4 (Lebedev-302)
Angular grid pruning method      GridPruning ... 4 (adaptive)
Weight generation scheme         WeightScheme... Becke
Basis function cutoff            BFCut       ... 1.0000e-11
Integration weight cutoff        WCut        ... 1.0000e-14
Angular grids for H and He will be reduced by one unit
Partially contracted basis set               ... off
Rotationally invariant grid construction     ... off

Total number of grid points                  ...   159904
Total number of batches                      ...     2514
Average number of points per batch           ...       63
Average number of grid points per atom       ...     5330
Time for grid setup =    2.126 sec

--------------------
COSX GRID GENERATION
--------------------

GRIDX 1
-------
General Integration Accuracy     IntAcc      ... 3.816
Radial Grid Type                 RadialGrid  ... OptM3 with GC (2021)
Angular Grid (max. ang.)         AngularGrid ... 1 (Lebedev-50)
Angular grid pruning method      GridPruning ... 4 (adaptive)
Weight generation scheme         WeightScheme... Becke
Basis function cutoff            BFCut       ... 1.0000e-11
Integration weight cutoff        WCut        ... 1.0000e-14
Angular grids for H and He will be reduced by one unit
Partially contracted basis set               ... on
Rotationally invariant grid construction     ... off

Total number of grid points                  ...    20290
Total number of batches                      ...      334
Average number of points per batch           ...       60
Average number of grid points per atom       ...      676
UseSFitting                                  ... on

GRIDX 2
-------
General Integration Accuracy     IntAcc      ... 4.020
Radial Grid Type                 RadialGrid  ... OptM3 with GC (2021)
Angular Grid (max. ang.)         AngularGrid ... 2 (Lebedev-110)
Angular grid pruning method      GridPruning ... 4 (adaptive)
Weight generation scheme         WeightScheme... Becke
Basis function cutoff            BFCut       ... 1.0000e-11
Integration weight cutoff        WCut        ... 1.0000e-14
Angular grids for H and He will be reduced by one unit
Partially contracted basis set               ... on
Rotationally invariant grid construction     ... off

Total number of grid points                  ...    49825
Total number of batches                      ...      794
Average number of points per batch           ...       62
Average number of grid points per atom       ...     1661
UseSFitting                                  ... on

GRIDX 3
-------
General Integration Accuracy     IntAcc      ... 4.338
Radial Grid Type                 RadialGrid  ... OptM3 with GC (2021)
Angular Grid (max. ang.)         AngularGrid ... 3 (Lebedev-194)
Angular grid pruning method      GridPruning ... 4 (adaptive)
Weight generation scheme         WeightScheme... Becke
Basis function cutoff            BFCut       ... 1.0000e-11
Integration weight cutoff        WCut        ... 1.0000e-14
Angular grids for H and He will be reduced by one unit
Partially contracted basis set               ... on
Rotationally invariant grid construction     ... off

Total number of grid points                  ...   107548
Total number of batches                      ...     1695
Average number of points per batch           ...       63
Average number of grid points per atom       ...     3585
UseSFitting                                  ... on

Time for X-Grid setup             =    6.526 sec


--------------------
CPCM SOLVATION MODEL
--------------------
CPCM parameters:
  Epsilon                                         ...      32.6130
  Refrac                                          ...       1.3288
  Rsolv                                           ...       1.3000
  Surface type                                    ... GAUSSIAN VDW
  Epsilon function type                           ...         CPCM
Solvent:                                     ... METHANOL
SMD-CDS solvent descriptors:
  Soln                                       ...    1.3288
  Soln25                                     ...    1.3265
  Sola                                       ...    0.4300
  Solb                                       ...    0.4700
  Solg                                       ...   31.7700
  Solc                                       ...    0.0000
  Solh                                       ...    0.0000
Radii:
 Radius for O  used is    2.8724 Bohr (=   1.5200 Ang.)
 Radius for C  used is    3.4960 Bohr (=   1.8500 Ang.)
 Radius for N  used is    3.5716 Bohr (=   1.8900 Ang.)
 Radius for F  used is    3.2692 Bohr (=   1.7300 Ang.)
 Radius for H  used is    2.2677 Bohr (=   1.2000 Ang.)
Calculating surface                               ...        done! (  0.0s)
GEPOL surface points                              ...         1756
GEPOL Volume                                      ...    1762.6573
GEPOL Surface-area                                ...     996.7778
Calculating surface distance matrix               ...        done! (  0.0s)
Performing Cholesky decomposition & store         ...        done! (  0.2s)
Overall time for CPCM initialization              ...                 0.2s
 re-compute Schwartz prescreening matrix in partically contracted basis (1) ...done (   0.251 sec)
--------------
SCF ITERATIONS
--------------
ITER       Energy         Delta-E        Max-DP      RMS-DP      [F,P]     Damp
               ***  Starting incremental Fock matrix formation  ***
  0  -1018.8622955276   0.000000000000 0.12229433  0.00117581  0.2800356 0.7000
  1  -1019.0392809620  -0.176985434342 0.09223102  0.00088688  0.1188314 0.7000
                               ***Turning on DIIS***
  2  -1019.1130819763  -0.073801014364 0.24533409  0.00181375  0.0416995 0.0000
  3  -1019.2334600078  -0.120378031424 0.03898785  0.00047557  0.0561854 0.0000
  4  -1019.2550744610  -0.021614453288 0.02475007  0.00016453  0.0142582 0.0000
  5  -1019.2565927406  -0.001518279508 0.00753498  0.00007533  0.0071843 0.0000
                      *** Initiating the SOSCF procedure ***
                           *** Shutting down DIIS ***
                      *** Re-Reading the Fockian *** 
                      *** Removing any level shift *** 
ITER      Energy       Delta-E        Grad      Rot      Max-DP    RMS-DP
  6  -1019.25672911  -0.0001363667  0.000768  0.000768  0.005031  0.000034
               *** Restarting incremental Fock matrix formation ***
  7  -1019.25676039  -0.0000312842  0.000622  0.005454  0.028852  0.000372
  8  -1019.25677116  -0.0000107668  0.000127  0.002571  0.013074  0.000142
  9  -1019.25677084   0.0000003221  0.000202  0.000734  0.009529  0.000124
 10  -1019.25677304  -0.0000022035  0.000018  0.000217  0.005970  0.000041
 11  -1019.25677303   0.0000000069  0.000022  0.000152  0.003103  0.000022
 12  -1019.25677314  -0.0000001026  0.000004  0.000031  0.005543  0.000042
 13  -1019.25677315  -0.0000000180  0.000005  0.000013  0.005531  0.000028
                  ***Gradient check signals convergence***
              ***Rediagonalizing the Fockian in SOSCF/NRSCF***

               *****************************************************
               *                     SUCCESS                       *
               *           SCF CONVERGED AFTER  14 CYCLES          *
               *****************************************************

Old exchange energy                            =    -32.349640384 Eh
New exchange energy                            =    -32.349646301 Eh
Exchange energy change after final integration =     -0.000005917 Eh
Total energy after final integration           =  -1019.256779041 Eh
Final COS-X integration done in                =   143.279 sec

SMD CDS free energy correction energy :                 2.12809     Kcal/mol
Total Energy after SMD CDS correction =             -1019.253387716 Eh

----------------
TOTAL SCF ENERGY
----------------

Total Energy       :        -1019.25338772 Eh          -27735.29471 eV

Components:
Nuclear Repulsion  :         1554.14536436 Eh           42290.44537 eV
Electronic Energy  :        -2573.39875208 Eh          -70025.74008 eV
One Electron Energy:        -4479.21008822 Eh         -121885.50304 eV
Two Electron Energy:         1905.81133614 Eh           51859.76296 eV
Max COSX asymmetry :            0.00004474 Eh               0.00122 eV
CPCM Dielectric    :           -0.03368989 Eh              -0.91675 eV
SMD CDS (Gcds)     :            0.00339132 Eh               0.09228 eV

Virial components:
Potential Energy   :        -2033.01233268 Eh          -55321.07804 eV
Kinetic Energy     :         1013.75894496 Eh           27585.78333 eV
Virial Ratio       :            2.00541987


DFT components:
N(Alpha)           :       73.000014060871 electrons
N(Beta)            :       73.000014060871 electrons
N(Total)           :      146.000028121742 electrons
E(X)               :      -96.905788634970 Eh       
E(C)               :       -4.961461483204 Eh       
E(XC)              :     -101.867250118174 Eh       
DFET-embed. en.    :        0.000000000000 Eh       
CPCM Solvation Model Properties:
Surface-charge          :           -0.05242642
Charge-correction       :            0.00020552 Eh               0.00559 eV
Free-energy (cav+disp)  :            0.00339132 Eh               0.09228 eV

---------------
SCF CONVERGENCE
---------------

  Last Energy change         ...    2.9616e-08  Tolerance :   1.0000e-08
  Last MAX-Density change    ...    4.8850e-15  Tolerance :   1.0000e-07
  Last RMS-Density change    ...    1.8136e-17  Tolerance :   5.0000e-09
  Last Orbital Gradient      ...    1.1839e-06  Tolerance :   1.0000e-05
  Last Orbital Rotation      ...    7.8366e-06  Tolerance :   1.0000e-05

             **** THE GBW FILE WAS UPDATED (optpbed3-b2plyp-test-592.gbw) ****
             **** DENSITY optpbed3-b2plyp-test-592.scfp WAS UPDATED ****
             **** ENERGY FILE WAS UPDATED (optpbed3-b2plyp-test-592.en.tmp) ****
             **** THE GBW FILE WAS UPDATED (optpbed3-b2plyp-test-592.gbw) ****
             **** DENSITY optpbed3-b2plyp-test-592.scfp WAS UPDATED ****
----------------
ORBITAL ENERGIES
----------------

  NO   OCC          E(Eh)            E(eV) 
   0   2.0000     -24.799716      -674.8346 
   1   2.0000     -24.794952      -674.7049 
   2   2.0000     -19.227583      -523.2091 
   3   2.0000     -19.208759      -522.6969 
   4   2.0000     -14.442561      -393.0021 
   5   2.0000     -10.344176      -281.4793 
   6   2.0000     -10.325590      -280.9736 
   7   2.0000     -10.319308      -280.8027 
   8   2.0000     -10.319275      -280.8017 
   9   2.0000     -10.309443      -280.5342 
  10   2.0000     -10.295758      -280.1618 
  11   2.0000     -10.256954      -279.1059 
  12   2.0000     -10.254999      -279.0527 
  13   2.0000     -10.246011      -278.8081 
  14   2.0000     -10.245063      -278.7823 
  15   2.0000     -10.243757      -278.7468 
  16   2.0000     -10.242844      -278.7220 
  17   2.0000     -10.242791      -278.7205 
  18   2.0000     -10.242063      -278.7007 
  19   2.0000     -10.241387      -278.6823 
  20   2.0000     -10.238919      -278.6152 
  21   2.0000      -1.272075       -34.6149 
  22   2.0000      -1.270265       -34.5657 
  23   2.0000      -1.107139       -30.1268 
  24   2.0000      -1.085517       -29.5384 
  25   2.0000      -1.011443       -27.5228 
  26   2.0000      -0.914392       -24.8819 
  27   2.0000      -0.903230       -24.5781 
  28   2.0000      -0.854152       -23.2427 
  29   2.0000      -0.803880       -21.8747 
  30   2.0000      -0.797020       -21.6880 
  31   2.0000      -0.789263       -21.4769 
  32   2.0000      -0.769030       -20.9264 
  33   2.0000      -0.723345       -19.6832 
  34   2.0000      -0.685188       -18.6449 
  35   2.0000      -0.668440       -18.1892 
  36   2.0000      -0.652968       -17.7682 
  37   2.0000      -0.643514       -17.5109 
  38   2.0000      -0.610314       -16.6075 
  39   2.0000      -0.596429       -16.2297 
  40   2.0000      -0.574431       -15.6311 
  41   2.0000      -0.568805       -15.4780 
  42   2.0000      -0.553596       -15.0641 
  43   2.0000      -0.540371       -14.7042 
  44   2.0000      -0.525988       -14.3129 
  45   2.0000      -0.512301       -13.9404 
  46   2.0000      -0.504125       -13.7179 
  47   2.0000      -0.499409       -13.5896 
  48   2.0000      -0.494612       -13.4591 
  49   2.0000      -0.482964       -13.1421 
  50   2.0000      -0.477886       -13.0039 
  51   2.0000      -0.472727       -12.8636 
  52   2.0000      -0.464109       -12.6290 
  53   2.0000      -0.457143       -12.4395 
  54   2.0000      -0.455643       -12.3987 
  55   2.0000      -0.454645       -12.3715 
  56   2.0000      -0.441387       -12.0107 
  57   2.0000      -0.435350       -11.8465 
  58   2.0000      -0.431434       -11.7399 
  59   2.0000      -0.416767       -11.3408 
  60   2.0000      -0.408158       -11.1065 
  61   2.0000      -0.392383       -10.6773 
  62   2.0000      -0.385802       -10.4982 
  63   2.0000      -0.378008       -10.2861 
  64   2.0000      -0.371456       -10.1078 
  65   2.0000      -0.364163        -9.9094 
  66   2.0000      -0.310871        -8.4592 
  67   2.0000      -0.299140        -8.1400 
  68   2.0000      -0.289824        -7.8865 
  69   2.0000      -0.286358        -7.7922 
  70   2.0000      -0.282460        -7.6861 
  71   2.0000      -0.267069        -7.2673 
  72   2.0000      -0.231722        -6.3055 
  73   0.0000      -0.117829        -3.2063 
  74   0.0000      -0.044318        -1.2060 
  75   0.0000      -0.028053        -0.7634 
  76   0.0000      -0.011950        -0.3252 
  77   0.0000       0.003459         0.0941 
  78   0.0000       0.005118         0.1393 
  79   0.0000       0.012604         0.3430 
  80   0.0000       0.016994         0.4624 
  81   0.0000       0.026350         0.7170 
  82   0.0000       0.026891         0.7317 
  83   0.0000       0.032285         0.8785 
  84   0.0000       0.033968         0.9243 
  85   0.0000       0.037007         1.0070 
  86   0.0000       0.041091         1.1182 
  87   0.0000       0.045243         1.2311 
  88   0.0000       0.050781         1.3818 
  89   0.0000       0.051183         1.3928 
  90   0.0000       0.060363         1.6426 
  91   0.0000       0.060961         1.6588 
  92   0.0000       0.065141         1.7726 
  93   0.0000       0.068775         1.8715 
  94   0.0000       0.070492         1.9182 
  95   0.0000       0.076084         2.0704 
  96   0.0000       0.079820         2.1720 
  97   0.0000       0.082764         2.2521 
  98   0.0000       0.089785         2.4432 
  99   0.0000       0.091363         2.4861 
 100   0.0000       0.096400         2.6232 
 101   0.0000       0.096986         2.6391 
 102   0.0000       0.103444         2.8149 
 103   0.0000       0.108705         2.9580 
 104   0.0000       0.110960         3.0194 
 105   0.0000       0.112215         3.0535 
 106   0.0000       0.112588         3.0637 
 107   0.0000       0.116870         3.1802 
 108   0.0000       0.120454         3.2777 
 109   0.0000       0.123894         3.3713 
 110   0.0000       0.124510         3.3881 
 111   0.0000       0.128105         3.4859 
 112   0.0000       0.130758         3.5581 
 113   0.0000       0.133639         3.6365 
 114   0.0000       0.135455         3.6859 
 115   0.0000       0.136859         3.7241 
 116   0.0000       0.140883         3.8336 
 117   0.0000       0.143142         3.8951 
 118   0.0000       0.145434         3.9575 
 119   0.0000       0.146810         3.9949 
 120   0.0000       0.148700         4.0463 
 121   0.0000       0.153247         4.1701 
 122   0.0000       0.155727         4.2375 
 123   0.0000       0.156150         4.2491 
 124   0.0000       0.161027         4.3818 
 125   0.0000       0.162961         4.4344 
 126   0.0000       0.163599         4.4518 
 127   0.0000       0.164760         4.4834 
 128   0.0000       0.168590         4.5876 
 129   0.0000       0.172928         4.7056 
 130   0.0000       0.174422         4.7463 
 131   0.0000       0.176187         4.7943 
 132   0.0000       0.177502         4.8301 
 133   0.0000       0.181926         4.9505 
 134   0.0000       0.185279         5.0417 
 135   0.0000       0.191115         5.2005 
 136   0.0000       0.191631         5.2145 
 137   0.0000       0.194276         5.2865 
 138   0.0000       0.197140         5.3645 
 139   0.0000       0.199771         5.4360 
 140   0.0000       0.201412         5.4807 
 141   0.0000       0.206296         5.6136 
 142   0.0000       0.207255         5.6397 
 143   0.0000       0.212173         5.7735 
 144   0.0000       0.212616         5.7856 
 145   0.0000       0.214709         5.8425 
 146   0.0000       0.217082         5.9071 
 147   0.0000       0.220691         6.0053 
 148   0.0000       0.221350         6.0232 
 149   0.0000       0.224406         6.1064 
 150   0.0000       0.229876         6.2552 
 151   0.0000       0.233740         6.3604 
 152   0.0000       0.234379         6.3778 
 153   0.0000       0.236390         6.4325 
 154   0.0000       0.238066         6.4781 
 155   0.0000       0.241964         6.5842 
 156   0.0000       0.243538         6.6270 
 157   0.0000       0.246460         6.7065 
 158   0.0000       0.248681         6.7670 
 159   0.0000       0.252522         6.8715 
 160   0.0000       0.253435         6.8963 
 161   0.0000       0.255319         6.9476 
 162   0.0000       0.259335         7.0569 
 163   0.0000       0.261679         7.1207 
 164   0.0000       0.264364         7.1937 
 165   0.0000       0.265985         7.2378 
 166   0.0000       0.270138         7.3508 
 167   0.0000       0.272684         7.4201 
 168   0.0000       0.273035         7.4297 
[...]
   (ab|v) reading and digestion   ...   628.38 sec
   Final sigma-completion         ...     0.02 sec
   Done building sigma-vectors             Size of expansion space: 20
   Lowest Energy          :     0.114387732198
   Maximum Energy change  :     0.000369011648 (vector 9)
   Maximum residual norm  :     0.000062738669

                       ****Iteration    6****
              <<< Entering MO-section for Build Sigma(Double) >>>
   Forming the XC and CPCM contribution:
   Time for densities:            0.229
   Time for XC-Integration:      22.221
   Time for LR-CPCM terms:       12.833
   Time for Sigma-Completion:     0.172
   Time for building 10 sigma-vectors
   Data Preparation Phase         ...     0.01 sec
   Transformed RI Coulomb         ...     0.71 sec
   Transformed RI-exchange        ...   307.29 sec
   (ab|v) reading and digestion   ...   262.87 sec
   Final sigma-completion         ...     0.01 sec
   Done building sigma-vectors             Size of expansion space: 30
   Lowest Energy          :     0.114387724392
   Maximum Energy change  :     0.000090957085 (vector 9)
   Maximum residual norm  :     0.000012282686

                       ****Iteration    7****
              <<< Entering MO-section for Build Sigma(Double) >>>
   Forming the XC and CPCM contribution:
   Time for densities:            0.226
   Time for XC-Integration:      22.675
   Time for LR-CPCM terms:       13.080
   Time for Sigma-Completion:     0.166
   Time for building 10 sigma-vectors
   Data Preparation Phase         ...     0.01 sec
   Transformed RI Coulomb         ...     0.71 sec
   Transformed RI-exchange        ...   304.28 sec
   (ab|v) reading and digestion   ...   266.01 sec
   Final sigma-completion         ...     0.01 sec
   Done building sigma-vectors             Size of expansion space: 40
   Lowest Energy          :     0.114387723698
   Maximum Energy change  :     0.000030192366 (vector 9)
   Maximum residual norm  :     0.000004347908

                       ****Iteration    8****
              <<< Entering MO-section for Build Sigma(Double) >>>
   Forming the XC and CPCM contribution:
   Time for densities:            0.228
   Time for XC-Integration:      23.350
   Time for LR-CPCM terms:       13.134
   Time for Sigma-Completion:     0.191
   Time for building 10 sigma-vectors
   Data Preparation Phase         ...     0.01 sec
   Transformed RI Coulomb         ...     0.68 sec
   Transformed RI-exchange        ...   308.21 sec
   (ab|v) reading and digestion   ...   262.89 sec
   Final sigma-completion         ...     0.01 sec
   Done building sigma-vectors             Size of expansion space: 50
   Lowest Energy          :     0.114387723660
   Maximum Energy change  :     0.000011895467 (vector 9)
   Maximum residual norm  :     0.000003427471

                       ****Iteration    9****
              <<< Entering MO-section for Build Sigma(Double) >>>
   Forming the XC and CPCM contribution:
   Time for densities:            0.231
   Time for XC-Integration:      23.446
   Time for LR-CPCM terms:       13.371
   Time for Sigma-Completion:     0.165
   Time for building 10 sigma-vectors
   Data Preparation Phase         ...     0.01 sec
   Transformed RI Coulomb         ...     0.71 sec
   Transformed RI-exchange        ...   304.42 sec
   (ab|v) reading and digestion   ...   277.69 sec
   Final sigma-completion         ...     0.01 sec
   Done building sigma-vectors             Size of expansion space: 60
   Lowest Energy          :     0.114387723657
   Maximum Energy change  :     0.000006538449 (vector 9)
   Maximum residual norm  :     0.000000987818

      *** CONVERGENCE OF RESIDUAL NORM REACHED ***

Storing the converged CI vectors               ... optpbed3-b2plyp-test-592_job2.cis1

                 *** DAVIDSON DONE ***

Total time for solving the CIS problem:  3697.858sec

------------------
DOUBLES CORRECTION (Double precision version)
------------------

The (D) correction will be scaled by  0.2700
Doing v(i,a)*T(i,a) terms (RI)                    ... ok
Doing u(i,j,a,b) terms for state   0              ... ok
Doing u(i,j,a,b) terms for state   1              ... ok
Doing u(i,j,a,b) terms for state   2              ... ok
Doing u(i,j,a,b) terms for state   3              ... ok
Doing u(i,j,a,b) terms for state   4              ... ok
Doing u(i,j,a,b) terms for state   5              ... ok
Doing u(i,j,a,b) terms for state   6              ... ok
Doing u(i,j,a,b) terms for state   7              ... ok
Doing u(i,j,a,b) terms for state   8              ... ok
Doing u(i,j,a,b) terms for state   9              ... ok

Contributions to the (D) correction(s) (in eV)

STATE  Final   Init.   Total   v(ext)   v(int)  v(3)    u
       omega   omega     (D)                             
-----------------------------------------------------------------------------
   0   2.595   3.113  -0.517   0.739   0.949  -0.035  -2.171
   1   3.183   3.789  -0.606   0.750   0.804  -0.029  -2.131
   2   3.332   4.043  -0.712   0.758   0.791  -0.028  -2.233
   3   3.755   4.300  -0.545   0.729   0.932  -0.039  -2.167
   4   3.726   4.392  -0.666   0.733   0.927  -0.029  -2.297
   5   3.961   4.692  -0.731   0.731   0.903  -0.018  -2.347
   6   4.560   5.191  -0.630   0.716   0.934  -0.052  -2.228
   7   4.641   5.272  -0.631   0.503   0.957  -0.032  -2.060
   8   4.883   5.538  -0.655   0.518   0.948  -0.035  -2.086
   9   5.176   5.741  -0.565   0.421   0.949  -0.031  -1.904

(D)-timings
 V(i,a)*T(i,a) terms           ...   736.286 sec
 U(i,j,a,b) 3-internal         ...    17.283 sec
 U(i,j,a,b) 3-external         ...   349.236 sec
 U(i,j,a,b) pair terms         ...   398.745 sec
 Total measured time           ...  3707.354 sec

 Time for (ab|v) I/O           ...    99.872 sec


------------------------------------
TD-DFT/TDA EXCITED STATES (SINGLETS)
------------------------------------

the weight of the individual excitations are printed if larger than 1.0e-02

STATE  1:  E=   0.095373 au      2.595 eV    20932.0 cm**-1 <S**2> =   0.000000
    66a ->  73a  :     0.028568 (c=  0.16902178)
    69a ->  73a  :     0.020791 (c=  0.14419013)
    71a ->  73a  :     0.036638 (c=  0.19140974)
    72a ->  73a  :     0.875132 (c= -0.93548496)

STATE  2:  E=   0.116972 au      3.183 eV    25672.5 cm**-1 <S**2> =   0.000000
    66a ->  73a  :     0.202674 (c= -0.45019320)
    66a ->  74a  :     0.031861 (c=  0.17849599)
    66a ->  95a  :     0.012799 (c=  0.11313389)
    66a ->  98a  :     0.010118 (c=  0.10058799)
    67a ->  73a  :     0.448395 (c=  0.66962297)
    68a ->  73a  :     0.094403 (c=  0.30725116)
    69a ->  73a  :     0.084071 (c=  0.28995020)
    70a ->  73a  :     0.053483 (c= -0.23126485)

STATE  3:  E=   0.122439 au      3.332 eV    26872.3 cm**-1 <S**2> =   0.000000
    66a ->  73a  :     0.389184 (c=  0.62384580)
    67a ->  73a  :     0.377905 (c=  0.61473995)
    67a ->  74a  :     0.051871 (c=  0.22775304)
    67a ->  95a  :     0.022950 (c=  0.15149225)
    69a ->  73a  :     0.052984 (c= -0.23018247)
    70a ->  73a  :     0.038129 (c=  0.19526631)

STATE  4:  E=   0.137976 au      3.755 eV    30282.3 cm**-1 <S**2> =   0.000000
    69a ->  73a  :     0.202606 (c= -0.45011745)
    69a ->  74a  :     0.018757 (c= -0.13695770)
    70a ->  73a  :     0.571295 (c= -0.75584089)
    71a ->  73a  :     0.141767 (c= -0.37651964)

STATE  5:  E=   0.136921 au      3.726 eV    30050.6 cm**-1 <S**2> =   0.000000
    66a ->  73a  :     0.093468 (c=  0.30572469)
    68a ->  73a  :     0.014883 (c= -0.12199396)
    69a ->  73a  :     0.126972 (c=  0.35633097)
    70a ->  73a  :     0.248860 (c= -0.49885890)
    71a ->  73a  :     0.365576 (c=  0.60462920)
    72a ->  73a  :     0.082589 (c=  0.28738374)

STATE  6:  E=   0.145566 au      3.961 eV    31948.0 cm**-1 <S**2> =   0.000000
    66a ->  73a  :     0.051910 (c=  0.22783825)
    68a ->  73a  :     0.015905 (c= -0.12611468)
    69a ->  73a  :     0.450412 (c=  0.67112739)
    71a ->  73a  :     0.415311 (c= -0.64444604)

STATE  7:  E=   0.167585 au      4.560 eV    36780.6 cm**-1 <S**2> =   0.000000
    65a ->  73a  :     0.011035 (c=  0.10504541)
    66a ->  73a  :     0.071210 (c= -0.26685172)
    67a ->  73a  :     0.039655 (c=  0.19913631)
    68a ->  73a  :     0.778572 (c= -0.88236752)
    70a ->  74a  :     0.012550 (c= -0.11202543)
    72a ->  75a  :     0.015955 (c=  0.12631222)

STATE  8:  E=   0.170541 au      4.641 eV    37429.5 cm**-1 <S**2> =   0.000000
    68a ->  73a  :     0.010083 (c= -0.10041639)
    69a ->  74a  :     0.017292 (c= -0.13150010)
    71a ->  75a  :     0.012984 (c= -0.11394730)
    72a ->  74a  :     0.440871 (c=  0.66398127)
    72a ->  75a  :     0.269639 (c= -0.51926776)
    72a ->  76a  :     0.060767 (c= -0.24650979)
    72a ->  78a  :     0.020463 (c=  0.14304853)
    72a ->  79a  :     0.027370 (c= -0.16544023)
    72a ->  81a  :     0.010688 (c=  0.10338475)

STATE  9:  E=   0.179440 au      4.883 eV    39382.6 cm**-1 <S**2> =   0.000000
    69a ->  74a  :     0.018504 (c=  0.13603112)
    70a ->  73a  :     0.010162 (c= -0.10080569)
    71a ->  73a  :     0.014084 (c= -0.11867614)
    71a ->  74a  :     0.067684 (c=  0.26016182)
    71a ->  75a  :     0.059848 (c= -0.24463768)
    71a ->  76a  :     0.025354 (c= -0.15923028)
    71a ->  83a  :     0.017193 (c= -0.13112181)
    71a ->  85a  :     0.014806 (c= -0.12167982)
    72a ->  74a  :     0.262400 (c= -0.51224974)
    72a ->  75a  :     0.093788 (c= -0.30624872)
    72a ->  78a  :     0.042487 (c=  0.20612279)
    72a ->  79a  :     0.145075 (c= -0.38088681)
    72a ->  81a  :     0.025392 (c=  0.15934904)
    72a ->  83a  :     0.025795 (c=  0.16060910)
    72a ->  85a  :     0.011883 (c=  0.10900741)
    72a ->  86a  :     0.010725 (c= -0.10356145)

STATE 10:  E=   0.190201 au      5.176 eV    41744.2 cm**-1 <S**2> =   0.000000
    69a ->  73a  :     0.010890 (c=  0.10435390)
    69a ->  74a  :     0.014134 (c= -0.11888651)
    70a ->  74a  :     0.014722 (c=  0.12133242)
    71a ->  75a  :     0.072051 (c= -0.26842309)
    71a ->  76a  :     0.023057 (c= -0.15184644)
    72a ->  74a  :     0.090138 (c=  0.30022981)
    72a ->  75a  :     0.404729 (c=  0.63618283)
    72a ->  76a  :     0.014086 (c=  0.11868567)
    72a ->  78a  :     0.045568 (c=  0.21346598)
    72a ->  79a  :     0.121859 (c= -0.34908355)
    72a ->  83a  :     0.029950 (c=  0.17306085)


-----------------------------
TD-DFT/TDA-EXCITATION SPECTRA
-----------------------------

Center of mass = ( -0.4771, -0.2073,  0.1554)
Calculating the Dipole integrals                  ... done
Transforming integrals                            ... done
Calculating the Linear Momentum integrals         ... done
Transforming integrals                            ... done
Calculating angular momentum integrals            ... done
Transforming integrals                            ... done

-----------------------------------------------------------------------------
         ABSORPTION SPECTRUM VIA TRANSITION ELECTRIC DIPOLE MOMENTS
-----------------------------------------------------------------------------
State   Energy    Wavelength  fosc         T2        TX        TY        TZ  
        (cm-1)      (nm)                 (au**2)    (au)      (au)      (au) 
-----------------------------------------------------------------------------
   1   20932.0    477.7   0.150877802   2.37296  -1.42949   0.57080  -0.06102
   2   25672.5    389.5   0.008860333   0.11362  -0.33548  -0.02568   0.02036
   3   26872.3    372.1   0.001944013   0.02382   0.13175   0.08025  -0.00417
   4   30282.3    330.2   0.159110484   1.72976  -1.20969  -0.50565   0.10359
   5   30050.6    332.8   0.143991428   1.57746   0.95465  -0.81480  -0.04681
   6   31948.0    313.0   0.069955096   0.72086   0.67136  -0.51953   0.01474
   7   36780.6    271.9   0.175727035   1.57288   0.71739  -0.95550  -0.38111
   8   37429.5    267.2   0.493378339   4.33952   2.04058  -0.29176   0.30074
   9   39382.6    253.9   0.222650729   1.86121  -1.18663  -0.63587   0.22088
  10   41744.2    239.6   0.118907955   0.93776  -0.25965   0.92213  -0.14150

-----------------------------------------------------------------------------
         ABSORPTION SPECTRUM VIA TRANSITION VELOCITY DIPOLE MOMENTS
-----------------------------------------------------------------------------
State   Energy    Wavelength   fosc        P2         PX        PY        PZ  
        (cm-1)      (nm)                 (au**2)     (au)      (au)      (au) 
-----------------------------------------------------------------------------
   1   20932.0    477.7   0.082275444   0.01177   0.10574  -0.01415   0.01973
   2   25672.5    389.5   0.009000155   0.00158   0.03944  -0.00459  -0.00154
   3   26872.3    372.1   0.002398127   0.00044  -0.02089   0.00183   0.00070
   4   30282.3    330.2   0.051309779   0.01062   0.09493   0.03872   0.01038
   5   30050.6    332.8   0.025204757   0.00518  -0.06778   0.02075  -0.01231
   6   31948.0    313.0   0.023519405   0.00514  -0.06986   0.01488  -0.00580
   7   36780.6    271.9   0.012816672   0.00322  -0.03604   0.04244   0.01103
   8   37429.5    267.2   0.296874780   0.07594  -0.27455   0.00803  -0.02237
   9   39382.6    253.9   0.113748341   0.03062   0.16863   0.04647   0.00466
  10   41744.2    239.6   0.043943810   0.01254   0.06377  -0.09081   0.01494

-------------------------------------------------------------------
                             CD SPECTRUM
-------------------------------------------------------------------
State  Energy     Wavelength     R         MX        MY        MZ   
       (cm-1)       (nm)     (1e40*cgs)   (au)      (au)      (au)  
-------------------------------------------------------------------
   1   20932.0    477.7     38.21789  -0.03598  -0.01142  -0.59239
   2   25672.5    389.5    -27.41650   0.17496  -0.28164  -0.32867
   3   26872.3    372.1      2.88489   0.11607  -0.10268   0.22345
   4   30282.3    330.2      3.28389   0.01767  -0.05557   0.00236
   5   30050.6    332.8    -73.70091  -0.06601   0.12230  -0.13540
   6   31948.0    313.0    -39.19613  -0.06125   0.08155   0.02359
   7   36780.6    271.9     87.09061   0.13327  -0.06326  -0.07524
   8   37429.5    267.2     17.89028  -0.04126   0.23920   0.63818
   9   39382.6    253.9    -50.90773   0.03832   0.01076  -0.25202
  10   41744.2    239.6      0.47867   0.02958   0.01629   0.04471

-------------------------------------------------------------------
         CD SPECTRUM VIA TRANSITION VELOCITY DIPOLE MOMENTS        
-------------------------------------------------------------------
State  Energy     Wavelength     R         MX        MY        MZ   
       (cm-1)       (nm)     (1e40*cgs)   (au)      (au)      (au)  
-------------------------------------------------------------------
   1   20932.0    477.7    -75.79745  -0.03598  -0.01142  -0.59239
   2   25672.5    389.5     35.06293   0.17496  -0.28164  -0.32867
   3   26872.3    372.1     -9.46240   0.11607  -0.10268   0.22345
   4   30282.3    330.2     -1.53663   0.01767  -0.05557   0.00236
   5   30050.6    332.8     29.88070  -0.06601   0.12230  -0.13540
   6   31948.0    313.0     17.34465  -0.06125   0.08155   0.02359
   7   36780.6    271.9    -23.39958   0.13327  -0.06326  -0.07524
   8   37429.5    267.2     -2.83570  -0.04126   0.23920   0.63818
   9   39382.6    253.9     15.20360   0.03832   0.01076  -0.25202
  10   41744.2    239.6      2.66426   0.02958   0.01629   0.04471

Total run time:     7412.577 sec

           *** ORCA-CIS/TD-DFT FINISHED WITHOUT ERROR ***

Maximum memory used throughout the entire CIS-calculation: 1387.4 MB

-----------------------
CIS/TD-DFT TOTAL ENERGY
-----------------------

    E(SCF)  =  -1018.437581488 Eh
    DE(CIS) =      0.095373080 Eh (Root  1)
    ----------------------------- ---------
    E(tot)  =  -1018.342208407 Eh



-------------------------------------------------------------------------------
                          DFT DISPERSION CORRECTION                            
                                                                               
                              DFTD3 V3.1  Rev 1                                
                          USING Becke-Johnson damping                          
-------------------------------------------------------------------------------
The B2PLYP functional is recognized
Active option DFTDOPT                   ...         4   

molecular C6(AA) [au] = 12515.909181 


            DFT-D V3
 parameters
 s6 scaling factor         :     0.6400 
 a1 scaling factor         :     0.3065 
 s8 scaling factor         :     0.9147 
 a2 scaling factor         :     5.0570 
 ad hoc parameters k1-k3   :    16.0000     1.3333    -4.0000 

 Edisp/kcal,au: -20.759136522905  -0.033081786278 
 E6   /kcal   : -11.514102868 
 E8   /kcal   :  -9.245033655 
 % E8         :  44.534769763 

-------------------------   ----------------
Dispersion correction           -0.033081786
-------------------------   ----------------


-------------------------   --------------------
FINAL SINGLE POINT ENERGY     -1018.375290193497
-------------------------   --------------------


                            ***************************************
                            *     ORCA property calculations      *
                            ***************************************


  WARNING: The energy has been calculated at the MP2 level but the densities
           used in the property calculations are still SCF densities
           MP2 response densities have not been calculated 
           use %mp2 Density relaxed end
           or  %mp2 Density unrelaxed end

                                    ---------------------
                                    Active property flags
                                    ---------------------
   (+) Dipole Moment


------------------------------------------------------------------------------
                       ORCA ELECTRIC PROPERTIES CALCULATION
------------------------------------------------------------------------------

Dipole Moment Calculation                       ... on
Quadrupole Moment Calculation                   ... off
Polarizability Calculation                      ... off
GBWName                                         ... optpbed3-b2plyp-test-592_job2.gbw
Electron density                                ... optpbed3-b2plyp-test-592_job2.scfp
The origin for moment calculation is the CENTER OF MASS  = (-0.477147, -0.207285  0.155417)

-------------
DIPOLE MOMENT
-------------
                                X             Y             Z
Electronic contribution:    -11.39692      -1.71802      -0.13094
Nuclear contribution   :     10.88156       2.39635      -0.17217
                        -----------------------------------------
Total Dipole Moment    :     -0.51535       0.67833      -0.30311
                        -----------------------------------------
Magnitude (a.u.)       :      0.90421
Magnitude (Debye)      :      2.29832



--------------------
Rotational spectrum 
--------------------
 
Rotational constants in cm-1:     0.020196     0.005972     0.005168 
Rotational constants in MHz :   605.449546   179.039481   154.919833 

 Dipole components along the rotational axes: 
x,y,z [a.u.] :    -0.563298     0.707311    -0.000778 
x,y,z [Debye]:    -1.431789     1.797841    -0.001978 

 

Timings for individual modules:

Sum of individual times         ...     9339.915 sec (= 155.665 min)
GTO integral calculation        ...        8.096 sec (=   0.135 min)   0.1 %
SCF iterations                  ...      945.083 sec (=  15.751 min)  10.1 %
MP2 module                      ...      973.468 sec (=  16.224 min)  10.4 %
CIS module                      ...     7413.268 sec (= 123.554 min)  79.4 %



                             ****ORCA TERMINATED NORMALLY****
TOTAL RUN TIME: 0 days 7 hours 22 minutes 53 seconds 539 msec
