
                                 *****************
                                 * O   R   C   A *
                                 *****************

                                            #,                                       
                                            ###                                      
                                            ####                                     
                                            #####                                    
                                            ######                                   
                                           ########,                                 
                                     ,,################,,,,,                         
                               ,,#################################,,                 
                          ,,##########################################,,             
                       ,#########################################, ''#####,          
                    ,#############################################,,   '####,        
                  ,##################################################,,,,####,       
                ,###########''''           ''''###############################       
              ,#####''   ,,,,##########,,,,          '''####'''          '####       
            ,##' ,,,,###########################,,,                        '##       
           ' ,,###''''                  '''############,,,                           
         ,,##''                                '''############,,,,        ,,,,,,###''
      ,#''                                            '''#######################'''  
     '                                                          ''''####''''         
             ,#######,   #######,   ,#######,      ##                                
            ,#'     '#,  ##    ##  ,#'     '#,    #''#        ######   ,####,        
            ##       ##  ##   ,#'  ##            #'  '#       #        #'  '#        
            ##       ##  #######   ##           ,######,      #####,   #    #        
            '#,     ,#'  ##    ##  '#,     ,#' ,#      #,         ##   #,  ,#        
             '#######'   ##     ##  '#######'  #'      '#     #####' # '####'        



                  #######################################################
                  #                        -***-                        #
                  #          Department of theory and spectroscopy      #
                  #    Directorship and core code : Frank Neese         #
                  #        Max Planck Institute fuer Kohlenforschung    #
                  #                Kaiser Wilhelm Platz 1               #
                  #                 D-45470 Muelheim/Ruhr               #
                  #                      Germany                        #
                  #                                                     #
                  #                  All rights reserved                #
                  #                        -***-                        #
                  #######################################################


                         Program Version 5.0.2 -  RELEASE  -


 With contributions from (in alphabetic order):
   Daniel Aravena         : Magnetic Suceptibility
   Michael Atanasov       : Ab Initio Ligand Field Theory (pilot matlab implementation)
   Alexander A. Auer      : GIAO ZORA, VPT2 properties, NMR spectrum
   Ute Becker             : Parallelization
   Giovanni Bistoni       : ED, misc. LED, open-shell LED, HFLD
   Martin Brehm           : Molecular dynamics
   Dmytro Bykov           : SCF Hessian
   Vijay G. Chilkuri      : MRCI spin determinant printing, contributions to CSF-ICE
   Dipayan Datta          : RHF DLPNO-CCSD density
   Achintya Kumar Dutta   : EOM-CC, STEOM-CC
   Dmitry Ganyushin       : Spin-Orbit,Spin-Spin,Magnetic field MRCI
   Miquel Garcia          : C-PCM and meta-GGA Hessian, CC/C-PCM, Gaussian charge scheme
   Yang Guo               : DLPNO-NEVPT2, F12-NEVPT2, CIM, IAO-localization
   Andreas Hansen         : Spin unrestricted coupled pair/coupled cluster methods
   Benjamin Helmich-Paris : MC-RPA, TRAH-SCF, COSX integrals
   Lee Huntington         : MR-EOM, pCC
   Robert Izsak           : Overlap fitted RIJCOSX, COSX-SCS-MP3, EOM
   Marcus Kettner         : VPT2
   Christian Kollmar      : KDIIS, OOCD, Brueckner-CCSD(T), CCSD density, CASPT2, CASPT2-K
   Simone Kossmann        : Meta GGA functionals, TD-DFT gradient, OOMP2, MP2 Hessian
   Martin Krupicka        : Initial AUTO-CI
   Lucas Lang             : DCDCAS
   Marvin Lechner         : AUTO-CI (C++ implementation), FIC-MRCC
   Dagmar Lenk            : GEPOL surface, SMD
   Dimitrios Liakos       : Extrapolation schemes; Compound Job, initial MDCI parallelization
   Dimitrios Manganas     : Further ROCIS development; embedding schemes
   Dimitrios Pantazis     : SARC Basis sets
   Anastasios Papadopoulos: AUTO-CI, single reference methods and gradients
   Taras Petrenko         : DFT Hessian,TD-DFT gradient, ASA, ECA, R-Raman, ABS, FL, XAS/XES, NRVS
   Peter Pinski           : DLPNO-MP2, DLPNO-MP2 Gradient
   Christoph Reimann      : Effective Core Potentials
   Marius Retegan         : Local ZFS, SOC
   Christoph Riplinger    : Optimizer, TS searches, QM/MM, DLPNO-CCSD(T), (RO)-DLPNO pert. Triples
   Tobias Risthaus        : Range-separated hybrids, TD-DFT gradient, RPA, STAB
   Michael Roemelt        : Original ROCIS implementation
   Masaaki Saitow         : Open-shell DLPNO-CCSD energy and density
   Barbara Sandhoefer     : DKH picture change effects
   Avijit Sen             : IP-ROCIS
   Kantharuban Sivalingam : CASSCF convergence, NEVPT2, FIC-MRCI
   Bernardo de Souza      : ESD, SOC TD-DFT
   Georgi Stoychev        : AutoAux, RI-MP2 NMR, DLPNO-MP2 response
   Willem Van den Heuvel  : Paramagnetic NMR
   Boris Wezisla          : Elementary symmetry handling
   Frank Wennmohs         : Technical directorship


 We gratefully acknowledge several colleagues who have allowed us to
 interface, adapt or use parts of their codes:
   Stefan Grimme, W. Hujo, H. Kruse, P. Pracht,  : VdW corrections, initial TS optimization,
                  C. Bannwarth, S. Ehlert          DFT functionals, gCP, sTDA/sTD-DF
   Ed Valeev, F. Pavosevic, A. Kumar             : LibInt (2-el integral package), F12 methods
   Garnet Chan, S. Sharma, J. Yang, R. Olivares  : DMRG
   Ulf Ekstrom                                   : XCFun DFT Library
   Mihaly Kallay                                 : mrcc  (arbitrary order and MRCC methods)
   Jiri Pittner, Ondrej Demel                    : Mk-CCSD
   Frank Weinhold                                : gennbo (NPA and NBO analysis)
   Christopher J. Cramer and Donald G. Truhlar   : smd solvation model
   Lars Goerigk                                  : TD-DFT with DH, B97 family of functionals
   V. Asgeirsson, H. Jonsson                     : NEB implementation
   FAccTs GmbH                                   : IRC, NEB, NEB-TS, DLPNO-Multilevel, CI-OPT
                                                   MM, QMMM, 2- and 3-layer-ONIOM, Crystal-QMMM,
                                                   LR-CPCM, SF, NACMEs, symmetry and pop. for TD-DFT,
                                                   nearIR, NL-DFT gradient (VV10), updates on ESD,
                                                   ML-optimized integration grids
   S Lehtola, MJT Oliveira, MAL Marques          : LibXC Library
   Liviu Ungur et al                             : ANISO software


 Your calculation uses the libint2 library for the computation of 2-el integrals
 For citations please refer to: http://libint.valeyev.net

 Your ORCA version has been built with support for libXC version: 5.1.0
 For citations please refer to: https://tddft.org/programs/libxc/

 This ORCA versions uses:
   CBLAS   interface :  Fast vector & matrix operations
   LAPACKE interface :  Fast linear algebra routines
   SCALAPACK package :  Parallel linear algebra routines
   Shared memory     :  Shared parallel matrices
   BLAS/LAPACK       :  OpenBLAS 0.3.15  USE64BITINT DYNAMIC_ARCH NO_AFFINITY Sandybridge SINGLE_THREADED
        Core in use  :  Sandybridge
   Copyright (c) 2011-2014, The OpenBLAS Project


Your calculation utilizes the atom-pairwise dispersion correction
with the Becke-Johnson damping scheme (D3BJ)
Cite in your paper:
S.Grimme, S.Ehrlich, L.Goerigk, J Comput Chem, (2011), 32, 1456–1465 
S.Grimme, J.Antony, S.Ehrlich and H.Krieg, J.Chem.Phys., 132, (2010), 154104 
   

Your calculation utilizes the SMD solvation module
Please cite in your paper:
A.V. Marenich, C.J. Cramer, D.G. Truhlar J. Phys. Chem. B, 113, (2009), 6378 

================================================================================

----- Orbital basis set information -----
Your calculation utilizes the basis: aug-cc-pVTZ 
    H, B-Ne : Obtained from the ccRepo (grant-hill.group.shef.ac.uk/ccrepo) Feb. 2017
              R. A. Kendall, T. H. Dunning, Jr., R. J. Harrison, J. Chem. Phys. 96, 6796 (1992)
         He : Obtained from the ccRepo (grant-hill.group.shef.ac.uk/ccrepo) Feb. 2017
              D. E. Woon, T. H. Dunning, Jr., J. Chem. Phys. 100, 2975 (1994)
  Li-Be, Na : Obtained from the ccRepo (grant-hill.group.shef.ac.uk/ccrepo) Feb. 2017
              B. P. Prascher, D. E. Woon, K. A. Peterson, T. H. Dunning, Jr., A. K. Wilson, Theor. Chem. Acc. 128, 69 (2011)
         Mg : Obtained from the Peterson Research Group Website (tyr0.chem.wsu.edu/~kipeters) Feb. 2017
              B. P. Prascher, D. E. Woon, K. A. Peterson, T. H. Dunning, Jr., A. K. Wilson, Theor. Chem. Acc. 128, 69 (2011)
      Al-Ar : Obtained from the ccRepo (grant-hill.group.shef.ac.uk/ccrepo) Feb. 2017
              D. E. Woon, T. H. Dunning, Jr., J. Chem. Phys. 98, 1358 (1993)
      Sc-Zn : Obtained from the ccRepo (grant-hill.group.shef.ac.uk/ccrepo) Feb. 2017
              N. B. Balabanov, K. A. Peterson, J. Chem. Phys. 123, 064107 (2005)
              N. B. Balabanov, K. A. Peterson, J. Chem. Phys. 125, 074110 (2006)
      Ga-Kr : Obtained from the ccRepo (grant-hill.group.shef.ac.uk/ccrepo) Feb. 2017
              A. K. Wilson, D. E. Woon, K. A. Peterson, T. H. Dunning, Jr., J. Chem. Phys. 110, 7667 (1999)
     Ag, Au : Obtained from the Peterson Research Group Website (tyr0.chem.wsu.edu/~kipeters) Feb. 2017
              K. A. Peterson, C. Puzzarini, Theor. Chem. Acc. 114, 283 (2005)

The basis set includes element-specific modifications.

Your calculation utilizes the basis: cc-pVTZ 
       H, B-Ne : Obtained from the ccRepo (grant-hill.group.shef.ac.uk/ccrepo) Feb. 2017
                 T. H. Dunning, Jr., J. Chem. Phys. 90, 1007 (1989)
            He : Obtained from the ccRepo (grant-hill.group.shef.ac.uk/ccrepo) Feb. 2017
                 D. E. Woon, T. H. Dunning, Jr., J. Chem. Phys. 100, 2975 (1994)
  Li-Be, Na-Mg : Obtained from the ccRepo (grant-hill.group.shef.ac.uk/ccrepo) Feb. 2017
                 B. P. Prascher, D. E. Woon, K. A. Peterson, T. H. Dunning, Jr., A. K. Wilson, Theor. Chem. Acc. 128, 69 (2011)
         Al-Ar : Obtained from the ccRepo (grant-hill.group.shef.ac.uk/ccrepo) Feb. 2017
                 D. E. Woon, T. H. Dunning, Jr., J. Chem. Phys. 98, 1358 (1993)
            Ca : Obtained from the Peterson Research Group Website (tyr0.chem.wsu.edu/~kipeters) Feb. 2017
                 J. Koput, K. A. Peterson, J. Phys. Chem. 106, 9595 (2002)
         Sc-Zn : Obtained from the ccRepo (grant-hill.group.shef.ac.uk/ccrepo) Feb. 2017
                 N. B. Balabanov, K. A. Peterson, J. Chem. Phys. 123, 064107 (2005)
                 N. B. Balabanov, K. A. Peterson, J. Chem. Phys. 125, 074110 (2006)
         Ga-Kr : Obtained from the ccRepo (grant-hill.group.shef.ac.uk/ccrepo) Feb. 2017
                 A. K. Wilson, D. E. Woon, K. A. Peterson, T. H. Dunning, Jr., J. Chem. Phys. 110, 7667 (1999)
             Y : Obtained from the ccRepo (grant-hill.group.shef.ac.uk/ccrepo) Feb. 2017
                 K. A. Peterson, D. Figgen, M. Dolg, H. Stoll, J. Chem. Phys. 126, 124101 (2007)
        Ag, Au : Obtained from the Peterson Research Group Website (tyr0.chem.wsu.edu/~kipeters) Feb. 2017
                 K. A. Peterson, C. Puzzarini, Theor. Chem. Acc. 114, 283 (2005)

----- AuxJ basis set information -----
Your calculation utilizes the auxiliary basis: aug-cc-pVTZ/JK 
  H, B-F, Al-Cl, Ga-Br : Obtained from the TURBOMOLE 7.0 basis set library

The basis set includes element-specific modifications.

Your calculation utilizes the auxiliary basis: cc-pVTZ/JK 
  H, B-F, Al-Cl, Ga-Br : Obtained from the TURBOMOLE 7.0 basis set library

----- AuxC basis set information -----
Your calculation utilizes the auxiliary basis: aug-cc-pVTZ/C 
  H-He, B-F, Al-Ar, Ga-Kr : Obtained from the EMSL Basis Set Exchange (bse.pnl.gov) Feb. 2017
                            F. Weigend, A. Kohn, C. Hattig, J. Chem. Phys. 116, 3175 (2002)
                   Be, Mg : Obtained from the TURBOMOLE 7.0 basis set library
                            C. Haettig, Phys. Chem. Chem. Phys. 7, 59 (2005)
                       Ne : Obtained from the EMSL Basis Set Exchange (bse.pnl.gov) Feb. 2017
                            C. Haettig, Phys. Chem. Chem. Phys. 7, 59 (2005)
                            F. Weigend, A. Kohn, C. Hattig, J. Chem. Phys. 116, 3175 (2002)
                    Sc-Zn : Obtained from the EMSL Basis Set Exchange (bse.pnl.gov) Feb. 2017
                            J. G. Hill, J. A. Platts, J. Chem. Phys. 128, 044104 (2008)

The basis set includes element-specific modifications.

Your calculation utilizes the auxiliary basis: cc-pVTZ/C 
  Obtained from the EMSL Basis Set Exchange (bse.pnl.gov) Feb. 2017
  H-He, B-F, Al-Ar, Ga-Kr : F. Weigend, A. Kohn, C. Hattig, J. Chem. Phys. 116, 3175 (2002)
             Li-Be, Na-Mg : C. Haettig, Phys. Chem. Chem. Phys. 7, 59 (2005)
                       Ne : C. Haettig, Phys. Chem. Chem. Phys. 7, 59 (2005)
                            F. Weigend, A. Kohn, C. Hattig, J. Chem. Phys. 116, 3175 (2002)
                    Sc-Zn : J. G. Hill, J. A. Platts, J. Chem. Phys. 128, 044104 (2008)

================================================================================
                                        WARNINGS
                       Please study these warnings very carefully!
================================================================================


WARNING: Geometry Optimization
  ===> : Switching off AutoStart
         For restart on a previous wavefunction, please use MOREAD

INFO   : the flag for use of the SHARK integral package has been found!



***************************************
The coordinates will be read from file: 
***************************************


Your calculation utilizes the atom-pairwise dispersion correction
with the Becke-Johnson damping scheme (D3BJ)
Cite in your paper:
S.Grimme, S.Ehrlich, L.Goerigk, J Comput Chem, (2011), 32, 1456–1465 
S.Grimme, J.Antony, S.Ehrlich and H.Krieg, J.Chem.Phys., 132, (2010), 154104 
   

Your calculation utilizes the SMD solvation module
Please cite in your paper:
A.V. Marenich, C.J. Cramer, D.G. Truhlar J. Phys. Chem. B, 113, (2009), 6378 

================================================================================

----- Orbital basis set information -----
Your calculation utilizes the basis: aug-cc-pVTZ 
    H, B-Ne : Obtained from the ccRepo (grant-hill.group.shef.ac.uk/ccrepo) Feb. 2017
              R. A. Kendall, T. H. Dunning, Jr., R. J. Harrison, J. Chem. Phys. 96, 6796 (1992)
         He : Obtained from the ccRepo (grant-hill.group.shef.ac.uk/ccrepo) Feb. 2017
              D. E. Woon, T. H. Dunning, Jr., J. Chem. Phys. 100, 2975 (1994)
  Li-Be, Na : Obtained from the ccRepo (grant-hill.group.shef.ac.uk/ccrepo) Feb. 2017
              B. P. Prascher, D. E. Woon, K. A. Peterson, T. H. Dunning, Jr., A. K. Wilson, Theor. Chem. Acc. 128, 69 (2011)
         Mg : Obtained from the Peterson Research Group Website (tyr0.chem.wsu.edu/~kipeters) Feb. 2017
              B. P. Prascher, D. E. Woon, K. A. Peterson, T. H. Dunning, Jr., A. K. Wilson, Theor. Chem. Acc. 128, 69 (2011)
      Al-Ar : Obtained from the ccRepo (grant-hill.group.shef.ac.uk/ccrepo) Feb. 2017
              D. E. Woon, T. H. Dunning, Jr., J. Chem. Phys. 98, 1358 (1993)
      Sc-Zn : Obtained from the ccRepo (grant-hill.group.shef.ac.uk/ccrepo) Feb. 2017
              N. B. Balabanov, K. A. Peterson, J. Chem. Phys. 123, 064107 (2005)
              N. B. Balabanov, K. A. Peterson, J. Chem. Phys. 125, 074110 (2006)
      Ga-Kr : Obtained from the ccRepo (grant-hill.group.shef.ac.uk/ccrepo) Feb. 2017
              A. K. Wilson, D. E. Woon, K. A. Peterson, T. H. Dunning, Jr., J. Chem. Phys. 110, 7667 (1999)
     Ag, Au : Obtained from the Peterson Research Group Website (tyr0.chem.wsu.edu/~kipeters) Feb. 2017
              K. A. Peterson, C. Puzzarini, Theor. Chem. Acc. 114, 283 (2005)

The basis set includes element-specific modifications.

Your calculation utilizes the basis: cc-pVTZ 
       H, B-Ne : Obtained from the ccRepo (grant-hill.group.shef.ac.uk/ccrepo) Feb. 2017
                 T. H. Dunning, Jr., J. Chem. Phys. 90, 1007 (1989)
            He : Obtained from the ccRepo (grant-hill.group.shef.ac.uk/ccrepo) Feb. 2017
                 D. E. Woon, T. H. Dunning, Jr., J. Chem. Phys. 100, 2975 (1994)
  Li-Be, Na-Mg : Obtained from the ccRepo (grant-hill.group.shef.ac.uk/ccrepo) Feb. 2017
                 B. P. Prascher, D. E. Woon, K. A. Peterson, T. H. Dunning, Jr., A. K. Wilson, Theor. Chem. Acc. 128, 69 (2011)
         Al-Ar : Obtained from the ccRepo (grant-hill.group.shef.ac.uk/ccrepo) Feb. 2017
                 D. E. Woon, T. H. Dunning, Jr., J. Chem. Phys. 98, 1358 (1993)
            Ca : Obtained from the Peterson Research Group Website (tyr0.chem.wsu.edu/~kipeters) Feb. 2017
                 J. Koput, K. A. Peterson, J. Phys. Chem. 106, 9595 (2002)
         Sc-Zn : Obtained from the ccRepo (grant-hill.group.shef.ac.uk/ccrepo) Feb. 2017
                 N. B. Balabanov, K. A. Peterson, J. Chem. Phys. 123, 064107 (2005)
                 N. B. Balabanov, K. A. Peterson, J. Chem. Phys. 125, 074110 (2006)
         Ga-Kr : Obtained from the ccRepo (grant-hill.group.shef.ac.uk/ccrepo) Feb. 2017
                 A. K. Wilson, D. E. Woon, K. A. Peterson, T. H. Dunning, Jr., J. Chem. Phys. 110, 7667 (1999)
             Y : Obtained from the ccRepo (grant-hill.group.shef.ac.uk/ccrepo) Feb. 2017
                 K. A. Peterson, D. Figgen, M. Dolg, H. Stoll, J. Chem. Phys. 126, 124101 (2007)
        Ag, Au : Obtained from the Peterson Research Group Website (tyr0.chem.wsu.edu/~kipeters) Feb. 2017
                 K. A. Peterson, C. Puzzarini, Theor. Chem. Acc. 114, 283 (2005)

----- AuxJ basis set information -----
Your calculation utilizes the auxiliary basis: aug-cc-pVTZ/JK 
  H, B-F, Al-Cl, Ga-Br : Obtained from the TURBOMOLE 7.0 basis set library

The basis set includes element-specific modifications.

Your calculation utilizes the auxiliary basis: cc-pVTZ/JK 
  H, B-F, Al-Cl, Ga-Br : Obtained from the TURBOMOLE 7.0 basis set library

----- AuxC basis set information -----
Your calculation utilizes the auxiliary basis: aug-cc-pVTZ/C 
  H-He, B-F, Al-Ar, Ga-Kr : Obtained from the EMSL Basis Set Exchange (bse.pnl.gov) Feb. 2017
                            F. Weigend, A. Kohn, C. Hattig, J. Chem. Phys. 116, 3175 (2002)
                   Be, Mg : Obtained from the TURBOMOLE 7.0 basis set library
                            C. Haettig, Phys. Chem. Chem. Phys. 7, 59 (2005)
                       Ne : Obtained from the EMSL Basis Set Exchange (bse.pnl.gov) Feb. 2017
                            C. Haettig, Phys. Chem. Chem. Phys. 7, 59 (2005)
                            F. Weigend, A. Kohn, C. Hattig, J. Chem. Phys. 116, 3175 (2002)
                    Sc-Zn : Obtained from the EMSL Basis Set Exchange (bse.pnl.gov) Feb. 2017
                            J. G. Hill, J. A. Platts, J. Chem. Phys. 128, 044104 (2008)

The basis set includes element-specific modifications.

Your calculation utilizes the auxiliary basis: cc-pVTZ/C 
  Obtained from the EMSL Basis Set Exchange (bse.pnl.gov) Feb. 2017
  H-He, B-F, Al-Ar, Ga-Kr : F. Weigend, A. Kohn, C. Hattig, J. Chem. Phys. 116, 3175 (2002)
             Li-Be, Na-Mg : C. Haettig, Phys. Chem. Chem. Phys. 7, 59 (2005)
                       Ne : C. Haettig, Phys. Chem. Chem. Phys. 7, 59 (2005)
                            F. Weigend, A. Kohn, C. Hattig, J. Chem. Phys. 116, 3175 (2002)
                    Sc-Zn : J. G. Hill, J. A. Platts, J. Chem. Phys. 128, 044104 (2008)

================================================================================
                                        WARNINGS
                       Please study these warnings very carefully!
================================================================================

INFO   : Checking CIS options ...
  ===> : (D) CORRECTION FOUND - SETTING MODE=3
  ===> : JK MODE FOUND - ACTIVATING RI-MP2 CODE
  ===> : MP2 AND CIS FOUND - CHECKING
WARNING: CIS(D) and MP2 runs must have the same orbital window
  ===> : adjusting orbital windows

WARNING: No MP2 level density has been requested!
         To caclulate MP2 level properties use
         %mp2 Density relaxed end
         or
         %mp2 Density unrelaxed end
         Otherwise for double-hybrid DFT only the energy is correct!

WARNING: The frozen-core approximation is turned on by default for 
         the MP2 part of double-hybrid DFT.

INFO   : the flag for use of the SHARK integral package has been found!

================================================================================
                                       INPUT FILE
================================================================================
NAME = optpbed3-b2plyp-test-617.inp
|  1> ! pbe0 d3bj aug-cc-PVTZ RIJCOSX Opt
|  2> %maxcore 4000
|  3> %basis
|  4>  AuxJ "aug-cc-PVTZ/JK"
|  5>  AuxC "aug-cc-PVTZ/C"
|  6>  newGTO H "cc-PVTZ" end
|  7>  newAuxJGTO H "cc-PVTZ/JK" end
|  8>  newAuxCGTO H "cc-PVTZ/C" end
|  9> end
| 10> %cpcm
| 11>  SMD true
| 12>  SMDsolvent "ethanol"
| 13> end
| 14> %pal nprocs 4 end
| 15> * xyz 0 1
| 16> C         -3.47460       -2.58300        0.22770
| 17> N         -3.29160       -1.15080        0.22080
| 18> C         -2.02640       -0.59950        0.19000
| 19> C         -0.88320       -1.34560        0.29520
| 20> C          0.39080       -0.74000        0.25120
| 21> N          1.48070       -1.49310        0.34230
| 22> C          2.66340       -0.87670        0.26700
| 23> C          3.84970       -1.63980        0.35820
| 24> C          5.05720       -1.01460        0.28380
| 25> F          6.19500       -1.72790        0.36950
| 26> C          5.14480        0.38700        0.11610
| 27> F          6.36260        0.95520        0.04820
| 28> C          4.02430        1.15540        0.02390
| 29> C          2.75210        0.54360        0.09620
| 30> N          1.65520        1.30030        0.00290
| 31> C          0.47990        0.68650        0.07580
| 32> C         -0.70930        1.44360        0.01150
| 33> C         -1.93690        0.84330        0.09670
| 34> N         -3.12450        1.54520        0.04450
| 35> C         -3.13070        2.98890        0.03150
| 36> H         -3.04940       -3.07110       -0.65690
| 37> H         -4.54130       -2.79450        0.26790
| 38> H         -3.00460       -3.00140        1.11730
| 39> H         -3.96090       -0.66010       -0.35550
| 40> H         -0.90940       -2.41800        0.38720
| 41> H          3.78180       -2.70770        0.48630
| 42> H          4.08990        2.22340       -0.10420
| 43> H         -0.60240        2.51110       -0.07970
| 44> H         -3.85770        1.14280        0.61150
| 45> H         -4.16250        3.32920       -0.02980
| 46> H         -2.59630        3.34280       -0.84970
| 47> H         -2.66580        3.42530        0.92320
| 48> *
| 49> 
| 50> 
| 51> $new_job
| 52> ! b2plyp aug-cc-PVTZ RIJCOSX SP
| 53> %maxcore 4000
| 54> %basis
| 55>  AuxJ "aug-cc-PVTZ/JK"
| 56>  AuxC "aug-cc-PVTZ/C"
| 57>  newGTO H "cc-PVTZ" end
| 58>  newAuxJGTO H "cc-PVTZ/JK" end
| 59>  newAuxCGTO H "cc-PVTZ/C" end
| 60> end
| 61> %cpcm
| 62>  SMD true
| 63>  SMDsolvent "ethanol"
| 64> end
| 65> %pal nprocs 4 end
| 66> %tddft
| 67>  nroots 10
| 68>  maxdim 7
| 69> end
| 70> * xyzfile 0 1
| 71> 
| 72>                          ****END OF INPUT****
================================================================================


                 $$$$$$$$$$$$$$$$$$$$$$$$$$$$$$$$$$$$$$$$$$$$$$ 
                 $ THERE ARE  2 JOBS TO BE PROCESSED THIS RUN $
                 $$$$$$$$$$$$$$$$$$$$$$$$$$$$$$$$$$$$$$$$$$$$$$ 




                 $$$$$$$$$$$$$$$$  JOB NUMBER  1 $$$$$$$$$$$$$$


                       *****************************
                       * Geometry Optimization Run *
                       *****************************

Geometry optimization settings:
Update method            Update   .... BFGS
Choice of coordinates    CoordSys .... Z-matrix Internals
Initial Hessian          InHess   .... Almoef's Model

Convergence Tolerances:
Energy Change            TolE     ....  5.0000e-06 Eh
Max. Gradient            TolMAXG  ....  3.0000e-04 Eh/bohr
RMS Gradient             TolRMSG  ....  1.0000e-04 Eh/bohr
Max. Displacement        TolMAXD  ....  4.0000e-03 bohr
RMS Displacement         TolRMSD  ....  2.0000e-03 bohr
Strict Convergence                ....  False
------------------------------------------------------------------------------
                        ORCA OPTIMIZATION COORDINATE SETUP
------------------------------------------------------------------------------

The optimization will be done in new redundant internal coordinates
Making redundant internal coordinates   ...  (new redundants) done
Evaluating the initial hessian          ...  (Almloef) done
Evaluating the coordinates              ...  done
Calculating the B-matrix                .... done
Calculating the G-matrix                .... done
Diagonalizing the G-matrix              .... done
Small eigenvalue found = 9.504e-03
Small eigenvalue found = 1.173e-02
The first mode is                       ....   76
The number of degrees of freedom        ....   90

    -----------------------------------------------------------------
                    Redundant Internal Coordinates


    -----------------------------------------------------------------
         Definition                    Initial Value    Approx d2E/dq
    -----------------------------------------------------------------
      1. B(N   1,C   0)                  1.4439         0.459139   
      2. B(C   2,N   1)                  1.3804         0.579602   
      3. B(C   3,C   2)                  1.3692         0.674473   
      4. B(C   4,C   3)                  1.4113         0.577774   
      5. B(N   5,C   4)                  1.3279         0.702973   
      6. B(C   6,N   5)                  1.3358         0.682851   
      7. B(C   7,C   6)                  1.4135         0.573147   
      8. B(C   8,C   7)                  1.3618         0.693025   
      9. B(F   9,C   8)                  1.3456         0.611998   
     10. B(C  10,C   8)                  1.4143         0.571412   
     11. B(F  11,C  10)                  1.3455         0.612192   
     12. B(C  12,C  10)                  1.3618         0.693032   
     13. B(C  13,C  12)                  1.4135         0.573093   
     14. B(C  13,C   6)                  1.4333         0.532951   
     15. B(N  14,C  13)                  1.3358         0.682766   
     16. B(C  15,N  14)                  1.3279         0.702920   
     17. B(C  15,C   4)                  1.4400         0.519952   
     18. B(C  16,C  15)                  1.4112         0.577949   
     19. B(C  17,C  16)                  1.3692         0.674489   
     20. B(C  17,C   2)                  1.4486         0.503821   
     21. B(N  18,C  17)                  1.3805         0.579470   
     22. B(C  19,N  18)                  1.4438         0.459289   
     23. B(H  20,C   0)                  1.0962         0.352050   
     24. B(H  21,C   0)                  1.0882         0.362478   
     25. B(H  22,C   0)                  1.0897         0.360557   
     26. B(H  23,N   1)                  1.0104         0.432102   
     27. B(H  24,C   3)                  1.0767         0.378190   
     28. B(H  25,C   7)                  1.0777         0.376749   
     29. B(H  26,C  12)                  1.0777         0.376809   
     30. B(H  27,C  16)                  1.0767         0.378119   
     31. B(H  28,N  18)                  1.0104         0.432003   
     32. B(H  29,C  19)                  1.0882         0.362493   
     33. B(H  30,C  19)                  1.0897         0.360560   
     34. B(H  31,C  19)                  1.0962         0.351961   
     35. A(H  20,C   0,H  22)          108.6962         0.289867   
     36. A(N   1,C   0,H  20)          112.8716         0.332287   
     37. A(H  21,C   0,H  22)          108.5431         0.291198   
     38. A(N   1,C   0,H  21)          108.4938         0.333899   
     39. A(N   1,C   0,H  22)          109.2753         0.333605   
     40. A(H  20,C   0,H  21)          108.8749         0.290109   
     41. A(C   0,N   1,C   2)          120.8245         0.401304   
     42. A(C   0,N   1,H  23)          113.6097         0.340865   
     43. A(C   2,N   1,H  23)          113.6059         0.354503   
     44. A(N   1,C   2,C  17)          117.1187         0.410584   
     45. A(N   1,C   2,C   3)          123.0872         0.432533   
     46. A(C   3,C   2,C  17)          119.7432         0.424570   
     47. A(C   2,C   3,C   4)          121.1646         0.435136   
     48. A(C   4,C   3,H  24)          116.8748         0.351626   
     49. A(C   2,C   3,H  24)          121.9392         0.360988   
     50. A(N   5,C   4,C  15)          121.2911         0.427346   
     51. A(C   3,C   4,C  15)          118.9953         0.415340   
     52. A(C   3,C   4,N   5)          119.6972         0.435518   
     53. A(C   4,N   5,C   6)          117.4595         0.445913   
     54. A(N   5,C   6,C   7)          119.3614         0.432622   
     55. A(C   7,C   6,C  13)          119.3886         0.416572   
     56. A(N   5,C   6,C  13)          121.2500         0.427013   
     57. A(C   6,C   7,C   8)          119.5250         0.436635   
     58. A(C   8,C   7,H  25)          121.1506         0.362427   
     59. A(C   6,C   7,H  25)          119.3244         0.350923   
     60. A(F   9,C   8,C  10)          118.7181         0.422106   
     61. A(C   7,C   8,C  10)          121.0894         0.436396   
     62. A(C   7,C   8,F   9)          120.1926         0.436976   
     63. A(C   8,C  10,F  11)          118.7198         0.422130   
     64. A(F  11,C  10,C  12)          120.1990         0.437002   
     65. A(C   8,C  10,C  12)          121.0812         0.436397   
     66. A(C  13,C  12,H  26)          119.3283         0.350926   
     67. A(C  10,C  12,H  26)          121.1423         0.362438   
     68. A(C  10,C  12,C  13)          119.5294         0.436628   
     69. A(C  12,C  13,N  14)          119.3595         0.432605   
     70. A(C   6,C  13,N  14)          121.2540         0.427004   
     71. A(C   6,C  13,C  12)          119.3864         0.416565   
     72. A(C  13,N  14,C  15)          117.4571         0.445897   
     73. A(N  14,C  15,C  16)          119.6924         0.435536   
     74. A(C   4,C  15,C  16)          119.0037         0.415362   
     75. A(C   4,C  15,N  14)          121.2880         0.427340   
     76. A(C  15,C  16,C  17)          121.1643         0.435161   
     77. A(C  17,C  16,H  27)          121.9366         0.360978   
     78. A(C  15,C  16,H  27)          116.8781         0.351633   
     79. A(C  16,C  17,N  18)          123.0961         0.432517   
     80. A(C   2,C  17,N  18)          117.1096         0.410567   
     81. A(C   2,C  17,C  16)          119.7420         0.424572   
     82. A(C  19,N  18,H  28)          113.5880         0.340870   
     83. A(C  17,N  18,H  28)          113.6113         0.354476   
     84. A(C  17,N  18,C  19)          120.8270         0.401311   
     85. A(H  30,C  19,H  31)          108.6954         0.289856   
     86. A(H  29,C  19,H  31)          108.8713         0.290099   
     87. A(N  18,C  19,H  31)          112.8879         0.332291   
     88. A(H  29,C  19,H  30)          108.5356         0.291201   
     89. A(N  18,C  19,H  30)          109.2653         0.333624   
     90. A(N  18,C  19,H  29)          108.4987         0.333920   
     91. D(C   2,N   1,C   0,H  21)    179.1846         0.017994   
     92. D(C   2,N   1,C   0,H  22)     61.0063         0.017994   
     93. D(H  23,N   1,C   0,H  22)   -158.6646         0.017994   
     94. D(H  23,N   1,C   0,H  21)    -40.4863         0.017994   
     95. D(C   2,N   1,C   0,H  20)    -60.0636         0.017994   
     96. D(H  23,N   1,C   0,H  20)     80.2655         0.017994   
     97. D(C  17,C   2,N   1,C   0)    176.0615         0.026942   
     98. D(C  17,C   2,N   1,H  23)     35.7310         0.026942   
     99. D(C   3,C   2,N   1,H  23)   -146.8749         0.026942   
    100. D(C   3,C   2,N   1,C   0)     -6.5444         0.026942   
    101. D(C   4,C   3,C   2,C  17)     -3.0294         0.031848   
    102. D(H  24,C   3,C   2,N   1)      1.3763         0.031848   
    103. D(H  24,C   3,C   2,C  17)    178.7049         0.031848   
    104. D(C   4,C   3,C   2,N   1)    179.6420         0.031848   
    105. D(N   5,C   4,C   3,C   2)   -179.3148         0.022927   
    106. D(N   5,C   4,C   3,H  24)     -0.9647         0.022927   
    107. D(C  15,C   4,C   3,C   2)     -0.7695         0.022927   
    108. D(C  15,C   4,C   3,H  24)    177.5807         0.022927   
    109. D(C   6,N   5,C   4,C  15)      0.0960         0.037037   
    110. D(C   6,N   5,C   4,C   3)    178.6071         0.037037   
    111. D(C  13,C   6,N   5,C   4)      0.0821         0.034757   
    112. D(C   7,C   6,N   5,C   4)   -179.9501         0.034757   
    113. D(H  25,C   7,C   6,C  13)   -179.9805         0.022545   
    114. D(H  25,C   7,C   6,N   5)      0.0512         0.022545   
    115. D(C   8,C   7,C   6,C  13)      0.0634         0.022545   
    116. D(C   8,C   7,C   6,N   5)   -179.9049         0.022545   
    117. D(C  10,C   8,C   7,H  25)   -179.9798         0.033770   
    118. D(C  10,C   8,C   7,C   6)     -0.0246         0.033770   
    119. D(F   9,C   8,C   7,H  25)      0.0229         0.033770   
    120. D(F   9,C   8,C   7,C   6)    179.9781         0.033770   
    121. D(F  11,C  10,C   8,C   7)   -179.9843         0.022403   
    122. D(C  12,C  10,C   8,F   9)   -179.9957         0.022403   
    123. D(C  12,C  10,C   8,C   7)      0.0070         0.022403   
    124. D(F  11,C  10,C   8,F   9)      0.0130         0.022403   
    125. D(H  26,C  12,C  10,F  11)      0.0106         0.033771   
    126. D(H  26,C  12,C  10,C   8)   -179.9806         0.033771   
    127. D(C  13,C  12,C  10,F  11)    179.9623         0.033771   
    128. D(C  13,C  12,C  10,C   8)     -0.0289         0.033771   
    129. D(N  14,C  13,C  12,H  26)      0.0751         0.022540   
    130. D(N  14,C  13,C  12,C  10)   -179.8775         0.022540   
    131. D(C   6,C  13,C  12,H  26)   -179.9797         0.022540   
    132. D(C   6,C  13,C  12,C  10)      0.0677         0.022540   
    133. D(N  14,C  13,C   6,C   7)    179.8591         0.019393   
    134. D(N  14,C  13,C   6,N   5)     -0.1732         0.019393   
    135. D(C  12,C  13,C   6,C   7)     -0.0850         0.019393   
    136. D(C  12,C  13,C   6,N   5)    179.8827         0.019393   
    137. D(C  15,N  14,C  13,C  12)   -179.9895         0.034747   
    138. D(C  15,N  14,C  13,C   6)      0.0663         0.034747   
    139. D(C  16,C  15,N  14,C  13)    178.6464         0.037031   
    140. D(C   4,C  15,N  14,C  13)      0.1118         0.037031   
    141. D(C  16,C  15,C   4,N   5)   -178.7485         0.018437   
    142. D(C  16,C  15,C   4,C   3)      2.7303         0.018437   
    143. D(N  14,C  15,C   4,N   5)     -0.2040         0.018437   
    144. D(N  14,C  15,C   4,C   3)   -178.7253         0.018437   
    145. D(H  27,C  16,C  15,N  14)     -0.9960         0.022941   
    146. D(H  27,C  16,C  15,C   4)    177.5721         0.022941   
    147. D(C  17,C  16,C  15,N  14)   -179.3604         0.022941   
    148. D(C  17,C  16,C  15,C   4)     -0.7923         0.022941   
    149. D(C   2,C  17,C  16,C  15)     -3.0065         0.031849   
    150. D(N  18,C  17,C   2,C   3)   -177.5767         0.017293   
    151. D(N  18,C  17,C   2,N   1)     -0.0912         0.017293   
    152. D(C  16,C  17,C   2,C   3)      4.9715         0.017293   
    153. D(C  16,C  17,C   2,N   1)   -177.5430         0.017293   
    154. D(N  18,C  17,C  16,H  27)      1.4203         0.031849   
    155. D(N  18,C  17,C  16,C  15)    179.7011         0.031849   
    156. D(C   2,C  17,C  16,H  27)    178.7126         0.031849   
    157. D(H  28,N  18,C  17,C  16)   -146.6764         0.026929   
    158. D(H  28,N  18,C  17,C   2)     35.9646         0.026929   
    159. D(C  19,N  18,C  17,C  16)     -6.3739         0.026929   
    160. D(C  19,N  18,C  17,C   2)    176.2671         0.026929   
    161. D(H  31,C  19,N  18,H  28)     80.0550         0.018006   
    162. D(H  31,C  19,N  18,C  17)    -60.2560         0.018006   
    163. D(H  30,C  19,N  18,H  28)   -158.8725         0.018006   
    164. D(H  30,C  19,N  18,C  17)     60.8165         0.018006   
    165. D(H  29,C  19,N  18,H  28)    -40.7060         0.018006   
    166. D(H  29,C  19,N  18,C  17)    178.9830         0.018006   
    -----------------------------------------------------------------

Number of atoms                         .... 32
Number of degrees of freedom            .... 166

         *************************************************************
         *                GEOMETRY OPTIMIZATION CYCLE   1            *
         *************************************************************
---------------------------------
CARTESIAN COORDINATES (ANGSTROEM)
---------------------------------
  C     -3.474600   -2.583000    0.227700
  N     -3.291600   -1.150800    0.220800
  C     -2.026400   -0.599500    0.190000
  C     -0.883200   -1.345600    0.295200
  C      0.390800   -0.740000    0.251200
  N      1.480700   -1.493100    0.342300
  C      2.663400   -0.876700    0.267000
  C      3.849700   -1.639800    0.358200
  C      5.057200   -1.014600    0.283800
  F      6.195000   -1.727900    0.369500
  C      5.144800    0.387000    0.116100
  F      6.362600    0.955200    0.048200
  C      4.024300    1.155400    0.023900
  C      2.752100    0.543600    0.096200
  N      1.655200    1.300300    0.002900
  C      0.479900    0.686500    0.075800
  C     -0.709300    1.443600    0.011500
  C     -1.936900    0.843300    0.096700
  N     -3.124500    1.545200    0.044500
  C     -3.130700    2.988900    0.031500
  H     -3.049400   -3.071100   -0.656900
  H     -4.541300   -2.794500    0.267900
  H     -3.004600   -3.001400    1.117300
  H     -3.960900   -0.660100   -0.355500
  H     -0.909400   -2.418000    0.387200
  H      3.781800   -2.707700    0.486300
  H      4.089900    2.223400   -0.104200
  H     -0.602400    2.511100   -0.079700
  H     -3.857700    1.142800    0.611500
  H     -4.162500    3.329200   -0.029800
  H     -2.596300    3.342800   -0.849700
  H     -2.665800    3.425300    0.923200

----------------------------
CARTESIAN COORDINATES (A.U.)
----------------------------
  NO LB      ZA    FRAG     MASS         X           Y           Z
   0 C     6.0000    0    12.011   -6.566042   -4.881163    0.430291
   1 N     7.0000    0    14.007   -6.220223   -2.174697    0.417252
   2 C     6.0000    0    12.011   -3.829341   -1.132891    0.359048
   3 C     6.0000    0    12.011   -1.669006   -2.542815    0.557847
   4 C     6.0000    0    12.011    0.738505   -1.398397    0.474699
   5 N     7.0000    0    14.007    2.798117   -2.821550    0.646853
   6 C     6.0000    0    12.011    5.033097   -1.656723    0.504557
   7 C     6.0000    0    12.011    7.274879   -3.098773    0.676900
   8 C     6.0000    0    12.011    9.556723   -1.917316    0.536304
   9 F     9.0000    0    18.998   11.706853   -3.265258    0.698254
  10 C     6.0000    0    12.011    9.722263    0.731324    0.219397
  11 F     9.0000    0    18.998   12.023571    1.805066    0.091085
  12 C     6.0000    0    12.011    7.604825    2.183390    0.045164
  13 C     6.0000    0    12.011    5.200715    1.027255    0.181792
  14 N     7.0000    0    14.007    3.127875    2.457211    0.005480
  15 C     6.0000    0    12.011    0.906880    1.297297    0.143241
  16 C     6.0000    0    12.011   -1.340383    2.728009    0.021732
  17 C     6.0000    0    12.011   -3.660211    1.593606    0.182737
  18 N     7.0000    0    14.007   -5.904449    2.920005    0.084093
  19 C     6.0000    0    12.011   -5.916166    5.648202    0.059526
  20 H     1.0000    0     1.008   -5.762531   -5.803538   -1.241361
  21 H     1.0000    0     1.008   -8.581813   -5.280840    0.506258
  22 H     1.0000    0     1.008   -5.677871   -5.671824    2.111391
  23 H     1.0000    0     1.008   -7.485016   -1.247408   -0.671798
  24 H     1.0000    0     1.008   -1.718517   -4.569358    0.731702
  25 H     1.0000    0     1.008    7.146566   -5.116811    0.918974
  26 H     1.0000    0     1.008    7.728791    4.201617   -0.196909
  27 H     1.0000    0     1.008   -1.138371    4.745291   -0.150611
  28 H     1.0000    0     1.008   -7.289997    2.159579    1.155568
  29 H     1.0000    0     1.008   -7.865985    6.291276   -0.056314
  30 H     1.0000    0     1.008   -4.906296    6.316977   -1.605700
  31 H     1.0000    0     1.008   -5.037632    6.472879    1.744595

--------------------------------
INTERNAL COORDINATES (ANGSTROEM)
--------------------------------
 C      0   0   0     0.000000000000     0.00000000     0.00000000
 N      1   0   0     1.443860606153     0.00000000     0.00000000
 C      2   1   0     1.380438832401   120.82449989     0.00000000
 C      3   2   1     1.369174382612   123.08716430   353.45560904
 C      4   3   2     1.411298465953   121.16461862   179.64201053
 N      5   4   3     1.327908441874   119.69718654   180.68521064
 C      6   5   4     1.335813737016   117.45946551   178.60705410
 C      7   6   5     1.413487438925   119.36141414   180.04989124
 C      8   7   6     1.361788034167   119.52498176   180.09509963
 F      9   8   7     1.345633761467   120.19255962   179.97811109
 C      9   8   7     1.414312415982   121.08937814   359.97542177
 F     11   9   8     1.345547654303   118.71984246   180.01565850
 C     11   9   8     1.361785464014   121.08115440     0.00000000
 C     13  11   9     1.413513130466   119.52941583   359.97109691
 N     14  13  11     1.335847816931   119.35954361   180.12251718
 C     15  14  13     1.327928815863   117.45710178   180.01047247
 C     16  15  14     1.411216333522   119.69240893   178.64635456
 C     17  16  15     1.369167955366   121.16425400   180.63961787
 N     18  17  16     1.380500709888   123.09609372   179.70109824
 C     19  18  17     1.443771841393   120.82703671   353.62606275
 H      1   2   3     1.096154099568   112.87160753   299.93636399
 H      1   2   3     1.088208242939   108.49377214   179.18462009
 H      1   2   3     1.089654403928   109.27528488    61.00626541
 H      2   1   3     1.010381447771   113.60968381   140.32910406
 H      4   3   2     1.076657884381   121.93920364     1.37625628
 H      8   7   6     1.077696817291   119.32440651     0.05115917
 H     13  11   9     1.077653455430   121.14230471   180.01940680
 H     17  16  15     1.076708549237   116.87812303   359.00399327
 H     19  18  17     1.010443961831   113.61129806   213.32355964
 H     20  19  18     1.088197142066   108.49866027   178.98304554
 H     20  19  18     1.089652242690   109.26525331    60.81654374
 H     20  19  18     1.096223453498   112.88785981   299.74403048

---------------------------
INTERNAL COORDINATES (A.U.)
---------------------------
 C      0   0   0     0.000000000000     0.00000000     0.00000000
 N      1   0   0     2.728501121186     0.00000000     0.00000000
 C      2   1   0     2.608651337867   120.82449989     0.00000000
 C      3   2   1     2.587364612717   123.08716430   353.45560904
 C      4   3   2     2.666967593873   121.16461862   179.64201053
 N      5   4   3     2.509383286064   119.69718654   180.68521064
 C      6   5   4     2.524322128890   117.45946551   178.60705410
 C      7   6   5     2.671104153307   119.36141414   180.04989124
 C      8   7   6     2.573406437026   119.52498176   180.09509963
 F      9   8   7     2.542879285731   120.19255962   179.97811109
 C      9   8   7     2.672663134010   121.08937814   359.97542177
 F     11   9   8     2.542716566773   118.71984246   180.01565850
 C     11   9   8     2.573401580141   121.08115440     0.00000000
 C     13  11   9     2.671152703283   119.52941583   359.97109691
 N     14  13  11     2.524386530597   119.35954361   180.12251718
 C     15  14  13     2.509421787324   117.45710178   180.01047247
 C     16  15  14     2.666812386074   119.69240893   178.64635456
 C     17  16  15     2.587352466982   121.16425400   180.63961787
 N     18  17  16     2.608768269371   123.09609372   179.70109824
 C     19  18  17     2.728333380100   120.82703671   353.62606275
 H      1   2   3     2.071431048759   112.87160753   299.93636399
 H      1   2   3     2.056415555830   108.49377214   179.18462009
 H      1   2   3     2.059148404045   109.27528488    61.00626541
 H      2   1   3     1.909344227082   113.60968381   140.32910406
 H      4   3   2     2.034588541407   121.93920364     1.37625628
 H      8   7   6     2.036551840079   119.32440651     0.05115917
 H     13  11   9     2.036469898036   121.14230471   180.01940680
 H     17  16  15     2.034684284110   116.87812303   359.00399327
 H     19  18  17     1.909462361534   113.61129806   213.32355964
 H     20  19  18     2.056394578220   108.49866027   178.98304554
 H     20  19  18     2.059144319898   109.26525331    60.81654374
 H     20  19  18     2.071562108693   112.88785981   299.74403048

---------------------
BASIS SET INFORMATION
---------------------
There are 4 groups of distinct atoms

 Group   1 Type C   : 19s6p3d2f contracted to 5s4p3d2f pattern {88111/3111/111/11}
 Group   2 Type N   : 19s6p3d2f contracted to 5s4p3d2f pattern {88111/3111/111/11}
 Group   3 Type F   : 19s6p3d2f contracted to 5s4p3d2f pattern {88111/3111/111/11}
 Group   4 Type H   : 5s2p1d contracted to 3s2p1d pattern {311/11/1}

Atom   0C    basis set group =>   1
Atom   1N    basis set group =>   2
Atom   2C    basis set group =>   1
Atom   3C    basis set group =>   1
Atom   4C    basis set group =>   1
Atom   5N    basis set group =>   2
Atom   6C    basis set group =>   1
Atom   7C    basis set group =>   1
Atom   8C    basis set group =>   1
Atom   9F    basis set group =>   3
Atom  10C    basis set group =>   1
Atom  11F    basis set group =>   3
Atom  12C    basis set group =>   1
Atom  13C    basis set group =>   1
Atom  14N    basis set group =>   2
Atom  15C    basis set group =>   1
Atom  16C    basis set group =>   1
Atom  17C    basis set group =>   1
Atom  18N    basis set group =>   2
Atom  19C    basis set group =>   1
Atom  20H    basis set group =>   4
Atom  21H    basis set group =>   4
Atom  22H    basis set group =>   4
Atom  23H    basis set group =>   4
Atom  24H    basis set group =>   4
Atom  25H    basis set group =>   4
Atom  26H    basis set group =>   4
Atom  27H    basis set group =>   4
Atom  28H    basis set group =>   4
Atom  29H    basis set group =>   4
Atom  30H    basis set group =>   4
Atom  31H    basis set group =>   4
---------------------------------
AUXILIARY/J BASIS SET INFORMATION
---------------------------------
There are 4 groups of distinct atoms

 Group   1 Type C   : 10s7p5d2f1g contracted to 10s7p5d2f1g pattern {1111111111/1111111/11111/11/1}
 Group   2 Type N   : 10s7p5d2f1g contracted to 10s7p5d2f1g pattern {1111111111/1111111/11111/11/1}
 Group   3 Type F   : 10s7p5d2f1g contracted to 10s7p5d2f1g pattern {1111111111/1111111/11111/11/1}
 Group   4 Type H   : 4s3p2d1f contracted to 4s3p2d1f pattern {1111/111/11/1}

Atom   0C    basis set group =>   1
Atom   1N    basis set group =>   2
Atom   2C    basis set group =>   1
Atom   3C    basis set group =>   1
Atom   4C    basis set group =>   1
Atom   5N    basis set group =>   2
Atom   6C    basis set group =>   1
Atom   7C    basis set group =>   1
Atom   8C    basis set group =>   1
Atom   9F    basis set group =>   3
Atom  10C    basis set group =>   1
Atom  11F    basis set group =>   3
Atom  12C    basis set group =>   1
Atom  13C    basis set group =>   1
Atom  14N    basis set group =>   2
Atom  15C    basis set group =>   1
Atom  16C    basis set group =>   1
Atom  17C    basis set group =>   1
Atom  18N    basis set group =>   2
Atom  19C    basis set group =>   1
Atom  20H    basis set group =>   4
Atom  21H    basis set group =>   4
Atom  22H    basis set group =>   4
Atom  23H    basis set group =>   4
Atom  24H    basis set group =>   4
Atom  25H    basis set group =>   4
Atom  26H    basis set group =>   4
Atom  27H    basis set group =>   4
Atom  28H    basis set group =>   4
Atom  29H    basis set group =>   4
Atom  30H    basis set group =>   4
Atom  31H    basis set group =>   4
---------------------------------
AUXILIARY/C BASIS SET INFORMATION
---------------------------------
There are 4 groups of distinct atoms

 Group   1 Type C   : 9s7p6d4f2g contracted to 9s7p6d4f2g pattern {111111111/1111111/111111/1111/11}
 Group   2 Type N   : 9s7p6d4f2g contracted to 9s7p6d4f2g pattern {111111111/1111111/111111/1111/11}
 Group   3 Type F   : 9s7p6d4f2g contracted to 9s7p6d4f2g pattern {111111111/1111111/111111/1111/11}
 Group   4 Type H   : 4s3p2d1f contracted to 4s3p2d1f pattern {1111/111/11/1}

Atom   0C    basis set group =>   1
Atom   1N    basis set group =>   2
Atom   2C    basis set group =>   1
Atom   3C    basis set group =>   1
Atom   4C    basis set group =>   1
Atom   5N    basis set group =>   2
Atom   6C    basis set group =>   1
Atom   7C    basis set group =>   1
Atom   8C    basis set group =>   1
Atom   9F    basis set group =>   3
Atom  10C    basis set group =>   1
Atom  11F    basis set group =>   3
Atom  12C    basis set group =>   1
Atom  13C    basis set group =>   1
Atom  14N    basis set group =>   2
Atom  15C    basis set group =>   1
Atom  16C    basis set group =>   1
Atom  17C    basis set group =>   1
Atom  18N    basis set group =>   2
Atom  19C    basis set group =>   1
Atom  20H    basis set group =>   4
Atom  21H    basis set group =>   4
Atom  22H    basis set group =>   4
Atom  23H    basis set group =>   4
Atom  24H    basis set group =>   4
Atom  25H    basis set group =>   4
Atom  26H    basis set group =>   4
Atom  27H    basis set group =>   4
Atom  28H    basis set group =>   4
Atom  29H    basis set group =>   4
Atom  30H    basis set group =>   4
Atom  31H    basis set group =>   4


           ************************************************************
           *        Program running with 4 parallel MPI-processes     *
           *              working on a common directory               *
           ************************************************************
------------------------------------------------------------------------------
                           ORCA GTO INTEGRAL CALCULATION
                           -- RI-GTO INTEGRALS CHOSEN --
------------------------------------------------------------------------------
------------------------------------------------------------------------------
                   ___                                                        
                  /   \      - P O W E R E D   B Y -                         
                 /     \                                                     
                 |  |  |   _    _      __       _____    __    __             
                 |  |  |  | |  | |    /  \     |  _  \  |  |  /  |          
                  \  \/   | |  | |   /    \    | | | |  |  | /  /          
                 / \  \   | |__| |  /  /\  \   | |_| |  |  |/  /          
                |  |  |   |  __  | /  /__\  \  |    /   |      \           
                |  |  |   | |  | | |   __   |  |    \   |  |\   \          
                \     /   | |  | | |  |  |  |  | |\  \  |  | \   \       
                 \___/    |_|  |_| |__|  |__|  |_| \__\ |__|  \__/        
                                                                              
                      - O R C A' S   B I G   F R I E N D -                    
                                      &                                       
                       - I N T E G R A L  F E E D E R -                       
                                                                              
 v1 FN, 2020, v2 2021                                                         
------------------------------------------------------------------------------


Reading SHARK input file optpbed3-b2plyp-test-617.SHARKINP.tmp ... ok
----------------------
SHARK INTEGRAL PACKAGE
----------------------

Number of atoms                             ...     32
Number of basis functions                   ...   1208
Number of shells                            ...    472
Maximum angular momentum                    ...      3
Integral batch strategy                     ... SHARK/LIBINT Hybrid
RI-J (if used) integral strategy            ... SPLIT-RIJ (Revised 2003 algorithm where possible)
Printlevel                                  ...      1
Contraction scheme used                     ... PARTIAL GENERAL contraction
Coulomb Range Separation                    ... NOT USED
Exchange Range Separation                   ... NOT USED
Finite Nucleus Model                        ... NOT USED
Auxiliary Coulomb fitting basis             ... AVAILABLE
   # of basis functions in Aux-J            ...   1940
   # of shells in Aux-J                     ...    620
   Maximum angular momentum in Aux-J        ...      4
Auxiliary J/K fitting basis                 ... NOT available
Auxiliary Correlation fitting basis         ... AVAILABLE
   # of basis functions in Aux-C            ...   2480
   # of shells in Aux-C                     ...    680
   Maximum angular momentum in Aux-C        ...      4
Auxiliary 'external' fitting basis          ... NOT available
Integral threshold                          ...     2.500000e-11
Primitive cut-off                           ...     2.500000e-12
Primitive pair pre-selection threshold      ...     2.500000e-12

Calculating pre-screening integrals         ... done (  0.3 sec) Dimension = 472
Calculating pre-screening integrals (ORCA)  ... done (  0.6 sec) Dimension = 352
Organizing shell pair data                  ... done (  0.9 sec)
Shell pair information
Total number of shell pairs                 ...    111628
Shell pairs after pre-screening             ...     70929
Total number of primitive shell pairs       ...    144012
Primitive shell pairs kept                  ...     83057
          la=0 lb=0:  16020 shell pairs
          la=1 lb=0:  18059 shell pairs
          la=1 lb=1:   4380 shell pairs
          la=2 lb=0:  12008 shell pairs
          la=2 lb=1:   5822 shell pairs
          la=2 lb=2:   2010 shell pairs
          la=3 lb=0:   6569 shell pairs
          la=3 lb=1:   3237 shell pairs
          la=3 lb=2:   2178 shell pairs
          la=3 lb=3:    646 shell pairs

Calculating one electron integrals          ... done (  0.2 sec)
Calculating RI/J V-Matrix + Cholesky decomp.... done (  0.3 sec)
Calculating RI/C V-Matrix + Cholesky decomp.... done (  0.5 sec)
Calculating Nuclear repulsion               ... done (  0.0 sec) ENN=   1461.376723905937 Eh

SHARK setup successfully completed in   5.4 seconds

Maximum memory used throughout the entire GTOINT-calculation: 112.1 MB


           ************************************************************
           *        Program running with 4 parallel MPI-processes     *
           *              working on a common directory               *
           ************************************************************
-------------------------------------------------------------------------------
                                 ORCA SCF
-------------------------------------------------------------------------------

------------
SCF SETTINGS
------------
Hamiltonian:
 Density Functional     Method          .... DFT(GTOs)
 Exchange Functional    Exchange        .... PBE
   PBE kappa parameter   XKappa         ....  0.804000
   PBE mue parameter    XMuePBE         ....  0.219520
 Correlation Functional Correlation     .... PBE
   PBE beta parameter  CBetaPBE         ....  0.066725
 LDA part of GGA corr.  LDAOpt          .... PW91-LDA
 Gradients option       PostSCFGGA      .... off
 Hybrid DFT is turned on
   Fraction HF Exchange ScalHFX         ....  0.250000
   Scaling of DF-GGA-X  ScalDFX         ....  0.750000
   Scaling of DF-GGA-C  ScalDFC         ....  1.000000
   Scaling of DF-LDA-C  ScalLDAC        ....  1.000000
   Perturbative correction              ....  0.000000
   Density functional embedding theory  .... OFF
   NL short-range parameter             ....  6.900000
 RI-approximation to the Coulomb term is turned on
   Number of AuxJ basis functions       .... 1940
   RIJ-COSX (HFX calculated with COS-X)).... on


General Settings:
 Integral files         IntName         .... optpbed3-b2plyp-test-617
 Hartree-Fock type      HFTyp           .... RHF
 Total Charge           Charge          ....    0
 Multiplicity           Mult            ....    1
 Number of Electrons    NEL             ....  142
 Basis Dimension        Dim             .... 1088
 Nuclear Repulsion      ENuc            ....   1461.3767239059 Eh

Convergence Acceleration:
 DIIS                   CNVDIIS         .... on
   Start iteration      DIISMaxIt       ....    12
   Startup error        DIISStart       ....  0.200000
   # of expansion vecs  DIISMaxEq       ....     5
   Bias factor          DIISBfac        ....   1.050
   Max. coefficient     DIISMaxC        ....  10.000
 Trust-Rad. Augm. Hess. CNVTRAH         .... auto
   Auto Start mean grad. ratio tolernc. ....  1.125000
   Auto Start start iteration           ....    20
   Auto Start num. interpolation iter.  ....    10
   Max. Number of Micro iterations      ....    16
   Max. Number of Macro iterations      .... Maxiter - #DIIS iter
   Number of Davidson start vectors     ....     2
   Converg. threshold I  (grad. norm)   ....   1.000e-05
   Converg. threshold II (energy diff.) ....   1.000e-08
   Grad. Scal. Fac. for Micro threshold ....   0.100
   Minimum threshold for Micro iter.    ....   0.010
   NR start threshold (gradient norm)   ....   0.001
   Initial trust radius                 ....   0.400
   Minimum AH scaling param. (alpha)    ....   1.000
   Maximum AH scaling param. (alpha)    .... 1000.000
   Orbital update algorithm             .... Taylor
   White noise on init. David. guess    .... on
   Maximum white noise                  ....   0.010
   Quad. conv. algorithm                .... NR
 SOSCF                  CNVSOSCF        .... on
   Start iteration      SOSCFMaxIt      ....   150
   Startup grad/error   SOSCFStart      ....  0.003300
 Level Shifting         CNVShift        .... on
   Level shift para.    LevelShift      ....    0.2500
   Turn off err/grad.   ShiftErr        ....    0.0010
 Zerner damping         CNVZerner       .... off
 Static damping         CNVDamp         .... on
   Fraction old density DampFac         ....    0.7000
   Max. Damping (<1)    DampMax         ....    0.9800
   Min. Damping (>=0)   DampMin         ....    0.0000
   Turn off err/grad.   DampErr         ....    0.1000
 Fernandez-Rico         CNVRico         .... off

SCF Procedure:
 Maximum # iterations   MaxIter         ....   125
 SCF integral mode      SCFMode         .... Direct
   Integral package                     .... SHARK and LIBINT hybrid scheme
 Reset frequency        DirectResetFreq ....    20
 Integral Threshold     Thresh          ....  2.500e-11 Eh
 Primitive CutOff       TCut            ....  2.500e-12 Eh

Convergence Tolerance:
 Convergence Check Mode ConvCheckMode   .... Total+1el-Energy
 Convergence forced     ConvForced      .... 0
 Energy Change          TolE            ....  1.000e-08 Eh
 1-El. energy change                    ....  1.000e-05 Eh
 Orbital Gradient       TolG            ....  1.000e-05
 Orbital Rotation angle TolX            ....  1.000e-05
 DIIS Error             TolErr          ....  5.000e-07


Diagonalization of the overlap matrix:
Smallest eigenvalue                        ... 1.557e-07
Time for diagonalization                   ...    0.302 sec
Threshold for overlap eigenvalues          ... 1.000e-08
Number of eigenvalues below threshold      ... 0
Time for construction of square roots      ...    0.651 sec
Total time needed                          ...    0.960 sec

Time for model grid setup =    0.688 sec

------------------------------
INITIAL GUESS: MODEL POTENTIAL
------------------------------
Loading Hartree-Fock densities                     ... done
Calculating cut-offs                               ... done
Initializing the effective Hamiltonian             ... done
Setting up the integral package (SHARK)            ... done
Starting the Coulomb interaction                   ... done (   2.8 sec)
Reading the grid                                   ... done
Mapping shells                                     ... done
Starting the XC term evaluation                    ... done (   2.1 sec)
  promolecular density results
     # of electrons  =    141.986803908
     EX              =   -121.433520217
     EC              =     -4.829995742
     EX+EC           =   -126.263515959
Transforming the Hamiltonian                       ... done (   0.2 sec)
Diagonalizing the Hamiltonian                      ... done (   0.4 sec)
Back transforming the eigenvectors                 ... done (   0.1 sec)
Now organizing SCF variables                       ... done
                      ------------------
                      INITIAL GUESS DONE (   6.2 sec)
                      ------------------
-------------------
DFT GRID GENERATION
-------------------

General Integration Accuracy     IntAcc      ... 4.388
Radial Grid Type                 RadialGrid  ... OptM3 with GC (2021)
Angular Grid (max. ang.)         AngularGrid ... 4 (Lebedev-302)
Angular grid pruning method      GridPruning ... 4 (adaptive)
Weight generation scheme         WeightScheme... Becke
Basis function cutoff            BFCut       ... 1.0000e-11
Integration weight cutoff        WCut        ... 1.0000e-14
Angular grids for H and He will be reduced by one unit
Partially contracted basis set               ... off
Rotationally invariant grid construction     ... off

Total number of grid points                  ...   162938
Total number of batches                      ...     2559
Average number of points per batch           ...       63
Average number of grid points per atom       ...     5092
Time for grid setup =    2.265 sec

--------------------
COSX GRID GENERATION
--------------------

GRIDX 1
-------
General Integration Accuracy     IntAcc      ... 3.816
Radial Grid Type                 RadialGrid  ... OptM3 with GC (2021)
Angular Grid (max. ang.)         AngularGrid ... 1 (Lebedev-50)
Angular grid pruning method      GridPruning ... 4 (adaptive)
Weight generation scheme         WeightScheme... Becke
Basis function cutoff            BFCut       ... 1.0000e-11
Integration weight cutoff        WCut        ... 1.0000e-14
Angular grids for H and He will be reduced by one unit
Partially contracted basis set               ... on
Rotationally invariant grid construction     ... off

Total number of grid points                  ...    20758
Total number of batches                      ...      340
Average number of points per batch           ...       61
Average number of grid points per atom       ...      649
UseSFitting                                  ... on

GRIDX 2
-------
General Integration Accuracy     IntAcc      ... 4.020
Radial Grid Type                 RadialGrid  ... OptM3 with GC (2021)
Angular Grid (max. ang.)         AngularGrid ... 2 (Lebedev-110)
Angular grid pruning method      GridPruning ... 4 (adaptive)
Weight generation scheme         WeightScheme... Becke
Basis function cutoff            BFCut       ... 1.0000e-11
Integration weight cutoff        WCut        ... 1.0000e-14
Angular grids for H and He will be reduced by one unit
Partially contracted basis set               ... on
Rotationally invariant grid construction     ... off

Total number of grid points                  ...    49789
Total number of batches                      ...      794
Average number of points per batch           ...       62
Average number of grid points per atom       ...     1556
UseSFitting                                  ... on

GRIDX 3
-------
General Integration Accuracy     IntAcc      ... 4.338
Radial Grid Type                 RadialGrid  ... OptM3 with GC (2021)
Angular Grid (max. ang.)         AngularGrid ... 3 (Lebedev-194)
Angular grid pruning method      GridPruning ... 4 (adaptive)
Weight generation scheme         WeightScheme... Becke
Basis function cutoff            BFCut       ... 1.0000e-11
Integration weight cutoff        WCut        ... 1.0000e-14
Angular grids for H and He will be reduced by one unit
Partially contracted basis set               ... on
Rotationally invariant grid construction     ... off

Total number of grid points                  ...   107490
Total number of batches                      ...     1696
Average number of points per batch           ...       63
Average number of grid points per atom       ...     3359
UseSFitting                                  ... on

Time for X-Grid setup             =    6.402 sec


--------------------
CPCM SOLVATION MODEL
--------------------
CPCM parameters:
  Epsilon                                         ...      24.8520
  Refrac                                          ...       1.3611
  Rsolv                                           ...       1.3000
  Surface type                                    ... GAUSSIAN VDW
  Epsilon function type                           ...         CPCM
Solvent:                                     ... ETHANOL
SMD-CDS solvent descriptors:
  Soln                                       ...    1.3611
  Soln25                                     ...    1.3593
  Sola                                       ...    0.3700
  Solb                                       ...    0.4800
  Solg                                       ...   31.6200
  Solc                                       ...    0.0000
  Solh                                       ...    0.0000
Radii:
 Radius for C  used is    3.4960 Bohr (=   1.8500 Ang.)
 Radius for N  used is    3.5716 Bohr (=   1.8900 Ang.)
 Radius for F  used is    3.2692 Bohr (=   1.7300 Ang.)
 Radius for H  used is    2.2677 Bohr (=   1.2000 Ang.)
Calculating surface                               ...        done! (  0.0s)
GEPOL surface points                              ...         1811
GEPOL Volume                                      ...    1794.0446
GEPOL Surface-area                                ...    1003.9989
Calculating surface distance matrix               ...        done! (  0.0s)
Performing Cholesky decomposition & store         ...        done! (  0.2s)
Overall time for CPCM initialization              ...                 0.3s
 re-compute Schwartz prescreening matrix in partically contracted basis (1) ...done (   0.265 sec)
--------------
SCF ITERATIONS
--------------
ITER       Energy         Delta-E        Max-DP      RMS-DP      [F,P]     Damp
               ***  Starting incremental Fock matrix formation  ***
  0   -958.3187627003   0.000000000000 0.23019807  0.00159761  0.1950537 0.7000
  1   -958.4883843480  -0.169621647664 0.24893171  0.00173481  0.0998258 0.7000
                               ***Turning on DIIS***
  2   -958.5648626280  -0.076478280089 0.72822646  0.00444460  0.0436295 0.0000
  3   -958.6777632631  -0.112900635043 0.15717864  0.00106304  0.0489077 0.0000
  4   -958.7035776700  -0.025814406921 0.11978473  0.00069006  0.0093959 0.0000
  5   -958.7047672356  -0.001189565578 0.04013379  0.00028551  0.0038032 0.0000
                      *** Initiating the SOSCF procedure ***
                           *** Shutting down DIIS ***
                      *** Re-Reading the Fockian *** 
                      *** Removing any level shift *** 
ITER      Energy       Delta-E        Grad      Rot      Max-DP    RMS-DP
  6   -958.70489477  -0.0001275324  0.000419  0.000419  0.089226  0.000325
               *** Restarting incremental Fock matrix formation ***
  7   -958.70488187   0.0000129008  0.000304  0.001487  0.150086  0.000865
  8   -958.70487666   0.0000052079  0.000382  0.000631  0.018170  0.000099
  9   -958.70488762  -0.0000109613  0.000048  0.000233  0.113328  0.000408
 10   -958.70488757   0.0000000545  0.000066  0.000208  0.048086  0.000177
 11   -958.70488771  -0.0000001439  0.000004  0.000031  0.060628  0.000287
 12   -958.70488770   0.0000000062  0.000006  0.000023  0.074143  0.000277
 13   -958.70488771  -0.0000000015  0.000004  0.000010  0.153206  0.000665
                 **** Energy Check signals convergence ****
              ***Rediagonalizing the Fockian in SOSCF/NRSCF***

               *****************************************************
               *                     SUCCESS                       *
               *           SCF CONVERGED AFTER  14 CYCLES          *
               *****************************************************

Old exchange energy                            =    -30.872274371 Eh
New exchange energy                            =    -30.872369078 Eh
Exchange energy change after final integration =     -0.000094707 Eh
Total energy after final integration           =   -958.704982409 Eh
Final COS-X integration done in                =   140.158 sec

SMD CDS free energy correction energy :                -0.65924     Kcal/mol
Total Energy after SMD CDS correction =              -958.706032977 Eh

----------------
TOTAL SCF ENERGY
----------------

Total Energy       :         -958.70603298 Eh          -26087.71743 eV

Components:
Nuclear Repulsion  :         1461.37672391 Eh           39766.08233 eV
Electronic Energy  :        -2420.08275688 Eh          -65853.79976 eV
One Electron Energy:        -4210.76859136 Eh         -114580.83855 eV
Two Electron Energy:         1790.68583447 Eh           48727.03879 eV
Max COSX asymmetry :            0.00003797 Eh               0.00103 eV
CPCM Dielectric    :           -0.02776607 Eh              -0.75555 eV
SMD CDS (Gcds)     :           -0.00105057 Eh              -0.02859 eV

Virial components:
Potential Energy   :        -1912.08342695 Eh          -52030.43522 eV
Kinetic Energy     :          953.37739398 Eh           25942.71779 eV
Virial Ratio       :            2.00558922


DFT components:
N(Alpha)           :       71.000018176419 electrons
N(Beta)            :       71.000018176419 electrons
N(Total)           :      142.000036352837 electrons
E(X)               :      -92.452582641704 Eh       
E(C)               :       -4.825652231023 Eh       
E(XC)              :      -97.278234872727 Eh       
DFET-embed. en.    :        0.000000000000 Eh       
CPCM Solvation Model Properties:
Surface-charge          :           -0.04910925
Charge-correction       :            0.00027943 Eh               0.00760 eV
Free-energy (cav+disp)  :           -0.00105057 Eh              -0.02859 eV

---------------
SCF CONVERGENCE
---------------

  Last Energy change         ...    2.6826e-09  Tolerance :   1.0000e-08
  Last MAX-Density change    ...    3.5527e-15  Tolerance :   1.0000e-07
  Last RMS-Density change    ...    1.8066e-17  Tolerance :   5.0000e-09
  Last Orbital Gradient      ...    4.6590e-06  Tolerance :   1.0000e-05
  Last Orbital Rotation      ...    1.5390e-05  Tolerance :   1.0000e-05

             **** THE GBW FILE WAS UPDATED (optpbed3-b2plyp-test-617.gbw) ****
             **** DENSITY optpbed3-b2plyp-test-617.scfp WAS UPDATED ****
             **** ENERGY FILE WAS UPDATED (optpbed3-b2plyp-test-617.en.tmp) ****
             **** THE GBW FILE WAS UPDATED (optpbed3-b2plyp-test-617.gbw) ****
             **** DENSITY optpbed3-b2plyp-test-617.scfp WAS UPDATED ****
----------------
ORBITAL ENERGIES
----------------

  NO   OCC          E(Eh)            E(eV) 
   0   2.0000     -24.804661      -674.9691 
   1   2.0000     -24.804645      -674.9687 
   2   2.0000     -14.407445      -392.0465 
   3   2.0000     -14.407402      -392.0453 
   4   2.0000     -14.394208      -391.6863 
   5   2.0000     -14.394161      -391.6850 
   6   2.0000     -10.330525      -281.1079 
   7   2.0000     -10.329982      -281.0931 
   8   2.0000     -10.283290      -279.8225 
   9   2.0000     -10.282851      -279.8106 
  10   2.0000     -10.275421      -279.6084 
  11   2.0000     -10.274927      -279.5950 
  12   2.0000     -10.272325      -279.5242 
  13   2.0000     -10.271856      -279.5114 
  14   2.0000     -10.242656      -278.7168 
  15   2.0000     -10.242619      -278.7158 
  16   2.0000     -10.242069      -278.7009 
  17   2.0000     -10.242011      -278.6993 
  18   2.0000     -10.220465      -278.1130 
  19   2.0000     -10.220377      -278.1106 
  20   2.0000      -1.284687       -34.9581 
  21   2.0000      -1.271676       -34.6041 
  22   2.0000      -1.015976       -27.6461 
  23   2.0000      -0.991174       -26.9712 
  24   2.0000      -0.953228       -25.9387 
  25   2.0000      -0.943218       -25.6663 
  26   2.0000      -0.900067       -24.4921 
  27   2.0000      -0.855315       -23.2743 
  28   2.0000      -0.800394       -21.7798 
  29   2.0000      -0.784463       -21.3463 
  30   2.0000      -0.765848       -20.8398 
  31   2.0000      -0.737138       -20.0586 
  32   2.0000      -0.705709       -19.2033 
  33   2.0000      -0.685016       -18.6402 
  34   2.0000      -0.669803       -18.2263 
  35   2.0000      -0.652390       -17.7524 
  36   2.0000      -0.617547       -16.8043 
  37   2.0000      -0.608617       -16.5613 
  38   2.0000      -0.594285       -16.1713 
  39   2.0000      -0.573990       -15.6191 
  40   2.0000      -0.558906       -15.2086 
  41   2.0000      -0.547942       -14.9103 
  42   2.0000      -0.539577       -14.6826 
  43   2.0000      -0.519455       -14.1351 
  44   2.0000      -0.496888       -13.5210 
  45   2.0000      -0.489497       -13.3199 
  46   2.0000      -0.487424       -13.2635 
  47   2.0000      -0.481967       -13.1150 
  48   2.0000      -0.474295       -12.9062 
  49   2.0000      -0.467134       -12.7114 
  50   2.0000      -0.462795       -12.5933 
  51   2.0000      -0.459028       -12.4908 
  52   2.0000      -0.451048       -12.2736 
  53   2.0000      -0.449925       -12.2431 
  54   2.0000      -0.439457       -11.9582 
  55   2.0000      -0.427945       -11.6450 
  56   2.0000      -0.407361       -11.0849 
  57   2.0000      -0.398491       -10.8435 
  58   2.0000      -0.396205       -10.7813 
  59   2.0000      -0.394594       -10.7374 
  60   2.0000      -0.383963       -10.4482 
  61   2.0000      -0.379727       -10.3329 
  62   2.0000      -0.371040       -10.0965 
  63   2.0000      -0.353709        -9.6249 
  64   2.0000      -0.329097        -8.9552 
  65   2.0000      -0.313177        -8.5220 
  66   2.0000      -0.289458        -7.8765 
  67   2.0000      -0.272356        -7.4112 
  68   2.0000      -0.265124        -7.2144 
  69   2.0000      -0.222026        -6.0416 
  70   2.0000      -0.217935        -5.9303 
  71   0.0000      -0.084718        -2.3053 
  72   0.0000      -0.016716        -0.4549 
  73   0.0000      -0.006790        -0.1848 
  74   0.0000       0.005411         0.1472 
  75   0.0000       0.008396         0.2285 
  76   0.0000       0.009877         0.2688 
  77   0.0000       0.015443         0.4202 
  78   0.0000       0.021318         0.5801 
  79   0.0000       0.027325         0.7435 
  80   0.0000       0.031025         0.8442 
  81   0.0000       0.036882         1.0036 
  82   0.0000       0.040574         1.1041 
  83   0.0000       0.044940         1.2229 
  84   0.0000       0.049967         1.3597 
  85   0.0000       0.050924         1.3857 
  86   0.0000       0.052582         1.4308 
  87   0.0000       0.062489         1.7004 
  88   0.0000       0.063486         1.7275 
  89   0.0000       0.067938         1.8487 
  90   0.0000       0.070527         1.9191 
  91   0.0000       0.070903         1.9294 
  92   0.0000       0.071687         1.9507 
  93   0.0000       0.081054         2.2056 
  94   0.0000       0.088357         2.4043 
  95   0.0000       0.088979         2.4212 
  96   0.0000       0.091751         2.4967 
  97   0.0000       0.092007         2.5036 
  98   0.0000       0.097497         2.6530 
  99   0.0000       0.102500         2.7892 
 100   0.0000       0.103348         2.8122 
 101   0.0000       0.108097         2.9415 
 102   0.0000       0.117568         3.1992 
 103   0.0000       0.121552         3.3076 
 104   0.0000       0.124253         3.3811 
 105   0.0000       0.125076         3.4035 
 106   0.0000       0.126230         3.4349 
 107   0.0000       0.126443         3.4407 
 108   0.0000       0.129796         3.5319 
 109   0.0000       0.135540         3.6882 
 110   0.0000       0.138045         3.7564 
 111   0.0000       0.139373         3.7925 
 112   0.0000       0.139709         3.8017 
 113   0.0000       0.141255         3.8437 
 114   0.0000       0.148261         4.0344 
 115   0.0000       0.151829         4.1315 
 116   0.0000       0.153360         4.1731 
 117   0.0000       0.153835         4.1861 
 118   0.0000       0.155043         4.2189 
 119   0.0000       0.157108         4.2751 
 120   0.0000       0.160635         4.3711 
 121   0.0000       0.163267         4.4427 
 122   0.0000       0.164505         4.4764 
 123   0.0000       0.172337         4.6895 
 124   0.0000       0.172739         4.7005 
 125   0.0000       0.175679         4.7805 
 126   0.0000       0.177569         4.8319 
 127   0.0000       0.178717         4.8631 
 128   0.0000       0.181619         4.9421 
 129   0.0000       0.184226         5.0131 
 130   0.0000       0.187251         5.0954 
 131   0.0000       0.190005         5.1703 
 132   0.0000       0.193716         5.2713 
 133   0.0000       0.194971         5.3054 
 134   0.0000       0.201885         5.4936 
 135   0.0000       0.201952         5.4954 
 136   0.0000       0.205019         5.5788 
 137   0.0000       0.207048         5.6341 
 138   0.0000       0.208557         5.6751 
 139   0.0000       0.209289         5.6950 
 140   0.0000       0.216173         5.8824 
 141   0.0000       0.218485         5.9453 
 142   0.0000       0.218917         5.9570 
 143   0.0000       0.225901         6.1471 
 144   0.0000       0.227636         6.1943 
 145   0.0000       0.228853         6.2274 
 146   0.0000       0.231413         6.2971 
 147   0.0000       0.231486         6.2991 
 148   0.0000       0.235713         6.4141 
[...]
   Transformed RI-exchange        ...   317.62 sec
   (ab|v) reading and digestion   ...   302.62 sec
   Final sigma-completion         ...     0.01 sec
   Done building sigma-vectors             Size of expansion space: 30
   Lowest Energy          :     0.128475219374
   Maximum Energy change  :     0.000115622156 (vector 8)
   Maximum residual norm  :     0.000008819371

                       ****Iteration    7****
              <<< Entering MO-section for Build Sigma(Double) >>>
   Forming the XC and CPCM contribution:
   Time for densities:            0.243
   Time for XC-Integration:      17.377
   Time for LR-CPCM terms:       10.768
   Time for Sigma-Completion:     0.197
   Time for building 10 sigma-vectors
   Data Preparation Phase         ...     0.01 sec
   Transformed RI Coulomb         ...     0.63 sec
   Transformed RI-exchange        ...   307.56 sec
   (ab|v) reading and digestion   ...   292.79 sec
   Final sigma-completion         ...     0.01 sec
   Done building sigma-vectors             Size of expansion space: 40
   Lowest Energy          :     0.128475217057
   Maximum Energy change  :     0.000051231887 (vector 8)
   Maximum residual norm  :     0.000010470367

                       ****Iteration    8****
              <<< Entering MO-section for Build Sigma(Double) >>>
   Forming the XC and CPCM contribution:
   Time for densities:            0.241
   Time for XC-Integration:      17.232
   Time for LR-CPCM terms:       10.722
   Time for Sigma-Completion:     0.198
   Time for building 10 sigma-vectors
   Data Preparation Phase         ...     0.01 sec
   Transformed RI Coulomb         ...     0.64 sec
   Transformed RI-exchange        ...   312.74 sec
   (ab|v) reading and digestion   ...   296.47 sec
   Final sigma-completion         ...     0.01 sec
   Done building sigma-vectors             Size of expansion space: 50
   Lowest Energy          :     0.128475216903
   Maximum Energy change  :     0.000021971920 (vector 8)
   Maximum residual norm  :     0.000004146873

                       ****Iteration    9****
              <<< Entering MO-section for Build Sigma(Double) >>>
   Forming the XC and CPCM contribution:
   Time for densities:            0.243
   Time for XC-Integration:      18.058
   Time for LR-CPCM terms:       10.799
   Time for Sigma-Completion:     0.195
   Time for building 10 sigma-vectors
   Data Preparation Phase         ...     0.01 sec
   Transformed RI Coulomb         ...     0.62 sec
   Transformed RI-exchange        ...   314.10 sec
   (ab|v) reading and digestion   ...   298.08 sec
   Final sigma-completion         ...     0.01 sec
   Done building sigma-vectors             Size of expansion space: 60
   Lowest Energy          :     0.128475216894
   Maximum Energy change  :     0.000014266725 (vector 8)
   Maximum residual norm  :     0.000001556434

                       ****Iteration   10****
              <<< Entering MO-section for Build Sigma(Double) >>>
   Forming the XC and CPCM contribution:
   Time for densities:            0.243
   Time for XC-Integration:      17.589
   Time for LR-CPCM terms:       10.736
   Time for Sigma-Completion:     0.196
   Time for building 10 sigma-vectors
   Data Preparation Phase         ...     0.01 sec
   Transformed RI Coulomb         ...     0.64 sec
   Transformed RI-exchange        ...   309.48 sec
   (ab|v) reading and digestion   ...   290.26 sec
   Final sigma-completion         ...     0.01 sec
   Done building sigma-vectors             Size of expansion space: 70
   Lowest Energy          :     0.128475216894
   Maximum Energy change  :     0.000005906758 (vector 8)
   Maximum residual norm  :     0.000001133119
   Rebuilding the expansion space

                       ****Iteration   11****
              <<< Entering MO-section for Build Sigma(Double) >>>
   Forming the XC and CPCM contribution:
   Time for densities:            0.463
   Time for XC-Integration:      33.434
   Time for LR-CPCM terms:       16.982
   Time for Sigma-Completion:     0.386
   Time for building 20 sigma-vectors
   Data Preparation Phase         ...     0.02 sec
   Transformed RI Coulomb         ...     1.04 sec
   Transformed RI-exchange        ...   700.39 sec
   (ab|v) reading and digestion   ...   663.89 sec
   Final sigma-completion         ...     0.02 sec
   Done building sigma-vectors             Size of expansion space: 20
   Lowest Energy          :     0.128475216883
   Maximum Energy change  :     0.000001925793 (vector 8)
   Maximum residual norm  :     0.000000393969

      *** CONVERGENCE OF RESIDUAL NORM REACHED ***

Storing the converged CI vectors               ... optpbed3-b2plyp-test-617_job2.cis1

                 *** DAVIDSON DONE ***

Total time for solving the CIS problem:  4699.496sec

------------------
DOUBLES CORRECTION (Double precision version)
------------------

The (D) correction will be scaled by  0.2700
Doing v(i,a)*T(i,a) terms (RI)                    ... ok
Doing u(i,j,a,b) terms for state   0              ... ok
Doing u(i,j,a,b) terms for state   1              ... ok
Doing u(i,j,a,b) terms for state   2              ... ok
Doing u(i,j,a,b) terms for state   3              ... ok
Doing u(i,j,a,b) terms for state   4              ... ok
Doing u(i,j,a,b) terms for state   5              ... ok
Doing u(i,j,a,b) terms for state   6              ... ok
Doing u(i,j,a,b) terms for state   7              ... ok
Doing u(i,j,a,b) terms for state   8              ... ok
Doing u(i,j,a,b) terms for state   9              ... ok

Contributions to the (D) correction(s) (in eV)

STATE  Final   Init.   Total   v(ext)   v(int)  v(3)    u
       omega   omega     (D)                             
-----------------------------------------------------------------------------
   0   3.087   3.496  -0.409   0.816   0.984  -0.061  -2.148
   1   3.142   3.599  -0.457   0.804   1.045  -0.078  -2.227
   2   3.620   4.205  -0.584   0.846   0.778  -0.029  -2.179
   3   4.447   4.958  -0.510   0.804   0.914  -0.040  -2.188
   4   4.924   5.206  -0.283   0.057   0.998  -0.004  -1.335
   5   4.865   5.329  -0.464   0.283   0.970  -0.027  -1.691
   6   4.814   5.394  -0.580   0.425   0.963  -0.038  -1.930
   7   4.839   5.472  -0.632   0.604   1.007  -0.072  -2.171
   8   4.953   5.579  -0.627   0.513   0.994  -0.042  -2.091
   9   5.328   5.610  -0.282   0.047   1.037  -0.002  -1.365

(D)-timings
 V(i,a)*T(i,a) terms           ...   913.257 sec
 U(i,j,a,b) 3-internal         ...    13.734 sec
 U(i,j,a,b) 3-external         ...   293.291 sec
 U(i,j,a,b) pair terms         ...   444.277 sec
 Total measured time           ...  3832.554 sec

 Time for (ab|v) I/O           ...    93.203 sec


------------------------------------
TD-DFT/TDA EXCITED STATES (SINGLETS)
------------------------------------

the weight of the individual excitations are printed if larger than 1.0e-02

STATE  1:  E=   0.113452 au      3.087 eV    24899.9 cm**-1 <S**2> =   0.000000
    69a ->  71a  :     0.931796 (c=  0.96529562)
    70a ->  75a  :     0.027742 (c= -0.16655816)

STATE  2:  E=   0.115472 au      3.142 eV    25343.3 cm**-1 <S**2> =   0.000000
    69a ->  75a  :     0.056160 (c= -0.23698124)
    70a ->  71a  :     0.905011 (c= -0.95132076)

STATE  3:  E=   0.133043 au      3.620 eV    29199.5 cm**-1 <S**2> =   0.000000
    67a ->  71a  :     0.925247 (c= -0.96189762)
    67a ->  78a  :     0.019418 (c= -0.13934914)
    67a ->  86a  :     0.016486 (c=  0.12839733)

STATE  4:  E=   0.163426 au      4.447 eV    35867.9 cm**-1 <S**2> =   0.000000
    68a ->  71a  :     0.894781 (c= -0.94592850)
    70a ->  75a  :     0.052770 (c=  0.22971633)

STATE  5:  E=   0.180936 au      4.924 eV    39710.8 cm**-1 <S**2> =   0.000000
    66a ->  72a  :     0.015024 (c=  0.12257217)
    69a ->  74a  :     0.034662 (c=  0.18617807)
    70a ->  72a  :     0.760719 (c=  0.87219227)
    70a ->  79a  :     0.075847 (c= -0.27540414)
    70a ->  80a  :     0.039674 (c= -0.19918288)

STATE  6:  E=   0.178788 au      4.865 eV    39239.4 cm**-1 <S**2> =   0.000000
    66a ->  71a  :     0.082110 (c=  0.28654795)
    69a ->  72a  :     0.417007 (c= -0.64576114)
    69a ->  73a  :     0.025294 (c= -0.15904153)
    69a ->  75a  :     0.234047 (c= -0.48378433)
    69a ->  79a  :     0.039302 (c=  0.19824683)
    69a ->  80a  :     0.020263 (c=  0.14234925)
    70a ->  71a  :     0.021240 (c=  0.14573972)
    70a ->  74a  :     0.067155 (c= -0.25914271)

STATE  7:  E=   0.176921 au      4.814 eV    38829.7 cm**-1 <S**2> =   0.000000
    66a ->  71a  :     0.163188 (c= -0.40396560)
    68a ->  75a  :     0.018012 (c=  0.13420882)
    69a ->  72a  :     0.212017 (c= -0.46045350)
    69a ->  73a  :     0.011554 (c= -0.10748893)
    69a ->  75a  :     0.340945 (c=  0.58390477)
    69a ->  76a  :     0.031606 (c=  0.17778054)
    69a ->  79a  :     0.033734 (c=  0.18366726)
    69a ->  80a  :     0.016508 (c=  0.12848305)
    70a ->  71a  :     0.030586 (c= -0.17488727)
    70a ->  74a  :     0.041012 (c= -0.20251490)
    70a ->  78a  :     0.015635 (c= -0.12504196)

STATE  8:  E=   0.177839 au      4.839 eV    39031.2 cm**-1 <S**2> =   0.000000
    68a ->  71a  :     0.038857 (c=  0.19712175)
    69a ->  71a  :     0.028540 (c=  0.16893711)
    69a ->  83a  :     0.010131 (c= -0.10065154)
    69a ->  86a  :     0.011906 (c= -0.10911367)
    70a ->  75a  :     0.797719 (c=  0.89315107)
    70a -> 100a  :     0.014225 (c= -0.11926948)

STATE  9:  E=   0.182015 au      4.953 eV    39947.6 cm**-1 <S**2> =   0.000000
    66a ->  71a  :     0.132852 (c= -0.36448911)
    66a ->  78a  :     0.011821 (c=  0.10872358)
    68a ->  75a  :     0.099196 (c=  0.31495420)
    69a ->  75a  :     0.088471 (c= -0.29744075)
    69a -> 100a  :     0.023369 (c=  0.15287042)
    70a ->  74a  :     0.010214 (c=  0.10106576)
    70a ->  78a  :     0.255900 (c= -0.50586553)
    70a ->  79a  :     0.086801 (c=  0.29462088)
    70a ->  80a  :     0.155272 (c= -0.39404530)
    70a ->  83a  :     0.077706 (c= -0.27875844)

STATE 10:  E=   0.195798 au      5.328 eV    42972.8 cm**-1 <S**2> =   0.000000
    66a ->  73a  :     0.011649 (c=  0.10793219)
    70a ->  72a  :     0.016594 (c=  0.12881799)
    70a ->  73a  :     0.639954 (c= -0.79997146)
    70a ->  76a  :     0.189606 (c=  0.43543715)
    70a ->  82a  :     0.020199 (c=  0.14212355)
    70a ->  85a  :     0.032666 (c= -0.18073808)


-----------------------------
TD-DFT/TDA-EXCITATION SPECTRA
-----------------------------

Center of mass = (  2.1904, -0.1347,  0.3194)
Calculating the Dipole integrals                  ... done
Transforming integrals                            ... done
Calculating the Linear Momentum integrals         ... done
Transforming integrals                            ... done
Calculating angular momentum integrals            ... done
Transforming integrals                            ... done

-----------------------------------------------------------------------------
         ABSORPTION SPECTRUM VIA TRANSITION ELECTRIC DIPOLE MOMENTS
-----------------------------------------------------------------------------
State   Energy    Wavelength  fosc         T2        TX        TY        TZ  
        (cm-1)      (nm)                 (au**2)    (au)      (au)      (au) 
-----------------------------------------------------------------------------
   1   24899.9    401.6   0.015443568   0.20419   0.09817   0.43649  -0.06342
   2   25343.3    394.6   0.856645860  11.12793  -3.32890   0.21362  -0.02745
   3   29199.5    342.5   0.003301781   0.03723  -0.00017   0.02549   0.19125
   4   35867.9    278.8   0.026524359   0.24345  -0.03362  -0.48994   0.04773
   5   39710.8    251.8   0.013562010   0.11243   0.00365   0.27358   0.19383
   6   39239.4    254.8   0.548662177   4.60318   2.14111  -0.13552   0.02133
   7   38829.7    257.5   0.679670573   5.76249  -2.39359   0.18091  -0.02229
   8   39031.2    256.2   0.255797565   2.15755   0.12433   1.45863  -0.12036
   9   39947.6    250.3   0.154500183   1.27325   1.12664  -0.06266  -0.00309
  10   42972.8    232.7   0.004664824   0.03574  -0.02261   0.02469  -0.18605

-----------------------------------------------------------------------------
         ABSORPTION SPECTRUM VIA TRANSITION VELOCITY DIPOLE MOMENTS
-----------------------------------------------------------------------------
State   Energy    Wavelength   fosc        P2         PX        PY        PZ  
        (cm-1)      (nm)                 (au**2)     (au)      (au)      (au) 
-----------------------------------------------------------------------------
   1   24899.9    401.6   0.097090766   0.01652   0.00387   0.12843  -0.00355
   2   25343.3    394.6   0.231541557   0.04010   0.20002  -0.00972   0.00174
   3   29199.5    342.5   0.008592189   0.00171  -0.00004   0.00248   0.04133
   4   35867.9    278.8   0.000280697   0.00007   0.00077   0.00799   0.00210
   5   39710.8    251.8   0.001694030   0.00046   0.00054  -0.01387  -0.01634
   6   39239.4    254.8   0.268110938   0.07190  -0.26761   0.01670  -0.00250
   7   38829.7    257.5   0.326367287   0.08661   0.29362  -0.01989   0.00247
   8   39031.2    256.2   0.025171673   0.00671  -0.00897  -0.08094  -0.00908
   9   39947.6    250.3   0.092952429   0.02538  -0.15901   0.00962  -0.00005
  10   42972.8    232.7   0.006272609   0.00184   0.00372   0.00785   0.04203

-------------------------------------------------------------------
                             CD SPECTRUM
-------------------------------------------------------------------
State  Energy     Wavelength     R         MX        MY        MZ   
       (cm-1)       (nm)     (1e40*cgs)   (au)      (au)      (au)  
-------------------------------------------------------------------
   1   24899.9    401.6     -6.67963   0.00099  -0.02518   0.05160
   2   25343.3    394.6    -29.10052   0.01797  -0.00889  -0.00017
   3   29199.5    342.5     -0.16023   0.00114   0.02274  -0.00481
   4   35867.9    278.8      1.00926  -0.00100   0.00229   0.06761
   5   39710.8    251.8     -9.60020  -0.00193  -0.10992   0.05013
   6   39239.4    254.8    -240.64996  -0.23721   0.01854  -0.00156
   7   38829.7    257.5    151.69432  -0.13434   0.00178   0.00534
   8   39031.2    256.2     65.76945   0.00644   0.11756   0.27227
   9   39947.6    250.3      6.02231   0.01135  -0.00011   0.00631
  10   42972.8    232.7     -9.59454  -0.01268  -0.19199   0.08544

-------------------------------------------------------------------
         CD SPECTRUM VIA TRANSITION VELOCITY DIPOLE MOMENTS        
-------------------------------------------------------------------
State  Energy     Wavelength     R         MX        MY        MZ   
       (cm-1)       (nm)     (1e40*cgs)   (au)      (au)      (au)  
-------------------------------------------------------------------
   1   24899.9    401.6    -14.18591   0.00099  -0.02518   0.05160
   2   25343.3    394.6     15.02918   0.01797  -0.00889  -0.00017
   3   29199.5    342.5     -0.50431   0.00114   0.02274  -0.00481
   4   35867.9    278.8      0.45933  -0.00100   0.00229   0.06761
   5   39710.8    251.8      1.83550  -0.00193  -0.10992   0.05013
   6   39239.4    254.8    168.22305  -0.23721   0.01854  -0.00156
   7   38829.7    257.5    -105.16958  -0.13434   0.00178   0.00534
   8   39031.2    256.2    -31.93518   0.00644   0.11756   0.27227
   9   39947.6    250.3     -4.67810   0.01135  -0.00011   0.00631
  10   42972.8    232.7      4.90635  -0.01268  -0.19199   0.08544

Total run time:     8538.589 sec

           *** ORCA-CIS/TD-DFT FINISHED WITHOUT ERROR ***

Maximum memory used throughout the entire CIS-calculation: 1354.2 MB

-----------------------
CIS/TD-DFT TOTAL ENERGY
-----------------------

    E(SCF)  =   -957.890161999 Eh
    DE(CIS) =      0.113452165 Eh (Root  1)
    ----------------------------- ---------
    E(tot)  =   -957.776709834 Eh



-------------------------------------------------------------------------------
                          DFT DISPERSION CORRECTION                            
                                                                               
                              DFTD3 V3.1  Rev 1                                
                          USING Becke-Johnson damping                          
-------------------------------------------------------------------------------
The B2PLYP functional is recognized
Active option DFTDOPT                   ...         4   

molecular C6(AA) [au] = 12305.783442 


            DFT-D V3
 parameters
 s6 scaling factor         :     0.6400 
 a1 scaling factor         :     0.3065 
 s8 scaling factor         :     0.9147 
 a2 scaling factor         :     5.0570 
 ad hoc parameters k1-k3   :    16.0000     1.3333    -4.0000 

 Edisp/kcal,au: -20.325905966274  -0.032391389514 
 E6   /kcal   : -11.428509223 
 E8   /kcal   :  -8.897396744 
 % E8         :  43.773678567 

-------------------------   ----------------
Dispersion correction           -0.032391390
-------------------------   ----------------


-------------------------   --------------------
FINAL SINGLE POINT ENERGY      -957.809101223519
-------------------------   --------------------


                            ***************************************
                            *     ORCA property calculations      *
                            ***************************************


  WARNING: The energy has been calculated at the MP2 level but the densities
           used in the property calculations are still SCF densities
           MP2 response densities have not been calculated 
           use %mp2 Density relaxed end
           or  %mp2 Density unrelaxed end

                                    ---------------------
                                    Active property flags
                                    ---------------------
   (+) Dipole Moment


------------------------------------------------------------------------------
                       ORCA ELECTRIC PROPERTIES CALCULATION
------------------------------------------------------------------------------

Dipole Moment Calculation                       ... on
Quadrupole Moment Calculation                   ... off
Polarizability Calculation                      ... off
GBWName                                         ... optpbed3-b2plyp-test-617_job2.gbw
Electron density                                ... optpbed3-b2plyp-test-617_job2.scfp
The origin for moment calculation is the CENTER OF MASS  = ( 2.190445, -0.134730  0.319379)

-------------
DIPOLE MOMENT
-------------
                                X             Y             Z
Electronic contribution:     37.93598      -2.33034       0.30605
Nuclear contribution   :    -42.76244       2.63048      -0.36352
                        -----------------------------------------
Total Dipole Moment    :     -4.82646       0.30014      -0.05747
                        -----------------------------------------
Magnitude (a.u.)       :      4.83613
Magnitude (Debye)      :     12.29246



--------------------
Rotational spectrum 
--------------------
 
Rotational constants in cm-1:     0.028169     0.005294     0.004466 
Rotational constants in MHz :   844.476389   158.722235   133.892524 

 Dipole components along the rotational axes: 
x,y,z [a.u.] :    -4.836053     0.005069    -0.026201 
x,y,z [Debye]:   -12.292270     0.012884    -0.066598 

 

Timings for individual modules:

Sum of individual times         ...    10647.727 sec (= 177.462 min)
GTO integral calculation        ...        4.943 sec (=   0.082 min)   0.0 %
SCF iterations                  ...     1194.226 sec (=  19.904 min)  11.2 %
MP2 module                      ...      909.350 sec (=  15.156 min)   8.5 %
CIS module                      ...     8539.207 sec (= 142.320 min)  80.2 %



                             ****ORCA TERMINATED NORMALLY****
TOTAL RUN TIME: 0 days 6 hours 5 minutes 18 seconds 534 msec
