
                                 *****************
                                 * O   R   C   A *
                                 *****************

                                            #,                                       
                                            ###                                      
                                            ####                                     
                                            #####                                    
                                            ######                                   
                                           ########,                                 
                                     ,,################,,,,,                         
                               ,,#################################,,                 
                          ,,##########################################,,             
                       ,#########################################, ''#####,          
                    ,#############################################,,   '####,        
                  ,##################################################,,,,####,       
                ,###########''''           ''''###############################       
              ,#####''   ,,,,##########,,,,          '''####'''          '####       
            ,##' ,,,,###########################,,,                        '##       
           ' ,,###''''                  '''############,,,                           
         ,,##''                                '''############,,,,        ,,,,,,###''
      ,#''                                            '''#######################'''  
     '                                                          ''''####''''         
             ,#######,   #######,   ,#######,      ##                                
            ,#'     '#,  ##    ##  ,#'     '#,    #''#        ######   ,####,        
            ##       ##  ##   ,#'  ##            #'  '#       #        #'  '#        
            ##       ##  #######   ##           ,######,      #####,   #    #        
            '#,     ,#'  ##    ##  '#,     ,#' ,#      #,         ##   #,  ,#        
             '#######'   ##     ##  '#######'  #'      '#     #####' # '####'        



                  #######################################################
                  #                        -***-                        #
                  #          Department of theory and spectroscopy      #
                  #    Directorship and core code : Frank Neese         #
                  #        Max Planck Institute fuer Kohlenforschung    #
                  #                Kaiser Wilhelm Platz 1               #
                  #                 D-45470 Muelheim/Ruhr               #
                  #                      Germany                        #
                  #                                                     #
                  #                  All rights reserved                #
                  #                        -***-                        #
                  #######################################################


                         Program Version 5.0.2 -  RELEASE  -


 With contributions from (in alphabetic order):
   Daniel Aravena         : Magnetic Suceptibility
   Michael Atanasov       : Ab Initio Ligand Field Theory (pilot matlab implementation)
   Alexander A. Auer      : GIAO ZORA, VPT2 properties, NMR spectrum
   Ute Becker             : Parallelization
   Giovanni Bistoni       : ED, misc. LED, open-shell LED, HFLD
   Martin Brehm           : Molecular dynamics
   Dmytro Bykov           : SCF Hessian
   Vijay G. Chilkuri      : MRCI spin determinant printing, contributions to CSF-ICE
   Dipayan Datta          : RHF DLPNO-CCSD density
   Achintya Kumar Dutta   : EOM-CC, STEOM-CC
   Dmitry Ganyushin       : Spin-Orbit,Spin-Spin,Magnetic field MRCI
   Miquel Garcia          : C-PCM and meta-GGA Hessian, CC/C-PCM, Gaussian charge scheme
   Yang Guo               : DLPNO-NEVPT2, F12-NEVPT2, CIM, IAO-localization
   Andreas Hansen         : Spin unrestricted coupled pair/coupled cluster methods
   Benjamin Helmich-Paris : MC-RPA, TRAH-SCF, COSX integrals
   Lee Huntington         : MR-EOM, pCC
   Robert Izsak           : Overlap fitted RIJCOSX, COSX-SCS-MP3, EOM
   Marcus Kettner         : VPT2
   Christian Kollmar      : KDIIS, OOCD, Brueckner-CCSD(T), CCSD density, CASPT2, CASPT2-K
   Simone Kossmann        : Meta GGA functionals, TD-DFT gradient, OOMP2, MP2 Hessian
   Martin Krupicka        : Initial AUTO-CI
   Lucas Lang             : DCDCAS
   Marvin Lechner         : AUTO-CI (C++ implementation), FIC-MRCC
   Dagmar Lenk            : GEPOL surface, SMD
   Dimitrios Liakos       : Extrapolation schemes; Compound Job, initial MDCI parallelization
   Dimitrios Manganas     : Further ROCIS development; embedding schemes
   Dimitrios Pantazis     : SARC Basis sets
   Anastasios Papadopoulos: AUTO-CI, single reference methods and gradients
   Taras Petrenko         : DFT Hessian,TD-DFT gradient, ASA, ECA, R-Raman, ABS, FL, XAS/XES, NRVS
   Peter Pinski           : DLPNO-MP2, DLPNO-MP2 Gradient
   Christoph Reimann      : Effective Core Potentials
   Marius Retegan         : Local ZFS, SOC
   Christoph Riplinger    : Optimizer, TS searches, QM/MM, DLPNO-CCSD(T), (RO)-DLPNO pert. Triples
   Tobias Risthaus        : Range-separated hybrids, TD-DFT gradient, RPA, STAB
   Michael Roemelt        : Original ROCIS implementation
   Masaaki Saitow         : Open-shell DLPNO-CCSD energy and density
   Barbara Sandhoefer     : DKH picture change effects
   Avijit Sen             : IP-ROCIS
   Kantharuban Sivalingam : CASSCF convergence, NEVPT2, FIC-MRCI
   Bernardo de Souza      : ESD, SOC TD-DFT
   Georgi Stoychev        : AutoAux, RI-MP2 NMR, DLPNO-MP2 response
   Willem Van den Heuvel  : Paramagnetic NMR
   Boris Wezisla          : Elementary symmetry handling
   Frank Wennmohs         : Technical directorship


 We gratefully acknowledge several colleagues who have allowed us to
 interface, adapt or use parts of their codes:
   Stefan Grimme, W. Hujo, H. Kruse, P. Pracht,  : VdW corrections, initial TS optimization,
                  C. Bannwarth, S. Ehlert          DFT functionals, gCP, sTDA/sTD-DF
   Ed Valeev, F. Pavosevic, A. Kumar             : LibInt (2-el integral package), F12 methods
   Garnet Chan, S. Sharma, J. Yang, R. Olivares  : DMRG
   Ulf Ekstrom                                   : XCFun DFT Library
   Mihaly Kallay                                 : mrcc  (arbitrary order and MRCC methods)
   Jiri Pittner, Ondrej Demel                    : Mk-CCSD
   Frank Weinhold                                : gennbo (NPA and NBO analysis)
   Christopher J. Cramer and Donald G. Truhlar   : smd solvation model
   Lars Goerigk                                  : TD-DFT with DH, B97 family of functionals
   V. Asgeirsson, H. Jonsson                     : NEB implementation
   FAccTs GmbH                                   : IRC, NEB, NEB-TS, DLPNO-Multilevel, CI-OPT
                                                   MM, QMMM, 2- and 3-layer-ONIOM, Crystal-QMMM,
                                                   LR-CPCM, SF, NACMEs, symmetry and pop. for TD-DFT,
                                                   nearIR, NL-DFT gradient (VV10), updates on ESD,
                                                   ML-optimized integration grids
   S Lehtola, MJT Oliveira, MAL Marques          : LibXC Library
   Liviu Ungur et al                             : ANISO software


 Your calculation uses the libint2 library for the computation of 2-el integrals
 For citations please refer to: http://libint.valeyev.net

 Your ORCA version has been built with support for libXC version: 5.1.0
 For citations please refer to: https://tddft.org/programs/libxc/

 This ORCA versions uses:
   CBLAS   interface :  Fast vector & matrix operations
   LAPACKE interface :  Fast linear algebra routines
   SCALAPACK package :  Parallel linear algebra routines
   Shared memory     :  Shared parallel matrices
   BLAS/LAPACK       :  OpenBLAS 0.3.15  USE64BITINT DYNAMIC_ARCH NO_AFFINITY Sandybridge SINGLE_THREADED
        Core in use  :  Sandybridge
   Copyright (c) 2011-2014, The OpenBLAS Project


Your calculation utilizes the atom-pairwise dispersion correction
with the Becke-Johnson damping scheme (D3BJ)
Cite in your paper:
S.Grimme, S.Ehrlich, L.Goerigk, J Comput Chem, (2011), 32, 1456–1465 
S.Grimme, J.Antony, S.Ehrlich and H.Krieg, J.Chem.Phys., 132, (2010), 154104 
   

Your calculation utilizes the SMD solvation module
Please cite in your paper:
A.V. Marenich, C.J. Cramer, D.G. Truhlar J. Phys. Chem. B, 113, (2009), 6378 

================================================================================

----- Orbital basis set information -----
Your calculation utilizes the basis: aug-cc-pVTZ 
    H, B-Ne : Obtained from the ccRepo (grant-hill.group.shef.ac.uk/ccrepo) Feb. 2017
              R. A. Kendall, T. H. Dunning, Jr., R. J. Harrison, J. Chem. Phys. 96, 6796 (1992)
         He : Obtained from the ccRepo (grant-hill.group.shef.ac.uk/ccrepo) Feb. 2017
              D. E. Woon, T. H. Dunning, Jr., J. Chem. Phys. 100, 2975 (1994)
  Li-Be, Na : Obtained from the ccRepo (grant-hill.group.shef.ac.uk/ccrepo) Feb. 2017
              B. P. Prascher, D. E. Woon, K. A. Peterson, T. H. Dunning, Jr., A. K. Wilson, Theor. Chem. Acc. 128, 69 (2011)
         Mg : Obtained from the Peterson Research Group Website (tyr0.chem.wsu.edu/~kipeters) Feb. 2017
              B. P. Prascher, D. E. Woon, K. A. Peterson, T. H. Dunning, Jr., A. K. Wilson, Theor. Chem. Acc. 128, 69 (2011)
      Al-Ar : Obtained from the ccRepo (grant-hill.group.shef.ac.uk/ccrepo) Feb. 2017
              D. E. Woon, T. H. Dunning, Jr., J. Chem. Phys. 98, 1358 (1993)
      Sc-Zn : Obtained from the ccRepo (grant-hill.group.shef.ac.uk/ccrepo) Feb. 2017
              N. B. Balabanov, K. A. Peterson, J. Chem. Phys. 123, 064107 (2005)
              N. B. Balabanov, K. A. Peterson, J. Chem. Phys. 125, 074110 (2006)
      Ga-Kr : Obtained from the ccRepo (grant-hill.group.shef.ac.uk/ccrepo) Feb. 2017
              A. K. Wilson, D. E. Woon, K. A. Peterson, T. H. Dunning, Jr., J. Chem. Phys. 110, 7667 (1999)
     Ag, Au : Obtained from the Peterson Research Group Website (tyr0.chem.wsu.edu/~kipeters) Feb. 2017
              K. A. Peterson, C. Puzzarini, Theor. Chem. Acc. 114, 283 (2005)

The basis set includes element-specific modifications.

Your calculation utilizes the basis: cc-pVTZ 
       H, B-Ne : Obtained from the ccRepo (grant-hill.group.shef.ac.uk/ccrepo) Feb. 2017
                 T. H. Dunning, Jr., J. Chem. Phys. 90, 1007 (1989)
            He : Obtained from the ccRepo (grant-hill.group.shef.ac.uk/ccrepo) Feb. 2017
                 D. E. Woon, T. H. Dunning, Jr., J. Chem. Phys. 100, 2975 (1994)
  Li-Be, Na-Mg : Obtained from the ccRepo (grant-hill.group.shef.ac.uk/ccrepo) Feb. 2017
                 B. P. Prascher, D. E. Woon, K. A. Peterson, T. H. Dunning, Jr., A. K. Wilson, Theor. Chem. Acc. 128, 69 (2011)
         Al-Ar : Obtained from the ccRepo (grant-hill.group.shef.ac.uk/ccrepo) Feb. 2017
                 D. E. Woon, T. H. Dunning, Jr., J. Chem. Phys. 98, 1358 (1993)
            Ca : Obtained from the Peterson Research Group Website (tyr0.chem.wsu.edu/~kipeters) Feb. 2017
                 J. Koput, K. A. Peterson, J. Phys. Chem. 106, 9595 (2002)
         Sc-Zn : Obtained from the ccRepo (grant-hill.group.shef.ac.uk/ccrepo) Feb. 2017
                 N. B. Balabanov, K. A. Peterson, J. Chem. Phys. 123, 064107 (2005)
                 N. B. Balabanov, K. A. Peterson, J. Chem. Phys. 125, 074110 (2006)
         Ga-Kr : Obtained from the ccRepo (grant-hill.group.shef.ac.uk/ccrepo) Feb. 2017
                 A. K. Wilson, D. E. Woon, K. A. Peterson, T. H. Dunning, Jr., J. Chem. Phys. 110, 7667 (1999)
             Y : Obtained from the ccRepo (grant-hill.group.shef.ac.uk/ccrepo) Feb. 2017
                 K. A. Peterson, D. Figgen, M. Dolg, H. Stoll, J. Chem. Phys. 126, 124101 (2007)
        Ag, Au : Obtained from the Peterson Research Group Website (tyr0.chem.wsu.edu/~kipeters) Feb. 2017
                 K. A. Peterson, C. Puzzarini, Theor. Chem. Acc. 114, 283 (2005)

----- AuxJ basis set information -----
Your calculation utilizes the auxiliary basis: aug-cc-pVTZ/JK 
  H, B-F, Al-Cl, Ga-Br : Obtained from the TURBOMOLE 7.0 basis set library

The basis set includes element-specific modifications.

Your calculation utilizes the auxiliary basis: cc-pVTZ/JK 
  H, B-F, Al-Cl, Ga-Br : Obtained from the TURBOMOLE 7.0 basis set library

----- AuxC basis set information -----
Your calculation utilizes the auxiliary basis: aug-cc-pVTZ/C 
  H-He, B-F, Al-Ar, Ga-Kr : Obtained from the EMSL Basis Set Exchange (bse.pnl.gov) Feb. 2017
                            F. Weigend, A. Kohn, C. Hattig, J. Chem. Phys. 116, 3175 (2002)
                   Be, Mg : Obtained from the TURBOMOLE 7.0 basis set library
                            C. Haettig, Phys. Chem. Chem. Phys. 7, 59 (2005)
                       Ne : Obtained from the EMSL Basis Set Exchange (bse.pnl.gov) Feb. 2017
                            C. Haettig, Phys. Chem. Chem. Phys. 7, 59 (2005)
                            F. Weigend, A. Kohn, C. Hattig, J. Chem. Phys. 116, 3175 (2002)
                    Sc-Zn : Obtained from the EMSL Basis Set Exchange (bse.pnl.gov) Feb. 2017
                            J. G. Hill, J. A. Platts, J. Chem. Phys. 128, 044104 (2008)

The basis set includes element-specific modifications.

Your calculation utilizes the auxiliary basis: cc-pVTZ/C 
  Obtained from the EMSL Basis Set Exchange (bse.pnl.gov) Feb. 2017
  H-He, B-F, Al-Ar, Ga-Kr : F. Weigend, A. Kohn, C. Hattig, J. Chem. Phys. 116, 3175 (2002)
             Li-Be, Na-Mg : C. Haettig, Phys. Chem. Chem. Phys. 7, 59 (2005)
                       Ne : C. Haettig, Phys. Chem. Chem. Phys. 7, 59 (2005)
                            F. Weigend, A. Kohn, C. Hattig, J. Chem. Phys. 116, 3175 (2002)
                    Sc-Zn : J. G. Hill, J. A. Platts, J. Chem. Phys. 128, 044104 (2008)

================================================================================
                                        WARNINGS
                       Please study these warnings very carefully!
================================================================================


WARNING: Geometry Optimization
  ===> : Switching off AutoStart
         For restart on a previous wavefunction, please use MOREAD

INFO   : the flag for use of the SHARK integral package has been found!



***************************************
The coordinates will be read from file: 
***************************************


Your calculation utilizes the atom-pairwise dispersion correction
with the Becke-Johnson damping scheme (D3BJ)
Cite in your paper:
S.Grimme, S.Ehrlich, L.Goerigk, J Comput Chem, (2011), 32, 1456–1465 
S.Grimme, J.Antony, S.Ehrlich and H.Krieg, J.Chem.Phys., 132, (2010), 154104 
   

Your calculation utilizes the SMD solvation module
Please cite in your paper:
A.V. Marenich, C.J. Cramer, D.G. Truhlar J. Phys. Chem. B, 113, (2009), 6378 

================================================================================

----- Orbital basis set information -----
Your calculation utilizes the basis: aug-cc-pVTZ 
    H, B-Ne : Obtained from the ccRepo (grant-hill.group.shef.ac.uk/ccrepo) Feb. 2017
              R. A. Kendall, T. H. Dunning, Jr., R. J. Harrison, J. Chem. Phys. 96, 6796 (1992)
         He : Obtained from the ccRepo (grant-hill.group.shef.ac.uk/ccrepo) Feb. 2017
              D. E. Woon, T. H. Dunning, Jr., J. Chem. Phys. 100, 2975 (1994)
  Li-Be, Na : Obtained from the ccRepo (grant-hill.group.shef.ac.uk/ccrepo) Feb. 2017
              B. P. Prascher, D. E. Woon, K. A. Peterson, T. H. Dunning, Jr., A. K. Wilson, Theor. Chem. Acc. 128, 69 (2011)
         Mg : Obtained from the Peterson Research Group Website (tyr0.chem.wsu.edu/~kipeters) Feb. 2017
              B. P. Prascher, D. E. Woon, K. A. Peterson, T. H. Dunning, Jr., A. K. Wilson, Theor. Chem. Acc. 128, 69 (2011)
      Al-Ar : Obtained from the ccRepo (grant-hill.group.shef.ac.uk/ccrepo) Feb. 2017
              D. E. Woon, T. H. Dunning, Jr., J. Chem. Phys. 98, 1358 (1993)
      Sc-Zn : Obtained from the ccRepo (grant-hill.group.shef.ac.uk/ccrepo) Feb. 2017
              N. B. Balabanov, K. A. Peterson, J. Chem. Phys. 123, 064107 (2005)
              N. B. Balabanov, K. A. Peterson, J. Chem. Phys. 125, 074110 (2006)
      Ga-Kr : Obtained from the ccRepo (grant-hill.group.shef.ac.uk/ccrepo) Feb. 2017
              A. K. Wilson, D. E. Woon, K. A. Peterson, T. H. Dunning, Jr., J. Chem. Phys. 110, 7667 (1999)
     Ag, Au : Obtained from the Peterson Research Group Website (tyr0.chem.wsu.edu/~kipeters) Feb. 2017
              K. A. Peterson, C. Puzzarini, Theor. Chem. Acc. 114, 283 (2005)

The basis set includes element-specific modifications.

Your calculation utilizes the basis: cc-pVTZ 
       H, B-Ne : Obtained from the ccRepo (grant-hill.group.shef.ac.uk/ccrepo) Feb. 2017
                 T. H. Dunning, Jr., J. Chem. Phys. 90, 1007 (1989)
            He : Obtained from the ccRepo (grant-hill.group.shef.ac.uk/ccrepo) Feb. 2017
                 D. E. Woon, T. H. Dunning, Jr., J. Chem. Phys. 100, 2975 (1994)
  Li-Be, Na-Mg : Obtained from the ccRepo (grant-hill.group.shef.ac.uk/ccrepo) Feb. 2017
                 B. P. Prascher, D. E. Woon, K. A. Peterson, T. H. Dunning, Jr., A. K. Wilson, Theor. Chem. Acc. 128, 69 (2011)
         Al-Ar : Obtained from the ccRepo (grant-hill.group.shef.ac.uk/ccrepo) Feb. 2017
                 D. E. Woon, T. H. Dunning, Jr., J. Chem. Phys. 98, 1358 (1993)
            Ca : Obtained from the Peterson Research Group Website (tyr0.chem.wsu.edu/~kipeters) Feb. 2017
                 J. Koput, K. A. Peterson, J. Phys. Chem. 106, 9595 (2002)
         Sc-Zn : Obtained from the ccRepo (grant-hill.group.shef.ac.uk/ccrepo) Feb. 2017
                 N. B. Balabanov, K. A. Peterson, J. Chem. Phys. 123, 064107 (2005)
                 N. B. Balabanov, K. A. Peterson, J. Chem. Phys. 125, 074110 (2006)
         Ga-Kr : Obtained from the ccRepo (grant-hill.group.shef.ac.uk/ccrepo) Feb. 2017
                 A. K. Wilson, D. E. Woon, K. A. Peterson, T. H. Dunning, Jr., J. Chem. Phys. 110, 7667 (1999)
             Y : Obtained from the ccRepo (grant-hill.group.shef.ac.uk/ccrepo) Feb. 2017
                 K. A. Peterson, D. Figgen, M. Dolg, H. Stoll, J. Chem. Phys. 126, 124101 (2007)
        Ag, Au : Obtained from the Peterson Research Group Website (tyr0.chem.wsu.edu/~kipeters) Feb. 2017
                 K. A. Peterson, C. Puzzarini, Theor. Chem. Acc. 114, 283 (2005)

----- AuxJ basis set information -----
Your calculation utilizes the auxiliary basis: aug-cc-pVTZ/JK 
  H, B-F, Al-Cl, Ga-Br : Obtained from the TURBOMOLE 7.0 basis set library

The basis set includes element-specific modifications.

Your calculation utilizes the auxiliary basis: cc-pVTZ/JK 
  H, B-F, Al-Cl, Ga-Br : Obtained from the TURBOMOLE 7.0 basis set library

----- AuxC basis set information -----
Your calculation utilizes the auxiliary basis: aug-cc-pVTZ/C 
  H-He, B-F, Al-Ar, Ga-Kr : Obtained from the EMSL Basis Set Exchange (bse.pnl.gov) Feb. 2017
                            F. Weigend, A. Kohn, C. Hattig, J. Chem. Phys. 116, 3175 (2002)
                   Be, Mg : Obtained from the TURBOMOLE 7.0 basis set library
                            C. Haettig, Phys. Chem. Chem. Phys. 7, 59 (2005)
                       Ne : Obtained from the EMSL Basis Set Exchange (bse.pnl.gov) Feb. 2017
                            C. Haettig, Phys. Chem. Chem. Phys. 7, 59 (2005)
                            F. Weigend, A. Kohn, C. Hattig, J. Chem. Phys. 116, 3175 (2002)
                    Sc-Zn : Obtained from the EMSL Basis Set Exchange (bse.pnl.gov) Feb. 2017
                            J. G. Hill, J. A. Platts, J. Chem. Phys. 128, 044104 (2008)

The basis set includes element-specific modifications.

Your calculation utilizes the auxiliary basis: cc-pVTZ/C 
  Obtained from the EMSL Basis Set Exchange (bse.pnl.gov) Feb. 2017
  H-He, B-F, Al-Ar, Ga-Kr : F. Weigend, A. Kohn, C. Hattig, J. Chem. Phys. 116, 3175 (2002)
             Li-Be, Na-Mg : C. Haettig, Phys. Chem. Chem. Phys. 7, 59 (2005)
                       Ne : C. Haettig, Phys. Chem. Chem. Phys. 7, 59 (2005)
                            F. Weigend, A. Kohn, C. Hattig, J. Chem. Phys. 116, 3175 (2002)
                    Sc-Zn : J. G. Hill, J. A. Platts, J. Chem. Phys. 128, 044104 (2008)

================================================================================
                                        WARNINGS
                       Please study these warnings very carefully!
================================================================================

INFO   : Checking CIS options ...
  ===> : (D) CORRECTION FOUND - SETTING MODE=3
  ===> : JK MODE FOUND - ACTIVATING RI-MP2 CODE
  ===> : MP2 AND CIS FOUND - CHECKING
WARNING: CIS(D) and MP2 runs must have the same orbital window
  ===> : adjusting orbital windows

WARNING: No MP2 level density has been requested!
         To caclulate MP2 level properties use
         %mp2 Density relaxed end
         or
         %mp2 Density unrelaxed end
         Otherwise for double-hybrid DFT only the energy is correct!

WARNING: The frozen-core approximation is turned on by default for 
         the MP2 part of double-hybrid DFT.

INFO   : the flag for use of the SHARK integral package has been found!

================================================================================
                                       INPUT FILE
================================================================================
NAME = optpbed3-b2gp-plyp-train-9.inp
|  1> ! pbe0 d3bj aug-cc-PVTZ RIJCOSX Opt
|  2> %maxcore 4000
|  3> %basis
|  4>  AuxJ "aug-cc-PVTZ/JK"
|  5>  AuxC "aug-cc-PVTZ/C"
|  6>  newGTO H "cc-PVTZ" end
|  7>  newAuxJGTO H "cc-PVTZ/JK" end
|  8>  newAuxCGTO H "cc-PVTZ/C" end
|  9> end
| 10> %cpcm
| 11>  SMD true
| 12>  SMDsolvent "ethanol"
| 13> end
| 14> %pal nprocs 4 end
| 15> * xyz 0 1
| 16> C          7.12240        0.31380        0.93620
| 17> C          7.04720       -0.89500        0.26000
| 18> C          5.82560       -1.30360       -0.24170
| 19> C          4.71310       -0.48310       -0.04800
| 20> C          3.39440       -0.87590       -0.56410
| 21> C          2.28230       -0.06300       -0.35560
| 22> C          1.04600       -0.46030       -0.85190
| 23> C         -0.14230        0.38970       -0.67970
| 24> C         -0.06840        1.71650       -1.09430
| 25> C         -1.16310        2.55170       -1.02380
| 26> C         -2.38110        2.08790       -0.52440
| 27> C         -3.53690        2.91930       -0.45830
| 28> C         -4.70800        2.45620        0.03560
| 29> C         -4.82820        1.11880        0.51500
| 30> C         -6.02550        0.62130        1.03210
| 31> C         -6.11000       -0.67930        1.49390
| 32> C         -5.00690       -1.51200        1.45450
| 33> C         -3.79000       -1.05750        0.94430
| 34> C         -2.62640       -1.87890        0.90620
| 35> C         -1.45830       -1.42460        0.39620
| 36> C         -1.33990       -0.10470       -0.13390
| 37> C         -2.46940        0.75050       -0.06460
| 38> C         -3.69360        0.27110        0.46340
| 39> C          0.98770       -1.66310       -1.55740
| 40> C          2.15180       -2.39780       -1.71110
| 41> N          3.32310       -2.02770       -1.23060
| 42> N          4.78920        0.67740        0.60100
| 43> C          5.95910        1.05720        1.07510
| 44> H          8.05560        0.67050        1.34400
| 45> H          7.92850       -1.50670        0.12780
| 46> H          5.70410       -2.23170       -0.77590
| 47> H          2.39840        0.85350        0.20020
| 48> H          0.86310        2.08330       -1.50140
| 49> H         -1.08620        3.57430       -1.36450
| 50> H         -3.45120        3.93570       -0.81640
| 51> H         -5.58000        3.09330        0.08060
| 52> H         -6.89140        1.26690        1.06840
| 53> H         -7.04520       -1.04710        1.89090
| 54> H         -5.07850       -2.52610        1.82120
| 55> H         -2.69730       -2.88080        1.30590
| 56> H         -0.58400       -2.05870        0.39990
| 57> H          0.05890       -2.00290       -1.99000
| 58> H          2.14800       -3.33640       -2.25140
| 59> H          5.96260        2.00800        1.59360
| 60> *
| 61> 
| 62> 
| 63> $new_job
| 64> ! b2gp-plyp aug-cc-PVTZ RIJCOSX SP
| 65> %maxcore 4000
| 66> %basis
| 67>  AuxJ "aug-cc-PVTZ/JK"
| 68>  AuxC "aug-cc-PVTZ/C"
| 69>  newGTO H "cc-PVTZ" end
| 70>  newAuxJGTO H "cc-PVTZ/JK" end
| 71>  newAuxCGTO H "cc-PVTZ/C" end
| 72> end
| 73> %cpcm
| 74>  SMD true
| 75>  SMDsolvent "ethanol"
| 76> end
| 77> %pal nprocs 4 end
| 78> %tddft
| 79>  nroots 10
| 80>  maxdim 7
| 81> end
| 82> * xyzfile 0 1
| 83> 
| 84>                          ****END OF INPUT****
================================================================================


                 $$$$$$$$$$$$$$$$$$$$$$$$$$$$$$$$$$$$$$$$$$$$$$ 
                 $ THERE ARE  2 JOBS TO BE PROCESSED THIS RUN $
                 $$$$$$$$$$$$$$$$$$$$$$$$$$$$$$$$$$$$$$$$$$$$$$ 




                 $$$$$$$$$$$$$$$$  JOB NUMBER  1 $$$$$$$$$$$$$$


                       *****************************
                       * Geometry Optimization Run *
                       *****************************

Geometry optimization settings:
Update method            Update   .... BFGS
Choice of coordinates    CoordSys .... Z-matrix Internals
Initial Hessian          InHess   .... Almoef's Model

Convergence Tolerances:
Energy Change            TolE     ....  5.0000e-06 Eh
Max. Gradient            TolMAXG  ....  3.0000e-04 Eh/bohr
RMS Gradient             TolRMSG  ....  1.0000e-04 Eh/bohr
Max. Displacement        TolMAXD  ....  4.0000e-03 bohr
RMS Displacement         TolRMSD  ....  2.0000e-03 bohr
Strict Convergence                ....  False
------------------------------------------------------------------------------
                        ORCA OPTIMIZATION COORDINATE SETUP
------------------------------------------------------------------------------

The optimization will be done in new redundant internal coordinates
Making redundant internal coordinates   ...  (new redundants) done
Evaluating the initial hessian          ...  (Almloef) done
Evaluating the coordinates              ...  done
Calculating the B-matrix                .... done
Calculating the G-matrix                .... done
Diagonalizing the G-matrix              .... done
Small eigenvalue found = 2.344e-03
Small eigenvalue found = 4.719e-03
Small eigenvalue found = 1.286e-02
Small eigenvalue found = 2.071e-02
Small eigenvalue found = 2.838e-02
The first mode is                       ....  127
The number of degrees of freedom        ....  126

    -----------------------------------------------------------------
                    Redundant Internal Coordinates


    -----------------------------------------------------------------
         Definition                    Initial Value    Approx d2E/dq
    -----------------------------------------------------------------
      1. B(C   1,C   0)                  1.3871         0.631444   
      2. B(C   2,C   1)                  1.3824         0.642543   
      3. B(C   3,C   2)                  1.3958         0.611513   
      4. B(C   4,C   3)                  1.4696         0.466442   
      5. B(C   5,C   4)                  1.3932         0.617463   
      6. B(C   6,C   5)                  1.3902         0.624385   
      7. B(C   7,C   6)                  1.4711         0.463776   
      8. B(C   8,C   7)                  1.3920         0.620150   
      9. B(C   9,C   8)                  1.3787         0.651206   
     10. B(C  10,C   9)                  1.3957         0.611804   
     11. B(C  11,C  10)                  1.4253         0.548815   
     12. B(C  12,C  11)                  1.3527         0.716478   
     13. B(C  13,C  12)                  1.4258         0.547796   
     14. B(C  14,C  13)                  1.3959         0.611489   
     15. B(C  15,C  14)                  1.3827         0.641693   
     16. B(C  16,C  15)                  1.3827         0.641854   
     17. B(C  17,C  16)                  1.3956         0.612058   
     18. B(C  18,C  17)                  1.4248         0.549774   
     19. B(C  19,C  18)                  1.3531         0.715436   
     20. B(C  20,C  19)                  1.4273         0.544807   
     21. B(C  20,C   7)                  1.4059         0.589332   
     22. B(C  21,C  20)                  1.4184         0.562837   
     23. B(C  21,C  10)                  1.4170         0.565826   
     24. B(C  22,C  21)                  1.4168         0.566250   
     25. B(C  22,C  17)                  1.4162         0.567380   
     26. B(C  22,C  13)                  1.4172         0.565296   
     27. B(C  23,C   6)                  1.3957         0.611947   
     28. B(C  24,C  23)                  1.3851         0.636116   
     29. B(N  25,C  24)                  1.3190         0.726322   
     30. B(N  25,C   4)                  1.3326         0.690841   
     31. B(N  26,C   3)                  1.3318         0.692936   
     32. B(C  27,N  26)                  1.3182         0.728463   
     33. B(C  27,C   0)                  1.3875         0.630521   
     34. B(H  28,C   0)                  1.0791         0.374849   
     35. B(H  29,C   1)                  1.0809         0.372343   
     36. B(H  30,C   2)                  1.0777         0.376703   
     37. B(H  31,C   5)                  1.0781         0.376149   
     38. B(H  32,C   8)                  1.0807         0.372582   
     39. B(H  33,C   9)                  1.0806         0.372749   
     40. B(H  34,C  11)                  1.0810         0.372149   
     41. B(H  35,C  12)                  1.0809         0.372367   
     42. B(H  36,C  14)                  1.0807         0.372623   
     43. B(H  37,C  15)                  1.0805         0.372886   
     44. B(H  38,C  16)                  1.0807         0.372564   
     45. B(H  39,C  18)                  1.0810         0.372186   
     46. B(H  40,C  19)                  1.0800         0.373513   
     47. B(H  41,C  23)                  1.0795         0.374290   
     48. B(H  42,C  24)                  1.0830         0.369468   
     49. B(H  43,C  27)                  1.0830         0.369489   
     50. A(C   1,C   0,H  28)          121.2773         0.356422   
     51. A(C   1,C   0,C  27)          118.0505         0.436820   
     52. A(C  27,C   0,H  28)          120.6722         0.356334   
     53. A(C   0,C   1,C   2)          118.8429         0.438310   
     54. A(C   0,C   1,H  29)          120.5698         0.356017   
     55. A(C   2,C   1,H  29)          120.5874         0.357072   
     56. A(C   1,C   2,C   3)          118.6987         0.435783   
     57. A(C   1,C   2,H  30)          122.2800         0.357779   
     58. A(C   3,C   2,H  30)          119.0213         0.354785   
     59. A(C   2,C   3,N  26)          122.2951         0.438858   
     60. A(C   4,C   3,N  26)          117.0853         0.418058   
     61. A(C   2,C   3,C   4)          120.6195         0.411532   
     62. A(C   3,C   4,N  25)          117.0437         0.417832   
     63. A(C   3,C   4,C   5)          120.5152         0.412240   
     64. A(C   5,C   4,N  25)          122.4410         0.439385   
     65. A(C   4,C   5,C   6)          119.3204         0.434296   
     66. A(C   6,C   5,H  31)          121.5173         0.355952   
     67. A(C   4,C   5,H  31)          119.1561         0.355279   
     68. A(C   5,C   6,C   7)          120.7587         0.412637   
     69. A(C   5,C   6,C  23)          117.6398         0.433596   
     70. A(C   7,C   6,C  23)          121.5590         0.411166   
     71. A(C   6,C   7,C   8)          118.2272         0.412138   
     72. A(C   6,C   7,C  20)          122.0275         0.408432   
     73. A(C   8,C   7,C  20)          119.7376         0.430145   
     74. A(C   9,C   8,H  32)          119.8690         0.357925   
     75. A(C   7,C   8,C   9)          121.3327         0.437942   
     76. A(C   7,C   8,H  32)          118.7800         0.354967   
     77. A(C  10,C   9,H  33)          119.2998         0.354179   
     78. A(C   8,C   9,C  10)          120.6563         0.436873   
     79. A(C   8,C   9,H  33)          120.0419         0.357952   
     80. A(C  11,C  10,C  21)          119.0107         0.417796   
     81. A(C   9,C  10,C  21)          118.9551         0.425982   
     82. A(C   9,C  10,C  11)          122.0338         0.423662   
     83. A(C  12,C  11,H  34)          120.7606         0.363730   
     84. A(C  10,C  11,C  12)          121.2837         0.435841   
     85. A(C  10,C  11,H  34)          117.9558         0.347643   
     86. A(C  11,C  12,H  35)          120.7866         0.363766   
     87. A(C  11,C  12,C  13)          121.1223         0.435695   
     88. A(C  13,C  12,H  35)          118.0908         0.347569   
     89. A(C  14,C  13,C  22)          119.1433         0.425871   
     90. A(C  12,C  13,C  22)          118.7714         0.417588   
     91. A(C  12,C  13,C  14)          122.0854         0.423482   
     92. A(C  13,C  14,C  15)          120.7558         0.435676   
     93. A(C  13,C  14,H  36)          119.1300         0.354128   
     94. A(C  15,C  14,H  36)          120.1142         0.357037   
     95. A(C  14,C  15,C  16)          120.5438         0.439500   
     96. A(C  16,C  15,H  37)          119.7349         0.357095   
     97. A(C  14,C  15,H  37)          119.7212         0.357080   
     98. A(C  17,C  16,H  38)          119.1694         0.354174   
     99. A(C  15,C  16,H  38)          120.1711         0.357043   
    100. A(C  15,C  16,C  17)          120.6595         0.435769   
    101. A(C  18,C  17,C  22)          118.4343         0.418130   
    102. A(C  16,C  17,C  22)          119.2748         0.426223   
    103. A(C  16,C  17,C  18)          122.2844         0.423825   
    104. A(C  17,C  18,C  19)          121.4343         0.435864   
    105. A(C  19,C  18,H  39)          120.4740         0.363646   
    106. A(C  17,C  18,H  39)          118.0897         0.347751   
    107. A(C  18,C  19,C  20)          121.4715         0.435152   
    108. A(C  20,C  19,H  40)          118.4930         0.347428   
    109. A(C  18,C  19,H  40)          120.0269         0.363867   
    110. A(C  19,C  20,C  21)          118.2522         0.416858   
    111. A(C   7,C  20,C  21)          119.0297         0.422739   
    112. A(C   7,C  20,C  19)          122.6870         0.420289   
    113. A(C  10,C  21,C  20)          120.2372         0.419679   
    114. A(C  20,C  21,C  22)          120.1495         0.419735   
    115. A(C  10,C  21,C  22)          119.6132         0.420132   
    116. A(C  17,C  22,C  21)          120.1850         0.420337   
    117. A(C  13,C  22,C  21)          120.1937         0.420061   
    118. A(C  13,C  22,C  17)          119.6212         0.420211   
    119. A(C   6,C  23,C  24)          118.5624         0.435051   
    120. A(C  24,C  23,H  41)          120.7762         0.356778   
    121. A(C   6,C  23,H  41)          120.6507         0.354441   
    122. A(C  23,C  24,N  25)          123.8529         0.445775   
    123. A(N  25,C  24,H  42)          115.3425         0.361865   
    124. A(C  23,C  24,H  42)          120.8044         0.355994   
    125. A(C   4,N  25,C  24)          118.1781         0.449511   
    126. A(C   3,N  26,C  27)          118.4913         0.449998   
    127. A(C   0,C  27,N  26)          123.6215         0.445299   
    128. A(N  26,C  27,H  43)          115.3411         0.362050   
    129. A(C   0,C  27,H  43)          121.0373         0.355464   
    130. D(C   2,C   1,C   0,H  28)    179.9868         0.027654   
    131. D(H  29,C   1,C   0,C  27)    179.9721         0.027654   
    132. D(H  29,C   1,C   0,H  28)     -0.0099         0.027654   
    133. D(C   2,C   1,C   0,C  27)     -0.0312         0.027654   
    134. D(C   3,C   2,C   1,H  29)    179.9809         0.028700   
    135. D(C   3,C   2,C   1,C   0)     -0.0158         0.028700   
    136. D(H  30,C   2,C   1,H  29)     -0.0284         0.028700   
    137. D(H  30,C   2,C   1,C   0)    179.9749         0.028700   
    138. D(N  26,C   3,C   2,C   1)      0.0633         0.025834   
    139. D(N  26,C   3,C   2,H  30)   -179.9277         0.025834   
    140. D(C   4,C   3,C   2,C   1)    179.9665         0.025834   
    141. D(C   4,C   3,C   2,H  30)     -0.0245         0.025834   
    142. D(N  25,C   4,C   3,N  26)    179.0300         0.014817   
    143. D(N  25,C   4,C   3,C   2)     -0.8781         0.014817   
    144. D(C   5,C   4,C   3,C   2)    179.2253         0.014817   
    145. D(C   5,C   4,C   3,N  26)     -0.8666         0.014817   
    146. D(H  31,C   5,C   4,N  25)    179.3717         0.026369   
    147. D(C   6,C   5,C   4,N  25)      0.2665         0.026369   
    148. D(H  31,C   5,C   4,C   3)     -0.7374         0.026369   
    149. D(C   6,C   5,C   4,C   3)   -179.8426         0.026369   
    150. D(C  23,C   6,C   5,H  31)   -179.8554         0.027000   
    151. D(C   7,C   6,C   5,H  31)      2.4770         0.027000   
    152. D(C  23,C   6,C   5,C   4)     -0.7720         0.027000   
    153. D(C   7,C   6,C   5,C   4)   -178.4397         0.027000   
    154. D(C  20,C   7,C   6,C   5)   -127.9699         0.014649   
    155. D(C  20,C   7,C   6,C  23)     54.4550         0.014649   
    156. D(C   8,C   7,C   6,C   5)     53.0463         0.014649   
    157. D(C   8,C   7,C   6,C  23)   -124.5289         0.014649   
    158. D(C   9,C   8,C   7,C  20)     -2.2308         0.026613   
    159. D(C   9,C   8,C   7,C   6)    176.7770         0.026613   
    160. D(H  32,C   8,C   7,C   6)     -1.6669         0.026613   
    161. D(H  32,C   8,C   7,C  20)    179.3252         0.026613   
    162. D(H  33,C   9,C   8,H  32)     -0.7035         0.029534   
    163. D(H  33,C   9,C   8,C   7)   -179.1308         0.029534   
    164. D(C  10,C   9,C   8,H  32)    178.7882         0.029534   
    165. D(C  10,C   9,C   8,C   7)      0.3609         0.029534   
    166. D(C  21,C  10,C   9,H  33)   -179.2435         0.025860   
    167. D(C  21,C  10,C   9,C   8)      1.2610         0.025860   
    168. D(C  11,C  10,C   9,H  33)      0.5251         0.025860   
    169. D(C  11,C  10,C   9,C   8)   -178.9703         0.025860   
    170. D(H  34,C  11,C  10,C  21)   -179.8209         0.020602   
    171. D(H  34,C  11,C  10,C   9)      0.4105         0.020602   
    172. D(C  12,C  11,C  10,C   9)   -179.6256         0.020602   
    173. D(C  12,C  11,C  10,C  21)      0.1429         0.020602   
    174. D(H  35,C  12,C  11,H  34)      0.0561         0.036300   
    175. D(H  35,C  12,C  11,C  10)   -179.9068         0.036300   
    176. D(C  13,C  12,C  11,H  34)   -179.7407         0.036300   
    177. D(C  13,C  12,C  11,C  10)      0.2964         0.036300   
    178. D(C  22,C  13,C  12,H  35)   -179.9692         0.020523   
    179. D(C  14,C  13,C  12,H  35)      0.0135         0.020523   
    180. D(C  14,C  13,C  12,C  11)    179.8156         0.020523   
    181. D(C  22,C  13,C  12,C  11)     -0.1671         0.020523   
    182. D(H  36,C  14,C  13,C  22)   -179.8043         0.025832   
    183. D(H  36,C  14,C  13,C  12)      0.2130         0.025832   
    184. D(C  15,C  14,C  13,C  22)      0.2080         0.025832   
    185. D(C  15,C  14,C  13,C  12)   -179.7747         0.025832   
    186. D(H  37,C  15,C  14,H  36)      0.0076         0.028619   
    187. D(H  37,C  15,C  14,C  13)    179.9952         0.028619   
    188. D(C  16,C  15,C  14,H  36)   -179.8506         0.028619   
    189. D(C  16,C  15,C  14,C  13)      0.1370         0.028619   
    190. D(H  38,C  16,C  15,C  14)    179.7213         0.028635   
    191. D(C  17,C  16,C  15,H  37)    179.9227         0.028635   
    192. D(C  17,C  16,C  15,C  14)     -0.2191         0.028635   
    193. D(H  38,C  16,C  15,H  37)     -0.1369         0.028635   
    194. D(C  22,C  17,C  16,H  38)   -179.9881         0.025883   
    195. D(C  22,C  17,C  16,C  15)     -0.0471         0.025883   
    196. D(C  18,C  17,C  16,H  38)     -0.9317         0.025883   
    197. D(C  18,C  17,C  16,C  15)    179.0092         0.025883   
    198. D(H  39,C  18,C  17,C  22)    177.9337         0.020676   
    199. D(H  39,C  18,C  17,C  16)     -1.1302         0.020676   
    200. D(C  19,C  18,C  17,C  22)     -1.5589         0.020676   
    201. D(C  19,C  18,C  17,C  16)    179.3771         0.020676   
    202. D(H  40,C  19,C  18,H  39)     -0.9267         0.036186   
    203. D(H  40,C  19,C  18,C  17)    178.5540         0.036186   
    204. D(C  20,C  19,C  18,H  39)   -179.8429         0.036186   
    205. D(C  20,C  19,C  18,C  17)     -0.3622         0.036186   
    206. D(C  21,C  20,C  19,H  40)   -176.3503         0.020292   
    207. D(C  21,C  20,C  19,C  18)      2.5820         0.020292   
    208. D(C   7,C  20,C  19,H  40)      1.6000         0.020292   
    209. D(C   7,C  20,C  19,C  18)   -179.4677         0.020292   
    210. D(C  21,C  20,C   7,C   8)      2.4123         0.023898   
    211. D(C  21,C  20,C   7,C   6)   -176.5566         0.023898   
    212. D(C  19,C  20,C   7,C   8)   -175.5228         0.023898   
    213. D(C  19,C  20,C   7,C   6)      5.5083         0.023898   
    214. D(C  22,C  21,C  20,C  19)     -2.8713         0.021708   
    215. D(C  22,C  21,C  20,C   7)    179.1016         0.021708   
    216. D(C  10,C  21,C  20,C  19)    177.2207         0.021708   
    217. D(C  10,C  21,C  20,C   7)     -0.8064         0.021708   
    218. D(C  22,C  21,C  10,C  11)     -0.7045         0.021949   
    219. D(C  22,C  21,C  10,C   9)    179.0713         0.021949   
    220. D(C  20,C  21,C  10,C  11)    179.2040         0.021949   
    221. D(C  20,C  21,C  10,C   9)     -1.0203         0.021949   
    222. D(C  17,C  22,C  21,C  20)      1.0103         0.021983   
    223. D(C  13,C  22,C  21,C  20)   -179.0734         0.021983   
    224. D(C  13,C  22,C  21,C  10)      0.8351         0.021983   
    225. D(C  21,C  22,C  17,C  18)      1.2138         0.022074   
    226. D(C  21,C  22,C  17,C  16)   -179.6934         0.022074   
    227. D(C  13,C  22,C  17,C  18)   -178.7030         0.022074   
    228. D(C  13,C  22,C  17,C  16)      0.3898         0.022074   
    229. D(C  21,C  22,C  13,C  14)    179.6145         0.021906   
    230. D(C  21,C  22,C  13,C  12)     -0.4023         0.021906   
    231. D(C  17,C  22,C  21,C  10)   -179.0812         0.021983   
    232. D(C  17,C  22,C  13,C  14)     -0.4686         0.021906   
    233. D(C  17,C  22,C  13,C  12)    179.5146         0.021906   
    234. D(H  41,C  23,C   6,C   7)     -0.4633         0.025873   
    235. D(H  41,C  23,C   6,C   5)   -178.1111         0.025873   
    236. D(C  24,C  23,C   6,C   7)    178.3587         0.025873   
    237. D(C  24,C  23,C   6,C   5)      0.7109         0.025873   
    238. D(H  42,C  24,C  23,H  41)     -1.2109         0.028091   
    239. D(H  42,C  24,C  23,C   6)    179.9686         0.028091   
    240. D(N  25,C  24,C  23,H  41)    178.6823         0.028091   
    241. D(N  25,C  24,C  23,C   6)     -0.1381         0.028091   
    242. D(C   4,N  25,C  24,H  42)    179.5121         0.039796   
    243. D(C   4,N  25,C  24,C  23)     -0.3865         0.039796   
    244. D(C  24,N  25,C   4,C   5)      0.3203         0.035651   
    245. D(C  24,N  25,C   4,C   3)   -179.5742         0.035651   
    246. D(C  27,N  26,C   3,C   4)   -179.9655         0.035888   
    247. D(C  27,N  26,C   3,C   2)     -0.0591         0.035888   
    248. D(H  43,C  27,N  26,C   3)   -179.9887         0.040056   
    249. D(C   0,C  27,N  26,C   3)      0.0079         0.040056   
    250. D(H  43,C  27,C   0,H  28)      0.0158         0.027568   
    251. D(H  43,C  27,C   0,C   1)   -179.9664         0.027568   
    252. D(N  26,C  27,C   0,H  28)   -179.9807         0.027568   
    253. D(N  26,C  27,C   0,C   1)      0.0372         0.027568   
    -----------------------------------------------------------------

Number of atoms                         .... 44
Number of degrees of freedom            .... 253

         *************************************************************
         *                GEOMETRY OPTIMIZATION CYCLE   1            *
         *************************************************************
---------------------------------
CARTESIAN COORDINATES (ANGSTROEM)
---------------------------------
  C      7.122400    0.313800    0.936200
  C      7.047200   -0.895000    0.260000
  C      5.825600   -1.303600   -0.241700
  C      4.713100   -0.483100   -0.048000
  C      3.394400   -0.875900   -0.564100
  C      2.282300   -0.063000   -0.355600
  C      1.046000   -0.460300   -0.851900
  C     -0.142300    0.389700   -0.679700
  C     -0.068400    1.716500   -1.094300
  C     -1.163100    2.551700   -1.023800
  C     -2.381100    2.087900   -0.524400
  C     -3.536900    2.919300   -0.458300
  C     -4.708000    2.456200    0.035600
  C     -4.828200    1.118800    0.515000
  C     -6.025500    0.621300    1.032100
  C     -6.110000   -0.679300    1.493900
  C     -5.006900   -1.512000    1.454500
  C     -3.790000   -1.057500    0.944300
  C     -2.626400   -1.878900    0.906200
  C     -1.458300   -1.424600    0.396200
  C     -1.339900   -0.104700   -0.133900
  C     -2.469400    0.750500   -0.064600
  C     -3.693600    0.271100    0.463400
  C      0.987700   -1.663100   -1.557400
  C      2.151800   -2.397800   -1.711100
  N      3.323100   -2.027700   -1.230600
  N      4.789200    0.677400    0.601000
  C      5.959100    1.057200    1.075100
  H      8.055600    0.670500    1.344000
  H      7.928500   -1.506700    0.127800
  H      5.704100   -2.231700   -0.775900
  H      2.398400    0.853500    0.200200
  H      0.863100    2.083300   -1.501400
  H     -1.086200    3.574300   -1.364500
  H     -3.451200    3.935700   -0.816400
  H     -5.580000    3.093300    0.080600
  H     -6.891400    1.266900    1.068400
  H     -7.045200   -1.047100    1.890900
  H     -5.078500   -2.526100    1.821200
  H     -2.697300   -2.880800    1.305900
  H     -0.584000   -2.058700    0.399900
  H      0.058900   -2.002900   -1.990000
  H      2.148000   -3.336400   -2.251400
  H      5.962600    2.008000    1.593600

----------------------------
CARTESIAN COORDINATES (A.U.)
----------------------------
  NO LB      ZA    FRAG     MASS         X           Y           Z
   0 C     6.0000    0    12.011   13.459385    0.592996    1.769162
   1 C     6.0000    0    12.011   13.317278   -1.691305    0.491329
   2 C     6.0000    0    12.011   11.008789   -2.463447   -0.456747
   3 C     6.0000    0    12.011    8.906468   -0.912927   -0.090707
   4 C     6.0000    0    12.011    6.414486   -1.655211   -1.065995
   5 C     6.0000    0    12.011    4.312922   -0.119053   -0.671987
   6 C     6.0000    0    12.011    1.976654   -0.869841   -1.609858
   7 C     6.0000    0    12.011   -0.268908    0.736426   -1.284447
   8 C     6.0000    0    12.011   -0.129257    3.243715   -2.067927
   9 C     6.0000    0    12.011   -2.197940    4.822014   -1.934702
  10 C     6.0000    0    12.011   -4.499627    3.945559   -0.990972
  11 C     6.0000    0    12.011   -6.683772    5.516678   -0.866061
  12 C     6.0000    0    12.011   -8.896831    4.641545    0.067274
  13 C     6.0000    0    12.011   -9.123976    2.114226    0.973209
  14 C     6.0000    0    12.011  -11.386545    1.174087    1.950386
  15 C     6.0000    0    12.011  -11.546227   -1.283691    2.823062
  16 C     6.0000    0    12.011   -9.461670   -2.857266    2.748607
  17 C     6.0000    0    12.011   -7.162062   -1.998385    1.784468
  18 C     6.0000    0    12.011   -4.963177   -3.550606    1.712470
  19 C     6.0000    0    12.011   -2.755788   -2.692104    0.748709
  20 C     6.0000    0    12.011   -2.532044   -0.197854   -0.253034
  21 C     6.0000    0    12.011   -4.666490    1.418239   -0.122076
  22 C     6.0000    0    12.011   -6.979892    0.512305    0.875699
  23 C     6.0000    0    12.011    1.866483   -3.142804   -2.943059
  24 C     6.0000    0    12.011    4.066313   -4.531185   -3.233510
  25 N     7.0000    0    14.007    6.279749   -3.831798   -2.325497
  26 N     7.0000    0    14.007    9.050276    1.280100    1.135725
  27 C     6.0000    0    12.011   11.261067    1.997818    2.031645
  28 H     1.0000    0     1.008   15.222878    1.267061    2.539792
  29 H     1.0000    0     1.008   14.982694   -2.847250    0.241507
  30 H     1.0000    0     1.008   10.779187   -4.217302   -1.466239
  31 H     1.0000    0     1.008    4.532319    1.612881    0.378323
  32 H     1.0000    0     1.008    1.631023    3.936866   -2.837235
  33 H     1.0000    0     1.008   -2.052621    6.754448   -2.578531
  34 H     1.0000    0     1.008   -6.521823    7.437395   -1.542772
  35 H     1.0000    0     1.008  -10.544672    5.845490    0.152312
  36 H     1.0000    0     1.008  -13.022859    2.394094    2.018983
  37 H     1.0000    0     1.008  -13.313499   -1.978732    3.573283
  38 H     1.0000    0     1.008   -9.596974   -4.773637    3.441569
  39 H     1.0000    0     1.008   -5.097158   -5.443923    2.467793
  40 H     1.0000    0     1.008   -1.103600   -3.890379    0.755701
  41 H     1.0000    0     1.008    0.111305   -3.784932   -3.760555
  42 H     1.0000    0     1.008    4.059132   -6.304882   -4.254529
  43 H     1.0000    0     1.008   11.267681    3.794570    3.011468

--------------------------------
INTERNAL COORDINATES (ANGSTROEM)
--------------------------------
 C      0   0   0     0.000000000000     0.00000000     0.00000000
 C      1   0   0     1.387118927850     0.00000000     0.00000000
 C      2   1   0     1.382376001672   118.84287915     0.00000000
 C      3   2   1     1.395849630154   118.69866004     0.00000000
 C      4   3   2     1.469564813133   120.61948691   179.96651790
 C      5   4   3     1.393213935474   120.51523458   179.22530536
 C      6   5   4     1.390179366125   119.32039357   180.15739288
 C      7   6   5     1.471125327768   120.75872338   181.56031522
 C      8   7   6     1.392031827941   118.22717470    53.04626974
 C      9   8   7     1.378730350721   121.33269656   176.77702284
 C     10   9   8     1.395720172527   120.65629933     0.36091348
 C     11  10   9     1.425296042933   122.03381163   181.02968735
 C     12  11  10     1.352728365194   121.28365673   180.37443265
 C     13  12  11     1.425801935754   121.12228436     0.29642261
 C     14  13  12     1.395860290287   122.08536958   179.81559319
 C     15  14  13     1.382736363158   120.75576439   180.22533171
 C     16  15  14     1.382668166987   120.54375201     0.13701412
 C     17  16  15     1.395607358823   120.65950005   359.78091707
 C     18  17  16     1.424820876461   122.28440890   179.00923062
 C     19  18  17     1.353124569284   121.43427833   179.37710845
 C      8   7   6     1.405907095081   122.02747912   232.03011937
 C     11  10   9     1.416986834801   118.95507276     1.26104974
 C     18  17  16     1.416239997317   119.27478338   359.95286316
 C      7   6   5     1.395656469193   117.63984351   359.22796538
 C     24   7   6     1.385112482797   118.56241848     0.71085718
 N     25  24   7     1.319014006749   123.85294622   359.86185979
 N      4   3   2     1.331822983733   122.29511879     0.06333591
 C     27   4   3     1.318212752176   118.49130483   359.94092236
 H      1   2   3     1.079072736195   121.27727187   179.98677067
 H      2   1   3     1.080899357017   120.56975910   180.00332689
 H      3   2   1     1.077729789882   122.28003827   179.97489668
 H      6   5   4     1.078130372450   119.15608482   359.26258547
 H      9   8   7     1.080724247900   118.78002251   358.33305782
 H     10   9   8     1.080602082175   120.04194178   180.86922966
 H     12  11  10     1.081040730037   117.95575689     0.41054991
 H     13  12  11     1.080881774294   120.78657136   180.09322708
 H     15  14  13     1.080694156549   119.13003375     0.21303881
 H     16  15  14     1.080502142524   119.72118733   179.99520575
 H     17  16  15     1.080737831299   120.17105752   179.72129494
 H     19  18  17     1.081013649313   118.08972863   358.86976749
 H     20  19  18     1.080044901844   120.02687393   178.55395892
 H     24   7   6     1.079479615370   120.65068184   181.88885800
 H     25  24   7     1.083008998116   120.80444392   179.96864062
 H     28  27   4     1.082993601089   115.34113278   180.01126613

---------------------------
INTERNAL COORDINATES (A.U.)
---------------------------
 C      0   0   0     0.000000000000     0.00000000     0.00000000
 C      1   0   0     2.621274888815     0.00000000     0.00000000
 C      2   1   0     2.612312057266   118.84287915     0.00000000
 C      3   2   1     2.637773525126   118.69866004     0.00000000
 C      4   3   2     2.777075032869   120.61948691   179.96651790
 C      5   4   3     2.632792784009   120.51523458   179.22530536
 C      6   5   4     2.627058279005   119.32039357   180.15739288
 C      7   6   5     2.780023978156   120.75872338   181.56031522
 C      8   7   6     2.630558924510   118.22717470    53.04626974
 C      9   8   7     2.605422775388   121.33269656   176.77702284
 C     10   9   8     2.637528885666   120.65629933     0.36091348
 C     11  10   9     2.693419180905   122.03381163   181.02968735
 C     12  11  10     2.556286143803   121.28365673   180.37443265
 C     13  12  11     2.694375179790   121.12228436     0.29642261
 C     14  13  12     2.637793669858   122.08536958   179.81559319
 C     15  14  13     2.612993041783   120.75576439   180.22533171
 C     16  15  14     2.612864169697   120.54375201     0.13701412
 C     17  16  15     2.637315698660   120.65950005   359.78091707
 C     18  17  16     2.692521246406   122.28440890   179.00923062
 C     19  18  17     2.557034861027   121.43427833   179.37710845
 C      8   7   6     2.656779379440   122.02747912   232.03011937
 C     11  10   9     2.677717053146   118.95507276     1.26104974
 C     18  17  16     2.676305734834   119.27478338   359.95286316
 C      7   6   5     2.637408503810   117.63984351   359.22796538
 C     24   7   6     2.617483257162   118.56241848     0.71085718
 N     25  24   7     2.492575239562   123.85294622   359.86185979
 N      4   3   2     2.516780698118   122.29511879     0.06333591
 C     27   4   3     2.491061087856   118.49130483   359.94092236
 H      1   2   3     2.039151949990   121.27727187   179.98677067
 H      2   1   3     2.042603763094   120.56975910   180.00332689
 H      3   2   1     2.036614149246   122.28003827   179.97489668
 H      6   5   4     2.037371140594   119.15608482   359.26258547
 H      9   8   7     2.042272854820   118.78002251   358.33305782
 H     10   9   8     2.042041995055   120.04194178   180.86922966
 H     12  11  10     2.042870919385   117.95575689     0.41054991
 H     13  12  11     2.042570536562   120.78657136   180.09322708
 H     15  14  13     2.042215990407   119.13003375     0.21303881
 H     16  15  14     2.041853136486   119.72118733   179.99520575
 H     17  16  15     2.042298523722   120.17105752   179.72129494
 H     19  18  17     2.042819744231   118.08972863   358.86976749
 H     20  19  18     2.040989076824   120.02687393   178.55395892
 H     24   7   6     2.039920840201   120.65068184   181.88885800
 H     25  24   7     2.046590407011   120.80444392   179.96864062
 H     28  27   4     2.046561310848   115.34113278   180.01126613

---------------------
BASIS SET INFORMATION
---------------------
There are 3 groups of distinct atoms

 Group   1 Type C   : 19s6p3d2f contracted to 5s4p3d2f pattern {88111/3111/111/11}
 Group   2 Type N   : 19s6p3d2f contracted to 5s4p3d2f pattern {88111/3111/111/11}
 Group   3 Type H   : 5s2p1d contracted to 3s2p1d pattern {311/11/1}

Atom   0C    basis set group =>   1
Atom   1C    basis set group =>   1
Atom   2C    basis set group =>   1
Atom   3C    basis set group =>   1
Atom   4C    basis set group =>   1
Atom   5C    basis set group =>   1
Atom   6C    basis set group =>   1
Atom   7C    basis set group =>   1
Atom   8C    basis set group =>   1
Atom   9C    basis set group =>   1
Atom  10C    basis set group =>   1
Atom  11C    basis set group =>   1
Atom  12C    basis set group =>   1
Atom  13C    basis set group =>   1
Atom  14C    basis set group =>   1
Atom  15C    basis set group =>   1
Atom  16C    basis set group =>   1
Atom  17C    basis set group =>   1
Atom  18C    basis set group =>   1
Atom  19C    basis set group =>   1
Atom  20C    basis set group =>   1
Atom  21C    basis set group =>   1
Atom  22C    basis set group =>   1
Atom  23C    basis set group =>   1
Atom  24C    basis set group =>   1
Atom  25N    basis set group =>   2
Atom  26N    basis set group =>   2
Atom  27C    basis set group =>   1
Atom  28H    basis set group =>   3
Atom  29H    basis set group =>   3
Atom  30H    basis set group =>   3
Atom  31H    basis set group =>   3
Atom  32H    basis set group =>   3
Atom  33H    basis set group =>   3
Atom  34H    basis set group =>   3
Atom  35H    basis set group =>   3
Atom  36H    basis set group =>   3
Atom  37H    basis set group =>   3
Atom  38H    basis set group =>   3
Atom  39H    basis set group =>   3
Atom  40H    basis set group =>   3
Atom  41H    basis set group =>   3
Atom  42H    basis set group =>   3
Atom  43H    basis set group =>   3
---------------------------------
AUXILIARY/J BASIS SET INFORMATION
---------------------------------
There are 3 groups of distinct atoms

 Group   1 Type C   : 10s7p5d2f1g contracted to 10s7p5d2f1g pattern {1111111111/1111111/11111/11/1}
 Group   2 Type N   : 10s7p5d2f1g contracted to 10s7p5d2f1g pattern {1111111111/1111111/11111/11/1}
 Group   3 Type H   : 4s3p2d1f contracted to 4s3p2d1f pattern {1111/111/11/1}

Atom   0C    basis set group =>   1
Atom   1C    basis set group =>   1
Atom   2C    basis set group =>   1
Atom   3C    basis set group =>   1
Atom   4C    basis set group =>   1
Atom   5C    basis set group =>   1
Atom   6C    basis set group =>   1
Atom   7C    basis set group =>   1
Atom   8C    basis set group =>   1
Atom   9C    basis set group =>   1
Atom  10C    basis set group =>   1
Atom  11C    basis set group =>   1
Atom  12C    basis set group =>   1
Atom  13C    basis set group =>   1
Atom  14C    basis set group =>   1
Atom  15C    basis set group =>   1
Atom  16C    basis set group =>   1
Atom  17C    basis set group =>   1
Atom  18C    basis set group =>   1
Atom  19C    basis set group =>   1
Atom  20C    basis set group =>   1
Atom  21C    basis set group =>   1
Atom  22C    basis set group =>   1
Atom  23C    basis set group =>   1
Atom  24C    basis set group =>   1
Atom  25N    basis set group =>   2
Atom  26N    basis set group =>   2
Atom  27C    basis set group =>   1
Atom  28H    basis set group =>   3
Atom  29H    basis set group =>   3
Atom  30H    basis set group =>   3
Atom  31H    basis set group =>   3
Atom  32H    basis set group =>   3
Atom  33H    basis set group =>   3
Atom  34H    basis set group =>   3
Atom  35H    basis set group =>   3
Atom  36H    basis set group =>   3
Atom  37H    basis set group =>   3
Atom  38H    basis set group =>   3
Atom  39H    basis set group =>   3
Atom  40H    basis set group =>   3
Atom  41H    basis set group =>   3
Atom  42H    basis set group =>   3
Atom  43H    basis set group =>   3
---------------------------------
AUXILIARY/C BASIS SET INFORMATION
---------------------------------
There are 3 groups of distinct atoms

 Group   1 Type C   : 9s7p6d4f2g contracted to 9s7p6d4f2g pattern {111111111/1111111/111111/1111/11}
 Group   2 Type N   : 9s7p6d4f2g contracted to 9s7p6d4f2g pattern {111111111/1111111/111111/1111/11}
 Group   3 Type H   : 4s3p2d1f contracted to 4s3p2d1f pattern {1111/111/11/1}

Atom   0C    basis set group =>   1
Atom   1C    basis set group =>   1
Atom   2C    basis set group =>   1
Atom   3C    basis set group =>   1
Atom   4C    basis set group =>   1
Atom   5C    basis set group =>   1
Atom   6C    basis set group =>   1
Atom   7C    basis set group =>   1
Atom   8C    basis set group =>   1
Atom   9C    basis set group =>   1
Atom  10C    basis set group =>   1
Atom  11C    basis set group =>   1
Atom  12C    basis set group =>   1
Atom  13C    basis set group =>   1
Atom  14C    basis set group =>   1
Atom  15C    basis set group =>   1
Atom  16C    basis set group =>   1
Atom  17C    basis set group =>   1
Atom  18C    basis set group =>   1
Atom  19C    basis set group =>   1
Atom  20C    basis set group =>   1
Atom  21C    basis set group =>   1
Atom  22C    basis set group =>   1
Atom  23C    basis set group =>   1
Atom  24C    basis set group =>   1
Atom  25N    basis set group =>   2
Atom  26N    basis set group =>   2
Atom  27C    basis set group =>   1
Atom  28H    basis set group =>   3
Atom  29H    basis set group =>   3
Atom  30H    basis set group =>   3
Atom  31H    basis set group =>   3
Atom  32H    basis set group =>   3
Atom  33H    basis set group =>   3
Atom  34H    basis set group =>   3
Atom  35H    basis set group =>   3
Atom  36H    basis set group =>   3
Atom  37H    basis set group =>   3
Atom  38H    basis set group =>   3
Atom  39H    basis set group =>   3
Atom  40H    basis set group =>   3
Atom  41H    basis set group =>   3
Atom  42H    basis set group =>   3
Atom  43H    basis set group =>   3


           ************************************************************
           *        Program running with 4 parallel MPI-processes     *
           *              working on a common directory               *
           ************************************************************
------------------------------------------------------------------------------
                           ORCA GTO INTEGRAL CALCULATION
                           -- RI-GTO INTEGRALS CHOSEN --
------------------------------------------------------------------------------
------------------------------------------------------------------------------
                   ___                                                        
                  /   \      - P O W E R E D   B Y -                         
                 /     \                                                     
                 |  |  |   _    _      __       _____    __    __             
                 |  |  |  | |  | |    /  \     |  _  \  |  |  /  |          
                  \  \/   | |  | |   /    \    | | | |  |  | /  /          
                 / \  \   | |__| |  /  /\  \   | |_| |  |  |/  /          
                |  |  |   |  __  | /  /__\  \  |    /   |      \           
                |  |  |   | |  | | |   __   |  |    \   |  |\   \          
                \     /   | |  | | |  |  |  |  | |\  \  |  | \   \       
                 \___/    |_|  |_| |__|  |__|  |_| \__\ |__|  \__/        
                                                                              
                      - O R C A' S   B I G   F R I E N D -                    
                                      &                                       
                       - I N T E G R A L  F E E D E R -                       
                                                                              
 v1 FN, 2020, v2 2021                                                         
------------------------------------------------------------------------------


Reading SHARK input file optpbed3-b2gp-plyp-train-9.SHARKINP.tmp ... ok
----------------------
SHARK INTEGRAL PACKAGE
----------------------

Number of atoms                             ...     44
Number of basis functions                   ...   1680
Number of shells                            ...    656
Maximum angular momentum                    ...      3
Integral batch strategy                     ... SHARK/LIBINT Hybrid
RI-J (if used) integral strategy            ... SPLIT-RIJ (Revised 2003 algorithm where possible)
Printlevel                                  ...      1
Contraction scheme used                     ... PARTIAL GENERAL contraction
Coulomb Range Separation                    ... NOT USED
Exchange Range Separation                   ... NOT USED
Finite Nucleus Model                        ... NOT USED
Auxiliary Coulomb fitting basis             ... AVAILABLE
   # of basis functions in Aux-J            ...   2692
   # of shells in Aux-J                     ...    860
   Maximum angular momentum in Aux-J        ...      4
Auxiliary J/K fitting basis                 ... NOT available
Auxiliary Correlation fitting basis         ... AVAILABLE
   # of basis functions in Aux-C            ...   3448
   # of shells in Aux-C                     ...    944
   Maximum angular momentum in Aux-C        ...      4
Auxiliary 'external' fitting basis          ... NOT available
Integral threshold                          ...     2.500000e-11
Primitive cut-off                           ...     2.500000e-12
Primitive pair pre-selection threshold      ...     2.500000e-12

Calculating pre-screening integrals         ... done (  0.5 sec) Dimension = 656
Calculating pre-screening integrals (ORCA)  ... done (  1.1 sec) Dimension = 488
Organizing shell pair data                  ... done (  1.8 sec)
Shell pair information
Total number of shell pairs                 ...    215496
Shell pairs after pre-screening             ...    124913
Total number of primitive shell pairs       ...    277272
Primitive shell pairs kept                  ...    144572
          la=0 lb=0:  27802 shell pairs
          la=1 lb=0:  32171 shell pairs
          la=1 lb=1:   7859 shell pairs
          la=2 lb=0:  20878 shell pairs
          la=2 lb=1:  10444 shell pairs
          la=2 lb=2:   3554 shell pairs
          la=3 lb=0:  11382 shell pairs
          la=3 lb=1:   5809 shell pairs
          la=3 lb=2:   3900 shell pairs
          la=3 lb=3:   1114 shell pairs

Calculating one electron integrals          ... done (  0.4 sec)
Calculating RI/J V-Matrix + Cholesky decomp.... done (  0.8 sec)
Calculating RI/C V-Matrix + Cholesky decomp.... done (  1.2 sec)
Calculating Nuclear repulsion               ... done (  0.0 sec) ENN=   2228.657283244216 Eh

SHARK setup successfully completed in   8.0 seconds

Maximum memory used throughout the entire GTOINT-calculation: 203.2 MB


           ************************************************************
           *        Program running with 4 parallel MPI-processes     *
           *              working on a common directory               *
           ************************************************************
-------------------------------------------------------------------------------
                                 ORCA SCF
-------------------------------------------------------------------------------

------------
SCF SETTINGS
------------
Hamiltonian:
 Density Functional     Method          .... DFT(GTOs)
 Exchange Functional    Exchange        .... PBE
   PBE kappa parameter   XKappa         ....  0.804000
   PBE mue parameter    XMuePBE         ....  0.219520
 Correlation Functional Correlation     .... PBE
   PBE beta parameter  CBetaPBE         ....  0.066725
 LDA part of GGA corr.  LDAOpt          .... PW91-LDA
 Gradients option       PostSCFGGA      .... off
 Hybrid DFT is turned on
   Fraction HF Exchange ScalHFX         ....  0.250000
   Scaling of DF-GGA-X  ScalDFX         ....  0.750000
   Scaling of DF-GGA-C  ScalDFC         ....  1.000000
   Scaling of DF-LDA-C  ScalLDAC        ....  1.000000
   Perturbative correction              ....  0.000000
   Density functional embedding theory  .... OFF
   NL short-range parameter             ....  6.900000
 RI-approximation to the Coulomb term is turned on
   Number of AuxJ basis functions       .... 2692
   RIJ-COSX (HFX calculated with COS-X)).... on


General Settings:
 Integral files         IntName         .... optpbed3-b2gp-plyp-train-9
 Hartree-Fock type      HFTyp           .... RHF
 Total Charge           Charge          ....    0
 Multiplicity           Mult            ....    1
 Number of Electrons    NEL             ....  186
 Basis Dimension        Dim             .... 1512
 Nuclear Repulsion      ENuc            ....   2228.6572832442 Eh

Convergence Acceleration:
 DIIS                   CNVDIIS         .... on
   Start iteration      DIISMaxIt       ....    12
   Startup error        DIISStart       ....  0.200000
   # of expansion vecs  DIISMaxEq       ....     5
   Bias factor          DIISBfac        ....   1.050
   Max. coefficient     DIISMaxC        ....  10.000
 Trust-Rad. Augm. Hess. CNVTRAH         .... auto
   Auto Start mean grad. ratio tolernc. ....  1.125000
   Auto Start start iteration           ....    20
   Auto Start num. interpolation iter.  ....    10
   Max. Number of Micro iterations      ....    16
   Max. Number of Macro iterations      .... Maxiter - #DIIS iter
   Number of Davidson start vectors     ....     2
   Converg. threshold I  (grad. norm)   ....   1.000e-05
   Converg. threshold II (energy diff.) ....   1.000e-08
   Grad. Scal. Fac. for Micro threshold ....   0.100
   Minimum threshold for Micro iter.    ....   0.010
   NR start threshold (gradient norm)   ....   0.001
   Initial trust radius                 ....   0.400
   Minimum AH scaling param. (alpha)    ....   1.000
   Maximum AH scaling param. (alpha)    .... 1000.000
   Orbital update algorithm             .... Taylor
   White noise on init. David. guess    .... on
   Maximum white noise                  ....   0.010
   Quad. conv. algorithm                .... NR
 SOSCF                  CNVSOSCF        .... on
   Start iteration      SOSCFMaxIt      ....   150
   Startup grad/error   SOSCFStart      ....  0.003300
 Level Shifting         CNVShift        .... on
   Level shift para.    LevelShift      ....    0.2500
   Turn off err/grad.   ShiftErr        ....    0.0010
 Zerner damping         CNVZerner       .... off
 Static damping         CNVDamp         .... on
   Fraction old density DampFac         ....    0.7000
   Max. Damping (<1)    DampMax         ....    0.9800
   Min. Damping (>=0)   DampMin         ....    0.0000
   Turn off err/grad.   DampErr         ....    0.1000
 Fernandez-Rico         CNVRico         .... off

SCF Procedure:
 Maximum # iterations   MaxIter         ....   125
 SCF integral mode      SCFMode         .... Direct
   Integral package                     .... SHARK and LIBINT hybrid scheme
 Reset frequency        DirectResetFreq ....    20
 Integral Threshold     Thresh          ....  2.500e-11 Eh
 Primitive CutOff       TCut            ....  2.500e-12 Eh

Convergence Tolerance:
 Convergence Check Mode ConvCheckMode   .... Total+1el-Energy
 Convergence forced     ConvForced      .... 0
 Energy Change          TolE            ....  1.000e-08 Eh
 1-El. energy change                    ....  1.000e-05 Eh
 Orbital Gradient       TolG            ....  1.000e-05
 Orbital Rotation angle TolX            ....  1.000e-05
 DIIS Error             TolErr          ....  5.000e-07


Diagonalization of the overlap matrix:
Smallest eigenvalue                        ... 1.156e-07
Time for diagonalization                   ...    0.635 sec
Threshold for overlap eigenvalues          ... 1.000e-08
Number of eigenvalues below threshold      ... 0
Time for construction of square roots      ...    0.449 sec
Total time needed                          ...    1.096 sec

Time for model grid setup =    1.284 sec

------------------------------
INITIAL GUESS: MODEL POTENTIAL
------------------------------
Loading Hartree-Fock densities                     ... done
Calculating cut-offs                               ... done
Initializing the effective Hamiltonian             ... done
Setting up the integral package (SHARK)            ... done
Starting the Coulomb interaction                   ... done (   6.4 sec)
Reading the grid                                   ... done
Mapping shells                                     ... done
Starting the XC term evaluation                    ... done (   4.1 sec)
  promolecular density results
     # of electrons  =    186.004711032
     EX              =   -150.934655782
     EC              =     -6.276571236
     EX+EC           =   -157.211227019
Transforming the Hamiltonian                       ... done (   0.4 sec)
Diagonalizing the Hamiltonian                      ... done (   0.7 sec)
Back transforming the eigenvectors                 ... done (   0.2 sec)
Now organizing SCF variables                       ... done
                      ------------------
                      INITIAL GUESS DONE (  13.1 sec)
                      ------------------
-------------------
DFT GRID GENERATION
-------------------

General Integration Accuracy     IntAcc      ... 4.388
Radial Grid Type                 RadialGrid  ... OptM3 with GC (2021)
Angular Grid (max. ang.)         AngularGrid ... 4 (Lebedev-302)
Angular grid pruning method      GridPruning ... 4 (adaptive)
Weight generation scheme         WeightScheme... Becke
Basis function cutoff            BFCut       ... 1.0000e-11
Integration weight cutoff        WCut        ... 1.0000e-14
Angular grids for H and He will be reduced by one unit
Partially contracted basis set               ... off
Rotationally invariant grid construction     ... off

Total number of grid points                  ...   224357
Total number of batches                      ...     3527
Average number of points per batch           ...       63
Average number of grid points per atom       ...     5099
Time for grid setup =    4.147 sec

--------------------
COSX GRID GENERATION
--------------------

GRIDX 1
-------
General Integration Accuracy     IntAcc      ... 3.816
Radial Grid Type                 RadialGrid  ... OptM3 with GC (2021)
Angular Grid (max. ang.)         AngularGrid ... 1 (Lebedev-50)
Angular grid pruning method      GridPruning ... 4 (adaptive)
Weight generation scheme         WeightScheme... Becke
Basis function cutoff            BFCut       ... 1.0000e-11
Integration weight cutoff        WCut        ... 1.0000e-14
Angular grids for H and He will be reduced by one unit
Partially contracted basis set               ... on
Rotationally invariant grid construction     ... off

Total number of grid points                  ...    28444
Total number of batches                      ...      469
Average number of points per batch           ...       60
Average number of grid points per atom       ...      646
UseSFitting                                  ... on

GRIDX 2
-------
General Integration Accuracy     IntAcc      ... 4.020
Radial Grid Type                 RadialGrid  ... OptM3 with GC (2021)
Angular Grid (max. ang.)         AngularGrid ... 2 (Lebedev-110)
Angular grid pruning method      GridPruning ... 4 (adaptive)
Weight generation scheme         WeightScheme... Becke
Basis function cutoff            BFCut       ... 1.0000e-11
Integration weight cutoff        WCut        ... 1.0000e-14
Angular grids for H and He will be reduced by one unit
Partially contracted basis set               ... on
Rotationally invariant grid construction     ... off

Total number of grid points                  ...    67736
Total number of batches                      ...     1079
Average number of points per batch           ...       62
Average number of grid points per atom       ...     1539
UseSFitting                                  ... on

GRIDX 3
-------
General Integration Accuracy     IntAcc      ... 4.338
Radial Grid Type                 RadialGrid  ... OptM3 with GC (2021)
Angular Grid (max. ang.)         AngularGrid ... 3 (Lebedev-194)
Angular grid pruning method      GridPruning ... 4 (adaptive)
Weight generation scheme         WeightScheme... Becke
Basis function cutoff            BFCut       ... 1.0000e-11
Integration weight cutoff        WCut        ... 1.0000e-14
Angular grids for H and He will be reduced by one unit
Partially contracted basis set               ... on
Rotationally invariant grid construction     ... off

Total number of grid points                  ...   146392
Total number of batches                      ...     2310
Average number of points per batch           ...       63
Average number of grid points per atom       ...     3327
UseSFitting                                  ... on

Time for X-Grid setup             =   12.700 sec


--------------------
CPCM SOLVATION MODEL
--------------------
CPCM parameters:
  Epsilon                                         ...      24.8520
  Refrac                                          ...       1.3611
  Rsolv                                           ...       1.3000
  Surface type                                    ... GAUSSIAN VDW
  Epsilon function type                           ...         CPCM
Solvent:                                     ... ETHANOL
SMD-CDS solvent descriptors:
  Soln                                       ...    1.3611
  Soln25                                     ...    1.3593
  Sola                                       ...    0.3700
  Solb                                       ...    0.4800
  Solg                                       ...   31.6200
  Solc                                       ...    0.0000
  Solh                                       ...    0.0000
Radii:
 Radius for C  used is    3.4960 Bohr (=   1.8500 Ang.)
 Radius for N  used is    3.5716 Bohr (=   1.8900 Ang.)
 Radius for H  used is    2.2677 Bohr (=   1.2000 Ang.)
Calculating surface                               ...        done! (  0.0s)
GEPOL surface points                              ...         2408
GEPOL Volume                                      ...    2396.1158
GEPOL Surface-area                                ...    1269.7105
Calculating surface distance matrix               ...        done! (  0.1s)
Performing Cholesky decomposition & store         ...        done! (  0.4s)
Overall time for CPCM initialization              ...                 0.5s
 re-compute Schwartz prescreening matrix in partically contracted basis (1) ...done (   0.390 sec)
--------------
SCF ITERATIONS
--------------
ITER       Energy         Delta-E        Max-DP      RMS-DP      [F,P]     Damp
               ***  Starting incremental Fock matrix formation  ***
  0  -1108.5657872417   0.000000000000 1.14098241  0.00283511  0.1779837 0.7000
                      *** Initiating the SOSCF procedure ***
                      *** Re-Reading the Fockian *** 
                      *** Removing any level shift *** 
ITER      Energy       Delta-E        Grad      Rot      Max-DP    RMS-DP
  1  -1108.76257933  -0.1967920853  0.003179  0.003179  2.922515  0.007741
               *** Restarting incremental Fock matrix formation ***
  2  -1108.94890666  -0.1863273290  0.013467  0.027390  1.062357  0.003428
  3  -1108.93274164   0.0161650143  0.018606  0.022893  0.614708  0.001593
  4  -1109.03366553  -0.1009238930  0.003817  0.013351  0.172041  0.000730
  5  -1109.03139768   0.0022678499  0.005171  0.008846  0.074242  0.000383
  6  -1109.03790947  -0.0065117828  0.000993  0.003736  0.057049  0.000288
[...]
   Lowest Energy          :     0.145211655540
   Maximum Energy change  :     0.000135149956 (vector 8)
   Maximum residual norm  :     0.000020556746

                       ****Iteration   12****
              <<< Entering MO-section for Build Sigma(Double) >>>
   Forming the XC and CPCM contribution:
   Time for densities:            0.518
   Time for XC-Integration:      39.463
   Time for LR-CPCM terms:       23.452
   Time for Sigma-Completion:     0.407
   Time for building 10 sigma-vectors
   Data Preparation Phase         ...     0.02 sec
   Transformed RI Coulomb         ...     1.53 sec
   Transformed RI-exchange        ...  1219.22 sec
   (ab|v) reading and digestion   ...  1171.76 sec
   Final sigma-completion         ...     0.02 sec
   Done building sigma-vectors             Size of expansion space: 30
   Lowest Energy          :     0.145211655539
   Maximum Energy change  :     0.000043568988 (vector 8)
   Maximum residual norm  :     0.000006795017

                       ****Iteration   13****
              <<< Entering MO-section for Build Sigma(Double) >>>
   Forming the XC and CPCM contribution:
   Time for densities:            0.518
   Time for XC-Integration:      38.694
   Time for LR-CPCM terms:       23.567
   Time for Sigma-Completion:     0.430
   Time for building 10 sigma-vectors
   Data Preparation Phase         ...     0.02 sec
   Transformed RI Coulomb         ...     1.54 sec
   Transformed RI-exchange        ...  1221.32 sec
   (ab|v) reading and digestion   ...  1174.29 sec
   Final sigma-completion         ...     0.02 sec
   Done building sigma-vectors             Size of expansion space: 40
   Lowest Energy          :     0.145211655539
   Maximum Energy change  :     0.000015164266 (vector 8)
   Maximum residual norm  :     0.000002325722

                       ****Iteration   14****
              <<< Entering MO-section for Build Sigma(Double) >>>
   Forming the XC and CPCM contribution:
   Time for densities:            0.518
   Time for XC-Integration:      38.108
   Time for LR-CPCM terms:       23.406
   Time for Sigma-Completion:     0.432
   Time for building 10 sigma-vectors
   Data Preparation Phase         ...     0.02 sec
   Transformed RI Coulomb         ...     1.57 sec
   Transformed RI-exchange        ...  1219.07 sec
   (ab|v) reading and digestion   ...  1172.54 sec
   Final sigma-completion         ...     0.02 sec
   Done building sigma-vectors             Size of expansion space: 50
   Lowest Energy          :     0.145211655539
   Maximum Energy change  :     0.000004990892 (vector 8)
   Maximum residual norm  :     0.000000766085

      *** CONVERGENCE OF RESIDUAL NORM REACHED ***

Storing the converged CI vectors               ... optpbed3-b2gp-plyp-train-9_job2.cis1

                 *** DAVIDSON DONE ***

Total time for solving the CIS problem: 20937.119sec

------------------
DOUBLES CORRECTION (Double precision version)
------------------

The (D) correction will be scaled by  0.3600
Doing v(i,a)*T(i,a) terms (RI)                    ... ok
Doing u(i,j,a,b) terms for state   0              ... ok
Doing u(i,j,a,b) terms for state   1              ... ok
Doing u(i,j,a,b) terms for state   2              ... ok
Doing u(i,j,a,b) terms for state   3              ... ok
Doing u(i,j,a,b) terms for state   4              ... ok
Doing u(i,j,a,b) terms for state   5              ... ok
Doing u(i,j,a,b) terms for state   6              ... ok
Doing u(i,j,a,b) terms for state   7              ... ok
Doing u(i,j,a,b) terms for state   8              ... ok
Doing u(i,j,a,b) terms for state   9              ... ok

Contributions to the (D) correction(s) (in eV)

STATE  Final   Init.   Total   v(ext)   v(int)  v(3)    u
       omega   omega     (D)                             
-----------------------------------------------------------------------------
   0   3.721   3.951  -0.230   0.804   1.308  -0.091  -2.251
   1   3.761   4.207  -0.446   0.773   1.298  -0.047  -2.470
   2   4.308   4.812  -0.504   0.629   1.306  -0.027  -2.411
   3   4.683   4.937  -0.254   0.747   1.211  -0.072  -2.139
   4   4.643   5.066  -0.423   0.544   1.295  -0.029  -2.233
   5   4.948   5.144  -0.196   0.205   1.305  -0.015  -1.691
   6   4.735   5.233  -0.498   0.638   1.258  -0.062  -2.333
   7   4.730   5.376  -0.647   0.733   1.260  -0.119  -2.519
   8   4.699   5.416  -0.717   0.795   0.954  -0.037  -2.429
   9   4.813   5.448  -0.635   0.765   1.181  -0.034  -2.547

(D)-timings
 V(i,a)*T(i,a) terms           ...  3979.435 sec
 U(i,j,a,b) 3-internal         ...    42.074 sec
 U(i,j,a,b) 3-external         ...   969.409 sec
 U(i,j,a,b) pair terms         ...  1979.380 sec
 Total measured time           ... 15444.671 sec

 Time for (ab|v) I/O           ...   267.844 sec


------------------------------------
TD-DFT/TDA EXCITED STATES (SINGLETS)
------------------------------------

the weight of the individual excitations are printed if larger than 1.0e-02

STATE  1:  E=   0.136754 au      3.721 eV    30014.0 cm**-1 <S**2> =   0.000000
    91a ->  96a  :     0.060001 (c=  0.24495190)
    92a ->  93a  :     0.867591 (c=  0.93144575)
    92a ->  94a  :     0.014643 (c= -0.12100957)

STATE  2:  E=   0.138202 au      3.761 eV    30331.8 cm**-1 <S**2> =   0.000000
    90a ->  93a  :     0.010354 (c=  0.10175624)
    91a ->  93a  :     0.367469 (c= -0.60619184)
    91a ->  94a  :     0.021182 (c=  0.14554099)
    92a ->  94a  :     0.028196 (c= -0.16791801)
    92a ->  96a  :     0.441043 (c=  0.66411048)
    92a ->  98a  :     0.033984 (c=  0.18434723)
    92a ->  99a  :     0.023975 (c=  0.15483949)

STATE  3:  E=   0.158315 au      4.308 eV    34746.1 cm**-1 <S**2> =   0.000000
    88a ->  94a  :     0.017566 (c= -0.13253788)
    89a ->  93a  :     0.018004 (c=  0.13417993)
    90a ->  93a  :     0.012766 (c= -0.11298579)
    91a ->  93a  :     0.010948 (c=  0.10463457)
    91a ->  96a  :     0.012069 (c=  0.10986075)
    92a ->  93a  :     0.010320 (c= -0.10158716)
    92a ->  94a  :     0.412208 (c= -0.64203450)
    92a ->  98a  :     0.047731 (c= -0.21847374)
    92a ->  99a  :     0.028027 (c= -0.16741274)
    92a -> 103a  :     0.056825 (c=  0.23837940)
    92a -> 104a  :     0.172425 (c= -0.41524040)
    92a -> 105a  :     0.055902 (c= -0.23643624)
    92a -> 106a  :     0.022507 (c= -0.15002239)
    92a -> 107a  :     0.014598 (c= -0.12082042)

STATE  4:  E=   0.172112 au      4.683 eV    37774.2 cm**-1 <S**2> =   0.000000
    90a ->  93a  :     0.229491 (c=  0.47905259)
    90a ->  94a  :     0.562565 (c=  0.75004329)
    91a ->  94a  :     0.026659 (c=  0.16327491)
    92a ->  98a  :     0.010757 (c= -0.10371519)

STATE  5:  E=   0.170627 au      4.643 eV    37448.2 cm**-1 <S**2> =   0.000000
    88a ->  93a  :     0.015882 (c= -0.12602417)
    89a ->  93a  :     0.037646 (c= -0.19402637)
    90a ->  94a  :     0.034540 (c=  0.18584975)
    92a ->  94a  :     0.232909 (c= -0.48260680)
    92a ->  95a  :     0.039670 (c=  0.19917240)
    92a ->  97a  :     0.032708 (c=  0.18085403)
    92a -> 103a  :     0.142347 (c= -0.37728941)
    92a -> 104a  :     0.171105 (c=  0.41364817)
    92a -> 105a  :     0.119702 (c=  0.34597998)

STATE  6:  E=   0.181832 au      4.948 eV    39907.5 cm**-1 <S**2> =   0.000000
    91a ->  93a  :     0.020928 (c=  0.14466481)
    91a ->  96a  :     0.015044 (c=  0.12265580)
    92a ->  94a  :     0.018154 (c= -0.13473814)
    92a ->  95a  :     0.413748 (c= -0.64323227)
    92a ->  96a  :     0.067492 (c=  0.25979300)
    92a ->  97a  :     0.206904 (c= -0.45486712)
    92a ->  99a  :     0.017132 (c= -0.13088764)
    92a -> 102a  :     0.013628 (c= -0.11673877)
    92a -> 104a  :     0.056945 (c=  0.23863119)
    92a -> 106a  :     0.038585 (c=  0.19643147)

STATE  7:  E=   0.173992 au      4.735 eV    38186.9 cm**-1 <S**2> =   0.000000
    87a ->  93a  :     0.018836 (c=  0.13724595)
    87a ->  94a  :     0.028822 (c=  0.16977118)
    88a ->  94a  :     0.027899 (c=  0.16703049)
    90a ->  93a  :     0.050109 (c=  0.22384987)
    90a ->  94a  :     0.062155 (c= -0.24930881)
    90a ->  96a  :     0.053724 (c= -0.23178463)
    90a ->  98a  :     0.072997 (c=  0.27017971)
    90a ->  99a  :     0.059699 (c=  0.24433431)
    91a ->  93a  :     0.131312 (c=  0.36236948)
    91a ->  94a  :     0.036368 (c= -0.19070306)
    91a ->  98a  :     0.014914 (c=  0.12212207)
    91a ->  99a  :     0.010813 (c=  0.10398714)
    92a ->  95a  :     0.043988 (c=  0.20973415)
    92a ->  96a  :     0.148112 (c=  0.38485361)
    92a ->  97a  :     0.032572 (c=  0.18047729)
    92a ->  98a  :     0.036608 (c= -0.19133090)
    92a -> 107a  :     0.025011 (c= -0.15814803)

STATE  8:  E=   0.173808 au      4.730 eV    38146.4 cm**-1 <S**2> =   0.000000
    87a ->  94a  :     0.015924 (c=  0.12618997)
    89a ->  93a  :     0.057898 (c= -0.24061973)
    90a ->  93a  :     0.061497 (c=  0.24798650)
    90a ->  94a  :     0.028768 (c= -0.16961004)
    90a ->  96a  :     0.019164 (c= -0.13843231)
    90a ->  98a  :     0.029525 (c=  0.17182764)
    90a ->  99a  :     0.022645 (c=  0.15048289)
    91a ->  93a  :     0.319358 (c= -0.56511812)
    92a ->  96a  :     0.173078 (c= -0.41602626)
    92a ->  98a  :     0.084186 (c= -0.29014906)
    92a ->  99a  :     0.035995 (c= -0.18972250)
    92a -> 107a  :     0.010765 (c= -0.10375544)

STATE  9:  E=   0.172674 au      4.699 eV    37897.5 cm**-1 <S**2> =   0.000000
    83a ->  93a  :     0.029309 (c=  0.17119830)
    83a ->  96a  :     0.015299 (c= -0.12368993)
    83a ->  98a  :     0.038765 (c=  0.19688903)
    83a ->  99a  :     0.032661 (c=  0.18072357)
    85a ->  94a  :     0.023403 (c=  0.15298091)
    86a ->  93a  :     0.136590 (c= -0.36958121)
    86a ->  94a  :     0.500470 (c= -0.70743909)
    86a -> 102a  :     0.014544 (c= -0.12059923)

STATE 10:  E=   0.176874 au      4.813 eV    38819.4 cm**-1 <S**2> =   0.000000
    89a ->  93a  :     0.670896 (c=  0.81908250)
    89a ->  94a  :     0.033405 (c= -0.18277001)
    91a ->  93a  :     0.016067 (c= -0.12675745)
    91a ->  98a  :     0.016211 (c=  0.12732307)
    91a ->  99a  :     0.011197 (c=  0.10581724)
    91a -> 107a  :     0.014320 (c=  0.11966529)
    92a ->  96a  :     0.013777 (c= -0.11737439)
    92a ->  98a  :     0.010998 (c= -0.10486901)
    92a -> 103a  :     0.019611 (c= -0.14003802)
    92a -> 104a  :     0.030435 (c=  0.17445562)


-----------------------------
TD-DFT/TDA-EXCITATION SPECTRA
-----------------------------

Center of mass = (  0.0453, -0.0123, -0.0323)
Calculating the Dipole integrals                  ... done
Transforming integrals                            ... done
Calculating the Linear Momentum integrals         ... done
Transforming integrals                            ... done
Calculating angular momentum integrals            ... done
Transforming integrals                            ... done

-----------------------------------------------------------------------------
         ABSORPTION SPECTRUM VIA TRANSITION ELECTRIC DIPOLE MOMENTS
-----------------------------------------------------------------------------
State   Energy    Wavelength  fosc         T2        TX        TY        TZ  
        (cm-1)      (nm)                 (au**2)    (au)      (au)      (au) 
-----------------------------------------------------------------------------
   1   30014.0    333.2   0.939788122  10.30816  -3.05866  -0.35625   0.90876
   2   30331.8    329.7   0.003295104   0.03576  -0.09386  -0.14896   0.06903
   3   34746.1    287.8   0.045824538   0.43418   0.36178  -0.54659   0.06731
   4   37774.2    264.7   0.707753389   6.16825  -2.33173  -0.46087  -0.72033
   5   37448.2    267.0   0.037969465   0.33379  -0.26669  -0.47784  -0.18531
   6   39907.5    250.6   0.101056899   0.83366   0.65952  -0.62253   0.10560
   7   38186.9    261.9   0.450916113   3.88738   1.57193  -1.17565   0.18516
   8   38146.4    262.1   0.510514968   4.40586  -0.25266   2.04905  -0.37869
   9   37897.5    263.9   0.012916732   0.11221  -0.25045   0.10921   0.19379
  10   38819.4    257.6   0.037269748   0.31607   0.26747   0.47490  -0.13784

-----------------------------------------------------------------------------
         ABSORPTION SPECTRUM VIA TRANSITION VELOCITY DIPOLE MOMENTS
-----------------------------------------------------------------------------
State   Energy    Wavelength   fosc        P2         PX        PY        PZ  
        (cm-1)      (nm)                 (au**2)     (au)      (au)      (au) 
-----------------------------------------------------------------------------
   1   30014.0    333.2   0.310138058   0.06362   0.24778  -0.01360  -0.04514
   2   30331.8    329.7   0.001041007   0.00022   0.01258  -0.00705  -0.00281
   3   34746.1    287.8   0.022108392   0.00525  -0.06520   0.03105  -0.00596
   4   37774.2    264.7   0.361946219   0.09344   0.29937   0.02336   0.05725
   5   37448.2    267.0   0.006233359   0.00160   0.02860   0.02179   0.01740
   6   39907.5    250.6   0.036066865   0.00984  -0.09257   0.03491  -0.00699
   7   38186.9    261.9   0.191176262   0.04989  -0.21528   0.05954  -0.00185
   8   38146.4    262.1   0.028412188   0.00741   0.00395  -0.08560   0.00807
   9   37897.5    263.9   0.006363737   0.00165   0.02219  -0.02663   0.02113
  10   38819.4    257.6   0.010429319   0.00277  -0.05241  -0.00157   0.00417

-------------------------------------------------------------------
                             CD SPECTRUM
-------------------------------------------------------------------
State  Energy     Wavelength     R         MX        MY        MZ   
       (cm-1)       (nm)     (1e40*cgs)   (au)      (au)      (au)  
-------------------------------------------------------------------
   1   30014.0    333.2    -132.75686   0.12156   0.23599   0.19180
   2   30331.8    329.7     -1.18898   0.00402   0.00613  -0.01783
   3   34746.1    287.8    -19.77015  -0.33908  -0.27018  -0.99449
   4   37774.2    264.7    191.40415  -0.05436   0.31716  -0.59057
   5   37448.2    267.0    -179.28672   0.26819   0.37733   0.69321
   6   39907.5    250.6     16.28067  -0.02130  -0.02324   0.32300
   7   38186.9    261.9    137.72288  -0.09576  -0.28169   0.60213
   8   38146.4    262.1    -107.13110  -0.03761  -0.12019  -0.02520
   9   37897.5    263.9      2.18721  -0.01323   0.04285  -0.01731
  10   38819.4    257.6    -37.41918  -0.18349  -0.20065  -0.47155

-------------------------------------------------------------------
         CD SPECTRUM VIA TRANSITION VELOCITY DIPOLE MOMENTS        
-------------------------------------------------------------------
State  Energy     Wavelength     R         MX        MY        MZ   
       (cm-1)       (nm)     (1e40*cgs)   (au)      (au)      (au)  
-------------------------------------------------------------------
   1   30014.0    333.2     62.93109   0.12156   0.23599   0.19180
   2   30331.8    329.7      0.19579   0.00402   0.00613  -0.01783
   3   34746.1    287.8     58.50398  -0.33908  -0.27018  -0.99449
   4   37774.2    264.7    -116.90048  -0.05436   0.31716  -0.59057
   5   37448.2    267.0     77.23225   0.26819   0.37733   0.69321
   6   39907.5    250.6     -2.84900  -0.02130  -0.02324   0.32300
   7   38186.9    261.9      7.40047  -0.09576  -0.28169   0.60213
   8   38146.4    262.1     26.95204  -0.03761  -0.12019  -0.02520
   9   37897.5    263.9     -4.91614  -0.01323   0.04285  -0.01731
  10   38819.4    257.6     21.23294  -0.18349  -0.20065  -0.47155

Total run time:    36398.954 sec

           *** ORCA-CIS/TD-DFT FINISHED WITHOUT ERROR ***

Maximum memory used throughout the entire CIS-calculation: 3126.5 MB

-----------------------
CIS/TD-DFT TOTAL ENERGY
-----------------------

    E(SCF)  =  -1107.347692469 Eh
    DE(CIS) =      0.136753968 Eh (Root  1)
    ----------------------------- ---------
    E(tot)  =  -1107.210938500 Eh



-------------------------------------------------------------------------------
                          DFT DISPERSION CORRECTION                            
                                                                               
                              DFTD3 V3.1  Rev 1                                
                          USING Becke-Johnson damping                          
-------------------------------------------------------------------------------
The B2GP-PLYP functional is recognized
Active option DFTDOPT                   ...         4   

molecular C6(AA) [au] = 27760.679969 


            DFT-D V3
 parameters
 s6 scaling factor         :     0.5600 
 a1 scaling factor         :     0.0000 
 s8 scaling factor         :     0.2597 
 a2 scaling factor         :     6.3332 
 ad hoc parameters k1-k3   :    16.0000     1.3333    -4.0000 

 Edisp/kcal,au: -25.899612293746  -0.041273654983 
 E6   /kcal   : -20.029170071 
 E8   /kcal   :  -5.870442223 
 % E8         :  22.666139386 

-------------------------   ----------------
Dispersion correction           -0.041273655
-------------------------   ----------------


-------------------------   --------------------
FINAL SINGLE POINT ENERGY     -1107.252212155421
-------------------------   --------------------


                            ***************************************
                            *     ORCA property calculations      *
                            ***************************************


  WARNING: The energy has been calculated at the MP2 level but the densities
           used in the property calculations are still SCF densities
           MP2 response densities have not been calculated 
           use %mp2 Density relaxed end
           or  %mp2 Density unrelaxed end

                                    ---------------------
                                    Active property flags
                                    ---------------------
   (+) Dipole Moment


------------------------------------------------------------------------------
                       ORCA ELECTRIC PROPERTIES CALCULATION
------------------------------------------------------------------------------

Dipole Moment Calculation                       ... on
Quadrupole Moment Calculation                   ... off
Polarizability Calculation                      ... off
GBWName                                         ... optpbed3-b2gp-plyp-train-9_job2.gbw
Electron density                                ... optpbed3-b2gp-plyp-train-9_job2.scfp
The origin for moment calculation is the CENTER OF MASS  = ( 0.045268, -0.012298 -0.032340)

-------------
DIPOLE MOMENT
-------------
                                X             Y             Z
Electronic contribution:     -0.58036       0.00006      -1.23156
Nuclear contribution   :      0.34569       0.06670       1.37235
                        -----------------------------------------
Total Dipole Moment    :     -0.23467       0.06675       0.14079
                        -----------------------------------------
Magnitude (a.u.)       :      0.28169
Magnitude (Debye)      :      0.71601



--------------------
Rotational spectrum 
--------------------
 
Rotational constants in cm-1:     0.016483     0.002671     0.002459 
Rotational constants in MHz :   494.160005    80.085307    73.712612 

 Dipole components along the rotational axes: 
x,y,z [a.u.] :    -0.247945     0.042267    -0.126837 
x,y,z [Debye]:    -0.630227     0.107435    -0.322393 

 

Timings for individual modules:

Sum of individual times         ...    42198.437 sec (= 703.307 min)
GTO integral calculation        ...        8.565 sec (=   0.143 min)   0.0 %
SCF iterations                  ...     2279.180 sec (=  37.986 min)   5.4 %
MP2 module                      ...     3507.919 sec (=  58.465 min)   8.3 %
CIS module                      ...    36402.773 sec (= 606.713 min)  86.3 %



                             ****ORCA TERMINATED NORMALLY****
TOTAL RUN TIME: 0 days 20 hours 53 minutes 55 seconds 39 msec
