
                                 *****************
                                 * O   R   C   A *
                                 *****************

                                            #,                                       
                                            ###                                      
                                            ####                                     
                                            #####                                    
                                            ######                                   
                                           ########,                                 
                                     ,,################,,,,,                         
                               ,,#################################,,                 
                          ,,##########################################,,             
                       ,#########################################, ''#####,          
                    ,#############################################,,   '####,        
                  ,##################################################,,,,####,       
                ,###########''''           ''''###############################       
              ,#####''   ,,,,##########,,,,          '''####'''          '####       
            ,##' ,,,,###########################,,,                        '##       
           ' ,,###''''                  '''############,,,                           
         ,,##''                                '''############,,,,        ,,,,,,###''
      ,#''                                            '''#######################'''  
     '                                                          ''''####''''         
             ,#######,   #######,   ,#######,      ##                                
            ,#'     '#,  ##    ##  ,#'     '#,    #''#        ######   ,####,        
            ##       ##  ##   ,#'  ##            #'  '#       #        #'  '#        
            ##       ##  #######   ##           ,######,      #####,   #    #        
            '#,     ,#'  ##    ##  '#,     ,#' ,#      #,         ##   #,  ,#        
             '#######'   ##     ##  '#######'  #'      '#     #####' # '####'        



                  #######################################################
                  #                        -***-                        #
                  #          Department of theory and spectroscopy      #
                  #    Directorship and core code : Frank Neese         #
                  #        Max Planck Institute fuer Kohlenforschung    #
                  #                Kaiser Wilhelm Platz 1               #
                  #                 D-45470 Muelheim/Ruhr               #
                  #                      Germany                        #
                  #                                                     #
                  #                  All rights reserved                #
                  #                        -***-                        #
                  #######################################################


                         Program Version 5.0.2 -  RELEASE  -


 With contributions from (in alphabetic order):
   Daniel Aravena         : Magnetic Suceptibility
   Michael Atanasov       : Ab Initio Ligand Field Theory (pilot matlab implementation)
   Alexander A. Auer      : GIAO ZORA, VPT2 properties, NMR spectrum
   Ute Becker             : Parallelization
   Giovanni Bistoni       : ED, misc. LED, open-shell LED, HFLD
   Martin Brehm           : Molecular dynamics
   Dmytro Bykov           : SCF Hessian
   Vijay G. Chilkuri      : MRCI spin determinant printing, contributions to CSF-ICE
   Dipayan Datta          : RHF DLPNO-CCSD density
   Achintya Kumar Dutta   : EOM-CC, STEOM-CC
   Dmitry Ganyushin       : Spin-Orbit,Spin-Spin,Magnetic field MRCI
   Miquel Garcia          : C-PCM and meta-GGA Hessian, CC/C-PCM, Gaussian charge scheme
   Yang Guo               : DLPNO-NEVPT2, F12-NEVPT2, CIM, IAO-localization
   Andreas Hansen         : Spin unrestricted coupled pair/coupled cluster methods
   Benjamin Helmich-Paris : MC-RPA, TRAH-SCF, COSX integrals
   Lee Huntington         : MR-EOM, pCC
   Robert Izsak           : Overlap fitted RIJCOSX, COSX-SCS-MP3, EOM
   Marcus Kettner         : VPT2
   Christian Kollmar      : KDIIS, OOCD, Brueckner-CCSD(T), CCSD density, CASPT2, CASPT2-K
   Simone Kossmann        : Meta GGA functionals, TD-DFT gradient, OOMP2, MP2 Hessian
   Martin Krupicka        : Initial AUTO-CI
   Lucas Lang             : DCDCAS
   Marvin Lechner         : AUTO-CI (C++ implementation), FIC-MRCC
   Dagmar Lenk            : GEPOL surface, SMD
   Dimitrios Liakos       : Extrapolation schemes; Compound Job, initial MDCI parallelization
   Dimitrios Manganas     : Further ROCIS development; embedding schemes
   Dimitrios Pantazis     : SARC Basis sets
   Anastasios Papadopoulos: AUTO-CI, single reference methods and gradients
   Taras Petrenko         : DFT Hessian,TD-DFT gradient, ASA, ECA, R-Raman, ABS, FL, XAS/XES, NRVS
   Peter Pinski           : DLPNO-MP2, DLPNO-MP2 Gradient
   Christoph Reimann      : Effective Core Potentials
   Marius Retegan         : Local ZFS, SOC
   Christoph Riplinger    : Optimizer, TS searches, QM/MM, DLPNO-CCSD(T), (RO)-DLPNO pert. Triples
   Tobias Risthaus        : Range-separated hybrids, TD-DFT gradient, RPA, STAB
   Michael Roemelt        : Original ROCIS implementation
   Masaaki Saitow         : Open-shell DLPNO-CCSD energy and density
   Barbara Sandhoefer     : DKH picture change effects
   Avijit Sen             : IP-ROCIS
   Kantharuban Sivalingam : CASSCF convergence, NEVPT2, FIC-MRCI
   Bernardo de Souza      : ESD, SOC TD-DFT
   Georgi Stoychev        : AutoAux, RI-MP2 NMR, DLPNO-MP2 response
   Willem Van den Heuvel  : Paramagnetic NMR
   Boris Wezisla          : Elementary symmetry handling
   Frank Wennmohs         : Technical directorship


 We gratefully acknowledge several colleagues who have allowed us to
 interface, adapt or use parts of their codes:
   Stefan Grimme, W. Hujo, H. Kruse, P. Pracht,  : VdW corrections, initial TS optimization,
                  C. Bannwarth, S. Ehlert          DFT functionals, gCP, sTDA/sTD-DF
   Ed Valeev, F. Pavosevic, A. Kumar             : LibInt (2-el integral package), F12 methods
   Garnet Chan, S. Sharma, J. Yang, R. Olivares  : DMRG
   Ulf Ekstrom                                   : XCFun DFT Library
   Mihaly Kallay                                 : mrcc  (arbitrary order and MRCC methods)
   Jiri Pittner, Ondrej Demel                    : Mk-CCSD
   Frank Weinhold                                : gennbo (NPA and NBO analysis)
   Christopher J. Cramer and Donald G. Truhlar   : smd solvation model
   Lars Goerigk                                  : TD-DFT with DH, B97 family of functionals
   V. Asgeirsson, H. Jonsson                     : NEB implementation
   FAccTs GmbH                                   : IRC, NEB, NEB-TS, DLPNO-Multilevel, CI-OPT
                                                   MM, QMMM, 2- and 3-layer-ONIOM, Crystal-QMMM,
                                                   LR-CPCM, SF, NACMEs, symmetry and pop. for TD-DFT,
                                                   nearIR, NL-DFT gradient (VV10), updates on ESD,
                                                   ML-optimized integration grids
   S Lehtola, MJT Oliveira, MAL Marques          : LibXC Library
   Liviu Ungur et al                             : ANISO software


 Your calculation uses the libint2 library for the computation of 2-el integrals
 For citations please refer to: http://libint.valeyev.net

 Your ORCA version has been built with support for libXC version: 5.1.0
 For citations please refer to: https://tddft.org/programs/libxc/

 This ORCA versions uses:
   CBLAS   interface :  Fast vector & matrix operations
   LAPACKE interface :  Fast linear algebra routines
   SCALAPACK package :  Parallel linear algebra routines
   Shared memory     :  Shared parallel matrices
   BLAS/LAPACK       :  OpenBLAS 0.3.15  USE64BITINT DYNAMIC_ARCH NO_AFFINITY Sandybridge SINGLE_THREADED
        Core in use  :  Sandybridge
   Copyright (c) 2011-2014, The OpenBLAS Project


Your calculation utilizes the SMD solvation module
Please cite in your paper:
A.V. Marenich, C.J. Cramer, D.G. Truhlar J. Phys. Chem. B, 113, (2009), 6378 

================================================================================

----- Orbital basis set information -----
Your calculation utilizes the basis: aug-cc-pVTZ 
    H, B-Ne : Obtained from the ccRepo (grant-hill.group.shef.ac.uk/ccrepo) Feb. 2017
              R. A. Kendall, T. H. Dunning, Jr., R. J. Harrison, J. Chem. Phys. 96, 6796 (1992)
         He : Obtained from the ccRepo (grant-hill.group.shef.ac.uk/ccrepo) Feb. 2017
              D. E. Woon, T. H. Dunning, Jr., J. Chem. Phys. 100, 2975 (1994)
  Li-Be, Na : Obtained from the ccRepo (grant-hill.group.shef.ac.uk/ccrepo) Feb. 2017
              B. P. Prascher, D. E. Woon, K. A. Peterson, T. H. Dunning, Jr., A. K. Wilson, Theor. Chem. Acc. 128, 69 (2011)
         Mg : Obtained from the Peterson Research Group Website (tyr0.chem.wsu.edu/~kipeters) Feb. 2017
              B. P. Prascher, D. E. Woon, K. A. Peterson, T. H. Dunning, Jr., A. K. Wilson, Theor. Chem. Acc. 128, 69 (2011)
      Al-Ar : Obtained from the ccRepo (grant-hill.group.shef.ac.uk/ccrepo) Feb. 2017
              D. E. Woon, T. H. Dunning, Jr., J. Chem. Phys. 98, 1358 (1993)
      Sc-Zn : Obtained from the ccRepo (grant-hill.group.shef.ac.uk/ccrepo) Feb. 2017
              N. B. Balabanov, K. A. Peterson, J. Chem. Phys. 123, 064107 (2005)
              N. B. Balabanov, K. A. Peterson, J. Chem. Phys. 125, 074110 (2006)
      Ga-Kr : Obtained from the ccRepo (grant-hill.group.shef.ac.uk/ccrepo) Feb. 2017
              A. K. Wilson, D. E. Woon, K. A. Peterson, T. H. Dunning, Jr., J. Chem. Phys. 110, 7667 (1999)
     Ag, Au : Obtained from the Peterson Research Group Website (tyr0.chem.wsu.edu/~kipeters) Feb. 2017
              K. A. Peterson, C. Puzzarini, Theor. Chem. Acc. 114, 283 (2005)

The basis set includes element-specific modifications.

Your calculation utilizes the basis: cc-pVTZ 
       H, B-Ne : Obtained from the ccRepo (grant-hill.group.shef.ac.uk/ccrepo) Feb. 2017
                 T. H. Dunning, Jr., J. Chem. Phys. 90, 1007 (1989)
            He : Obtained from the ccRepo (grant-hill.group.shef.ac.uk/ccrepo) Feb. 2017
                 D. E. Woon, T. H. Dunning, Jr., J. Chem. Phys. 100, 2975 (1994)
  Li-Be, Na-Mg : Obtained from the ccRepo (grant-hill.group.shef.ac.uk/ccrepo) Feb. 2017
                 B. P. Prascher, D. E. Woon, K. A. Peterson, T. H. Dunning, Jr., A. K. Wilson, Theor. Chem. Acc. 128, 69 (2011)
         Al-Ar : Obtained from the ccRepo (grant-hill.group.shef.ac.uk/ccrepo) Feb. 2017
                 D. E. Woon, T. H. Dunning, Jr., J. Chem. Phys. 98, 1358 (1993)
            Ca : Obtained from the Peterson Research Group Website (tyr0.chem.wsu.edu/~kipeters) Feb. 2017
                 J. Koput, K. A. Peterson, J. Phys. Chem. 106, 9595 (2002)
         Sc-Zn : Obtained from the ccRepo (grant-hill.group.shef.ac.uk/ccrepo) Feb. 2017
                 N. B. Balabanov, K. A. Peterson, J. Chem. Phys. 123, 064107 (2005)
                 N. B. Balabanov, K. A. Peterson, J. Chem. Phys. 125, 074110 (2006)
         Ga-Kr : Obtained from the ccRepo (grant-hill.group.shef.ac.uk/ccrepo) Feb. 2017
                 A. K. Wilson, D. E. Woon, K. A. Peterson, T. H. Dunning, Jr., J. Chem. Phys. 110, 7667 (1999)
             Y : Obtained from the ccRepo (grant-hill.group.shef.ac.uk/ccrepo) Feb. 2017
                 K. A. Peterson, D. Figgen, M. Dolg, H. Stoll, J. Chem. Phys. 126, 124101 (2007)
        Ag, Au : Obtained from the Peterson Research Group Website (tyr0.chem.wsu.edu/~kipeters) Feb. 2017
                 K. A. Peterson, C. Puzzarini, Theor. Chem. Acc. 114, 283 (2005)

----- AuxJ basis set information -----
Your calculation utilizes the auxiliary basis: aug-cc-pVTZ/JK 
  H, B-F, Al-Cl, Ga-Br : Obtained from the TURBOMOLE 7.0 basis set library

The basis set includes element-specific modifications.

Your calculation utilizes the auxiliary basis: cc-pVTZ/JK 
  H, B-F, Al-Cl, Ga-Br : Obtained from the TURBOMOLE 7.0 basis set library

----- AuxC basis set information -----
Your calculation utilizes the auxiliary basis: aug-cc-pVTZ/C 
  H-He, B-F, Al-Ar, Ga-Kr : Obtained from the EMSL Basis Set Exchange (bse.pnl.gov) Feb. 2017
                            F. Weigend, A. Kohn, C. Hattig, J. Chem. Phys. 116, 3175 (2002)
                   Be, Mg : Obtained from the TURBOMOLE 7.0 basis set library
                            C. Haettig, Phys. Chem. Chem. Phys. 7, 59 (2005)
                       Ne : Obtained from the EMSL Basis Set Exchange (bse.pnl.gov) Feb. 2017
                            C. Haettig, Phys. Chem. Chem. Phys. 7, 59 (2005)
                            F. Weigend, A. Kohn, C. Hattig, J. Chem. Phys. 116, 3175 (2002)
                    Sc-Zn : Obtained from the EMSL Basis Set Exchange (bse.pnl.gov) Feb. 2017
                            J. G. Hill, J. A. Platts, J. Chem. Phys. 128, 044104 (2008)

The basis set includes element-specific modifications.

Your calculation utilizes the auxiliary basis: cc-pVTZ/C 
  Obtained from the EMSL Basis Set Exchange (bse.pnl.gov) Feb. 2017
  H-He, B-F, Al-Ar, Ga-Kr : F. Weigend, A. Kohn, C. Hattig, J. Chem. Phys. 116, 3175 (2002)
             Li-Be, Na-Mg : C. Haettig, Phys. Chem. Chem. Phys. 7, 59 (2005)
                       Ne : C. Haettig, Phys. Chem. Chem. Phys. 7, 59 (2005)
                            F. Weigend, A. Kohn, C. Hattig, J. Chem. Phys. 116, 3175 (2002)
                    Sc-Zn : J. G. Hill, J. A. Platts, J. Chem. Phys. 128, 044104 (2008)

================================================================================
                                        WARNINGS
                       Please study these warnings very carefully!
================================================================================


WARNING: Geometry Optimization
  ===> : Switching off AutoStart
         For restart on a previous wavefunction, please use MOREAD

INFO   : the flag for use of the SHARK integral package has been found!



***************************************
The coordinates will be read from file: 
***************************************


Your calculation utilizes the SMD solvation module
Please cite in your paper:
A.V. Marenich, C.J. Cramer, D.G. Truhlar J. Phys. Chem. B, 113, (2009), 6378 

================================================================================

----- Orbital basis set information -----
Your calculation utilizes the basis: aug-cc-pVTZ 
    H, B-Ne : Obtained from the ccRepo (grant-hill.group.shef.ac.uk/ccrepo) Feb. 2017
              R. A. Kendall, T. H. Dunning, Jr., R. J. Harrison, J. Chem. Phys. 96, 6796 (1992)
         He : Obtained from the ccRepo (grant-hill.group.shef.ac.uk/ccrepo) Feb. 2017
              D. E. Woon, T. H. Dunning, Jr., J. Chem. Phys. 100, 2975 (1994)
  Li-Be, Na : Obtained from the ccRepo (grant-hill.group.shef.ac.uk/ccrepo) Feb. 2017
              B. P. Prascher, D. E. Woon, K. A. Peterson, T. H. Dunning, Jr., A. K. Wilson, Theor. Chem. Acc. 128, 69 (2011)
         Mg : Obtained from the Peterson Research Group Website (tyr0.chem.wsu.edu/~kipeters) Feb. 2017
              B. P. Prascher, D. E. Woon, K. A. Peterson, T. H. Dunning, Jr., A. K. Wilson, Theor. Chem. Acc. 128, 69 (2011)
      Al-Ar : Obtained from the ccRepo (grant-hill.group.shef.ac.uk/ccrepo) Feb. 2017
              D. E. Woon, T. H. Dunning, Jr., J. Chem. Phys. 98, 1358 (1993)
      Sc-Zn : Obtained from the ccRepo (grant-hill.group.shef.ac.uk/ccrepo) Feb. 2017
              N. B. Balabanov, K. A. Peterson, J. Chem. Phys. 123, 064107 (2005)
              N. B. Balabanov, K. A. Peterson, J. Chem. Phys. 125, 074110 (2006)
      Ga-Kr : Obtained from the ccRepo (grant-hill.group.shef.ac.uk/ccrepo) Feb. 2017
              A. K. Wilson, D. E. Woon, K. A. Peterson, T. H. Dunning, Jr., J. Chem. Phys. 110, 7667 (1999)
     Ag, Au : Obtained from the Peterson Research Group Website (tyr0.chem.wsu.edu/~kipeters) Feb. 2017
              K. A. Peterson, C. Puzzarini, Theor. Chem. Acc. 114, 283 (2005)

The basis set includes element-specific modifications.

Your calculation utilizes the basis: cc-pVTZ 
       H, B-Ne : Obtained from the ccRepo (grant-hill.group.shef.ac.uk/ccrepo) Feb. 2017
                 T. H. Dunning, Jr., J. Chem. Phys. 90, 1007 (1989)
            He : Obtained from the ccRepo (grant-hill.group.shef.ac.uk/ccrepo) Feb. 2017
                 D. E. Woon, T. H. Dunning, Jr., J. Chem. Phys. 100, 2975 (1994)
  Li-Be, Na-Mg : Obtained from the ccRepo (grant-hill.group.shef.ac.uk/ccrepo) Feb. 2017
                 B. P. Prascher, D. E. Woon, K. A. Peterson, T. H. Dunning, Jr., A. K. Wilson, Theor. Chem. Acc. 128, 69 (2011)
         Al-Ar : Obtained from the ccRepo (grant-hill.group.shef.ac.uk/ccrepo) Feb. 2017
                 D. E. Woon, T. H. Dunning, Jr., J. Chem. Phys. 98, 1358 (1993)
            Ca : Obtained from the Peterson Research Group Website (tyr0.chem.wsu.edu/~kipeters) Feb. 2017
                 J. Koput, K. A. Peterson, J. Phys. Chem. 106, 9595 (2002)
         Sc-Zn : Obtained from the ccRepo (grant-hill.group.shef.ac.uk/ccrepo) Feb. 2017
                 N. B. Balabanov, K. A. Peterson, J. Chem. Phys. 123, 064107 (2005)
                 N. B. Balabanov, K. A. Peterson, J. Chem. Phys. 125, 074110 (2006)
         Ga-Kr : Obtained from the ccRepo (grant-hill.group.shef.ac.uk/ccrepo) Feb. 2017
                 A. K. Wilson, D. E. Woon, K. A. Peterson, T. H. Dunning, Jr., J. Chem. Phys. 110, 7667 (1999)
             Y : Obtained from the ccRepo (grant-hill.group.shef.ac.uk/ccrepo) Feb. 2017
                 K. A. Peterson, D. Figgen, M. Dolg, H. Stoll, J. Chem. Phys. 126, 124101 (2007)
        Ag, Au : Obtained from the Peterson Research Group Website (tyr0.chem.wsu.edu/~kipeters) Feb. 2017
                 K. A. Peterson, C. Puzzarini, Theor. Chem. Acc. 114, 283 (2005)

----- AuxJ basis set information -----
Your calculation utilizes the auxiliary basis: aug-cc-pVTZ/JK 
  H, B-F, Al-Cl, Ga-Br : Obtained from the TURBOMOLE 7.0 basis set library

The basis set includes element-specific modifications.

Your calculation utilizes the auxiliary basis: cc-pVTZ/JK 
  H, B-F, Al-Cl, Ga-Br : Obtained from the TURBOMOLE 7.0 basis set library

----- AuxC basis set information -----
Your calculation utilizes the auxiliary basis: aug-cc-pVTZ/C 
  H-He, B-F, Al-Ar, Ga-Kr : Obtained from the EMSL Basis Set Exchange (bse.pnl.gov) Feb. 2017
                            F. Weigend, A. Kohn, C. Hattig, J. Chem. Phys. 116, 3175 (2002)
                   Be, Mg : Obtained from the TURBOMOLE 7.0 basis set library
                            C. Haettig, Phys. Chem. Chem. Phys. 7, 59 (2005)
                       Ne : Obtained from the EMSL Basis Set Exchange (bse.pnl.gov) Feb. 2017
                            C. Haettig, Phys. Chem. Chem. Phys. 7, 59 (2005)
                            F. Weigend, A. Kohn, C. Hattig, J. Chem. Phys. 116, 3175 (2002)
                    Sc-Zn : Obtained from the EMSL Basis Set Exchange (bse.pnl.gov) Feb. 2017
                            J. G. Hill, J. A. Platts, J. Chem. Phys. 128, 044104 (2008)

The basis set includes element-specific modifications.

Your calculation utilizes the auxiliary basis: cc-pVTZ/C 
  Obtained from the EMSL Basis Set Exchange (bse.pnl.gov) Feb. 2017
  H-He, B-F, Al-Ar, Ga-Kr : F. Weigend, A. Kohn, C. Hattig, J. Chem. Phys. 116, 3175 (2002)
             Li-Be, Na-Mg : C. Haettig, Phys. Chem. Chem. Phys. 7, 59 (2005)
                       Ne : C. Haettig, Phys. Chem. Chem. Phys. 7, 59 (2005)
                            F. Weigend, A. Kohn, C. Hattig, J. Chem. Phys. 116, 3175 (2002)
                    Sc-Zn : J. G. Hill, J. A. Platts, J. Chem. Phys. 128, 044104 (2008)

================================================================================
                                        WARNINGS
                       Please study these warnings very carefully!
================================================================================

INFO   : Checking CIS options ...

INFO   : the flag for use of the SHARK integral package has been found!

================================================================================
                                       INPUT FILE
================================================================================
NAME = b3lyp-train-17.inp
|  1> ! b3lyp aug-cc-PVTZ RIJCOSX Opt
|  2> %maxcore 4000
|  3> %basis
|  4>  AuxJ "aug-cc-PVTZ/JK"
|  5>  AuxC "aug-cc-PVTZ/C"
|  6>  newGTO H "cc-PVTZ" end
|  7>  newAuxJGTO H "cc-PVTZ/JK" end
|  8>  newAuxCGTO H "cc-PVTZ/C" end
|  9> end
| 10> %cpcm
| 11>  SMD true
| 12>  SMDsolvent "dichloromethane"
| 13> end
| 14> %pal nprocs 4 end
| 15> * xyz 0 1
| 16> C          4.77420        1.63780        1.76330
| 17> C          3.81630        0.77330        1.01460
| 18> C          3.88450        0.52050       -0.31330
| 19> C          2.90810       -0.33290       -0.90840
| 20> O          2.92630       -0.57610       -2.22540
| 21> C          1.91360       -0.86660       -0.12770
| 22> C          0.93720       -1.85680       -0.69260
| 23> O          1.32790       -2.85030       -1.26890
| 24> C         -0.48320       -1.56900       -0.50450
| 25> C         -0.97210       -0.36870       -0.16210
| 26> C         -2.36670       -0.01160        0.00320
| 27> C         -2.68450        1.28840        0.40560
| 28> C         -4.00130        1.67060        0.57940
| 29> C         -5.02800        0.77430        0.35400
| 30> C         -4.72930       -0.52660       -0.04770
| 31> O         -5.76350       -1.38110       -0.26130
| 32> C         -3.40970       -0.91280       -0.22110
| 33> C          1.86060       -0.58470        1.28590
| 34> O          1.05850       -0.99880        2.08230
| 35> O          2.85470        0.25690        1.77900
| 36> H          5.53160        2.04190        1.09990
| 37> H          5.25080        1.05610        2.55030
| 38> H          4.23510        2.45280        2.24290
| 39> H          4.66780        0.95090       -0.91650
| 40> H          3.70140       -0.17760       -2.64210
| 41> H         -1.12870       -2.40770       -0.72070
| 42> H         -0.27690        0.44310        0.01320
| 43> H         -1.88930        1.99570        0.58790
| 44> H         -4.23310        2.67730        0.89340
| 45> H         -6.06130        1.05400        0.48210
| 46> H         -5.42750       -2.24770       -0.52110
| 47> H         -3.19390       -1.92450       -0.53350
| 48> *
| 49> 
| 50> 
| 51> $new_job
| 52> ! b3lyp aug-cc-PVTZ RIJCOSX SP
| 53> %maxcore 4000
| 54> %basis
| 55>  AuxJ "aug-cc-PVTZ/JK"
| 56>  AuxC "aug-cc-PVTZ/C"
| 57>  newGTO H "cc-PVTZ" end
| 58>  newAuxJGTO H "cc-PVTZ/JK" end
| 59>  newAuxCGTO H "cc-PVTZ/C" end
| 60> end
| 61> %cpcm
| 62>  SMD true
| 63>  SMDsolvent "dichloromethane"
| 64> end
| 65> %pal nprocs 4 end
| 66> %tddft
| 67>  nroots 10
| 68>  maxdim 7
| 69> end
| 70> * xyzfile 0 1
| 71> 
| 72>                          ****END OF INPUT****
================================================================================


                 $$$$$$$$$$$$$$$$$$$$$$$$$$$$$$$$$$$$$$$$$$$$$$ 
                 $ THERE ARE  2 JOBS TO BE PROCESSED THIS RUN $
                 $$$$$$$$$$$$$$$$$$$$$$$$$$$$$$$$$$$$$$$$$$$$$$ 




                 $$$$$$$$$$$$$$$$  JOB NUMBER  1 $$$$$$$$$$$$$$


                       *****************************
                       * Geometry Optimization Run *
                       *****************************

Geometry optimization settings:
Update method            Update   .... BFGS
Choice of coordinates    CoordSys .... Z-matrix Internals
Initial Hessian          InHess   .... Almoef's Model

Convergence Tolerances:
Energy Change            TolE     ....  5.0000e-06 Eh
Max. Gradient            TolMAXG  ....  3.0000e-04 Eh/bohr
RMS Gradient             TolRMSG  ....  1.0000e-04 Eh/bohr
Max. Displacement        TolMAXD  ....  4.0000e-03 bohr
RMS Displacement         TolRMSD  ....  2.0000e-03 bohr
Strict Convergence                ....  False
------------------------------------------------------------------------------
                        ORCA OPTIMIZATION COORDINATE SETUP
------------------------------------------------------------------------------

The optimization will be done in new redundant internal coordinates
Making redundant internal coordinates   ...  (new redundants) done
Evaluating the initial hessian          ...  (Almloef) done
Evaluating the coordinates              ...  done
Calculating the B-matrix                .... done
Calculating the G-matrix                .... done
Diagonalizing the G-matrix              .... done
Small eigenvalue found = 1.950e-03
Small eigenvalue found = 8.220e-03
Small eigenvalue found = 1.361e-02
Small eigenvalue found = 1.887e-02
The first mode is                       ....   64
The number of degrees of freedom        ....   90

    -----------------------------------------------------------------
                    Redundant Internal Coordinates


    -----------------------------------------------------------------
         Definition                    Initial Value    Approx d2E/dq
    -----------------------------------------------------------------
      1. B(C   1,C   0)                  1.4918         0.429847   
      2. B(C   2,C   1)                  1.3535         0.714532   
      3. B(C   3,C   2)                  1.4268         0.545767   
      4. B(O   4,C   3)                  1.3394         0.673938   
      5. B(C   5,C   3)                  1.3724         0.666638   
      6. B(C   6,C   5)                  1.5010         0.415589   
      7. B(O   7,C   6)                  1.2132         1.071464   
      8. B(C   8,C   6)                  1.4614         0.480611   
      9. B(C   9,C   8)                  1.3405         0.749356   
     10. B(C  10,C   9)                  1.4491         0.502949   
     11. B(C  11,C  10)                  1.3975         0.607884   
     12. B(C  12,C  11)                  1.3821         0.643156   
     13. B(C  13,C  12)                  1.3814         0.644846   
     14. B(C  14,C  13)                  1.3939         0.615935   
     15. B(O  15,C  14)                  1.3584         0.628383   
     16. B(C  16,C  14)                  1.3858         0.634410   
     17. B(C  16,C  10)                  1.3965         0.609967   
     18. B(C  17,C   5)                  1.4424         0.515376   
     19. B(O  18,C  17)                  1.2038         1.109101   
     20. B(O  19,C  17)                  1.3927         0.554030   
     21. B(O  19,C   1)                  1.3325         0.691125   
     22. B(H  20,C   0)                  1.0849         0.366883   
     23. B(H  21,C   0)                  1.0885         0.362054   
     24. B(H  22,C   0)                  1.0885         0.362067   
     25. B(H  23,C   2)                  1.0783         0.375965   
     26. B(H  24,O   4)                  0.9660         0.508558   
     27. B(H  25,C   8)                  1.0802         0.373301   
     28. B(H  26,C   9)                  1.0831         0.369378   
     29. B(H  27,C  11)                  1.0797         0.373925   
     30. B(H  28,C  12)                  1.0797         0.373974   
     31. B(H  29,C  13)                  1.0781         0.376159   
     32. B(H  30,O  15)                  0.9651         0.510335   
     33. B(H  31,C  16)                  1.0806         0.372750   
     34. A(C   1,C   0,H  21)          109.5308         0.332210   
     35. A(H  20,C   0,H  22)          109.6508         0.291944   
     36. A(C   1,C   0,H  20)          110.9301         0.332940   
     37. A(H  21,C   0,H  22)          107.3619         0.291336   
     38. A(H  20,C   0,H  21)          109.6014         0.291942   
     39. A(C   1,C   0,H  22)          109.6942         0.332212   
     40. A(C   0,C   1,C   2)          124.6302         0.416979   
     41. A(C   2,C   1,O  19)          121.7885         0.451191   
     42. A(C   0,C   1,O  19)          113.5808         0.411837   
     43. A(C   1,C   2,H  23)          120.7238         0.364195   
     44. A(C   3,C   2,H  23)          120.1684         0.347915   
     45. A(C   1,C   2,C   3)          119.1067         0.435191   
     46. A(C   2,C   3,O   4)          120.6249         0.427827   
     47. A(O   4,C   3,C   5)          119.9074         0.443522   
     48. A(C   2,C   3,C   5)          119.4222         0.429797   
     49. A(C   3,O   4,H  24)          111.1089         0.374041   
     50. A(C   3,C   5,C  17)          120.5398         0.425406   
     51. A(C   3,C   5,C   6)          120.9209         0.409413   
     52. A(C   6,C   5,C  17)          118.2853         0.391283   
     53. A(O   7,C   6,C   8)          122.3724         0.454642   
     54. A(C   5,C   6,C   8)          116.9936         0.386542   
     55. A(C   5,C   6,O   7)          120.6324         0.442808   
     56. A(C   9,C   8,H  25)          121.8973         0.366728   
     57. A(C   6,C   8,C   9)          124.3109         0.429014   
     58. A(C   6,C   8,H  25)          113.7118         0.340166   
     59. A(C   8,C   9,C  10)          126.9274         0.432528   
     60. A(C  10,C   9,H  26)          114.4928         0.342156   
     61. A(C   8,C   9,H  26)          118.5793         0.366065   
     62. A(C  11,C  10,C  16)          118.4706         0.431262   
     63. A(C   9,C  10,C  11)          118.7482         0.416639   
     64. A(C   9,C  10,C  16)          122.7811         0.416893   
     65. A(C  10,C  11,C  12)          120.6717         0.435391   
     66. A(C  10,C  11,H  27)          119.3740         0.353983   
     67. A(C  12,C  11,H  27)          119.9530         0.357387   
     68. A(C  11,C  12,C  13)          120.5417         0.440050   
     69. A(C  13,C  12,H  28)          119.5281         0.357554   
     70. A(C  11,C  12,H  28)          119.9303         0.357395   
     71. A(C  12,C  13,C  14)          119.5579         0.436630   
     72. A(C  14,C  13,H  29)          118.7998         0.355131   
     73. A(C  12,C  13,H  29)          121.6423         0.357909   
     74. A(O  15,C  14,C  16)          122.0023         0.434058   
     75. A(C  13,C  14,C  16)          120.0127         0.435349   
     76. A(C  13,C  14,O  15)          117.9847         0.431758   
     77. A(C  14,O  15,H  30)          110.0056         0.369782   
     78. A(C  14,C  16,H  31)          119.1591         0.356366   
     79. A(C  10,C  16,H  31)          120.0958         0.353999   
     80. A(C  10,C  16,C  14)          120.7451         0.434587   
     81. A(O  18,C  17,O  19)          116.6950         0.466429   
     82. A(C   5,C  17,O  19)          116.0309         0.408954   
     83. A(C   5,C  17,O  18)          127.2735         0.463382   
     84. A(C   1,O  19,C  17)          123.1044         0.428111   
     85. D(C   2,C   1,C   0,H  22)    121.5682         0.013646   
     86. D(O  19,C   1,C   0,H  21)     59.4058         0.013646   
     87. D(C   2,C   1,C   0,H  20)      0.2821         0.013646   
     88. D(C   2,C   1,C   0,H  21)   -120.8338         0.013646   
     89. D(O  19,C   1,C   0,H  20)   -179.4783         0.013646   
     90. D(O  19,C   1,C   0,H  22)    -58.1922         0.013646   
     91. D(C   3,C   2,C   1,C   0)    179.6174         0.036086   
     92. D(H  23,C   2,C   1,C   0)     -0.0048         0.036086   
     93. D(H  23,C   2,C   1,O  19)    179.7369         0.036086   
     94. D(C   3,C   2,C   1,O  19)     -0.6409         0.036086   
     95. D(C   5,C   3,C   2,H  23)   -179.6482         0.020366   
     96. D(C   5,C   3,C   2,C   1)      0.7274         0.020366   
     97. D(O   4,C   3,C   2,H  23)     -2.1039         0.020366   
     98. D(O   4,C   3,C   2,C   1)    178.2717         0.020366   
     99. D(H  24,O   4,C   3,C   2)      5.2963         0.033775   
    100. D(H  24,O   4,C   3,C   5)   -177.1713         0.033775   
    101. D(C  17,C   5,C   3,O   4)   -178.3527         0.031057   
    102. D(C  17,C   5,C   3,C   2)     -0.7905         0.031057   
    103. D(C   6,C   5,C   3,O   4)      7.5354         0.031057   
    104. D(C   6,C   5,C   3,C   2)   -174.9024         0.031057   
    105. D(C   8,C   6,C   5,C  17)     58.0333         0.011831   
    106. D(C   8,C   6,C   5,C   3)   -127.7252         0.011831   
    107. D(O   7,C   6,C   5,C  17)   -121.5065         0.011831   
    108. D(O   7,C   6,C   5,C   3)     52.7350         0.011831   
    109. D(H  25,C   8,C   6,O   7)     12.8971         0.015727   
    110. D(H  25,C   8,C   6,C   5)   -166.6341         0.015727   
    111. D(C   9,C   8,C   6,O   7)   -163.8956         0.015727   
    112. D(C   9,C   8,C   6,C   5)     16.5733         0.015727   
    113. D(C  10,C   9,C   8,H  25)      1.6337         0.040039   
    114. D(H  26,C   9,C   8,C   6)     -1.5823         0.040039   
    115. D(C  10,C   9,C   8,C   6)    178.1745         0.040039   
    116. D(H  26,C   9,C   8,H  25)   -178.1231         0.040039   
    117. D(C  16,C  10,C   9,H  26)    177.9355         0.017232   
    118. D(C  16,C  10,C   9,C   8)     -1.8298         0.017232   
    119. D(C  11,C  10,C   9,H  26)     -2.1455         0.017232   
    120. D(C  11,C  10,C   9,C   8)    178.0892         0.017232   
    121. D(H  27,C  11,C  10,C  16)    179.6941         0.025511   
    122. D(H  27,C  11,C  10,C   9)     -0.2284         0.025511   
    123. D(C  12,C  11,C  10,C  16)      0.1184         0.025511   
    124. D(C  12,C  11,C  10,C   9)   -179.8041         0.025511   
    125. D(H  28,C  12,C  11,H  27)      0.2488         0.028759   
    126. D(H  28,C  12,C  11,C  10)    179.8220         0.028759   
    127. D(C  13,C  12,C  11,H  27)   -179.7795         0.028759   
    128. D(C  13,C  12,C  11,C  10)     -0.2062         0.028759   
    129. D(H  29,C  13,C  12,H  28)      0.1016         0.028921   
    130. D(H  29,C  13,C  12,C  11)   -179.8703         0.028921   
    131. D(C  14,C  13,C  12,H  28)   -179.8180         0.028921   
    132. D(C  14,C  13,C  12,C  11)      0.2101         0.028921   
    133. D(C  16,C  14,C  13,H  29)    179.9480         0.026231   
    134. D(C  16,C  14,C  13,C  12)     -0.1301         0.026231   
    135. D(O  15,C  14,C  13,H  29)      0.1247         0.026231   
    136. D(O  15,C  14,C  13,C  12)   -179.9534         0.026231   
    137. D(H  30,O  15,C  14,C  16)      0.9904         0.029028   
    138. D(H  30,O  15,C  14,C  13)   -179.1901         0.029028   
    139. D(H  31,C  16,C  14,O  15)     -0.1418         0.027931   
    140. D(H  31,C  16,C  14,C  13)   -179.9578         0.027931   
    141. D(C  10,C  16,C  14,O  15)    179.8618         0.027931   
    142. D(C  10,C  16,C  14,C  13)      0.0459         0.027931   
    143. D(H  31,C  16,C  10,C  11)    179.9646         0.025696   
    144. D(H  31,C  16,C  10,C   9)     -0.1163         0.025696   
    145. D(C  14,C  16,C  10,C  11)     -0.0391         0.025696   
    146. D(C  14,C  16,C  10,C   9)    179.8800         0.025696   
    147. D(O  18,C  17,C   5,C   3)   -178.9771         0.018108   
    148. D(O  19,C  17,C   5,C   6)    174.9992         0.018108   
    149. D(O  19,C  17,C   5,C   3)      0.7348         0.018108   
    150. D(O  18,C  17,C   5,C   6)     -4.7127         0.018108   
    151. D(C   1,O  19,C  17,O  18)    179.0935         0.022216   
    152. D(C   1,O  19,C  17,C   5)     -0.6499         0.022216   
    153. D(C  17,O  19,C   1,C   2)      0.6329         0.035683   
    154. D(C  17,O  19,C   1,C   0)   -179.5991         0.035683   
    -----------------------------------------------------------------

Number of atoms                         .... 32
Number of degrees of freedom            .... 154

         *************************************************************
         *                GEOMETRY OPTIMIZATION CYCLE   1            *
         *************************************************************
---------------------------------
CARTESIAN COORDINATES (ANGSTROEM)
---------------------------------
  C      4.774200    1.637800    1.763300
  C      3.816300    0.773300    1.014600
  C      3.884500    0.520500   -0.313300
  C      2.908100   -0.332900   -0.908400
  O      2.926300   -0.576100   -2.225400
  C      1.913600   -0.866600   -0.127700
  C      0.937200   -1.856800   -0.692600
  O      1.327900   -2.850300   -1.268900
  C     -0.483200   -1.569000   -0.504500
  C     -0.972100   -0.368700   -0.162100
  C     -2.366700   -0.011600    0.003200
  C     -2.684500    1.288400    0.405600
  C     -4.001300    1.670600    0.579400
  C     -5.028000    0.774300    0.354000
  C     -4.729300   -0.526600   -0.047700
  O     -5.763500   -1.381100   -0.261300
  C     -3.409700   -0.912800   -0.221100
  C      1.860600   -0.584700    1.285900
  O      1.058500   -0.998800    2.082300
  O      2.854700    0.256900    1.779000
  H      5.531600    2.041900    1.099900
  H      5.250800    1.056100    2.550300
  H      4.235100    2.452800    2.242900
  H      4.667800    0.950900   -0.916500
  H      3.701400   -0.177600   -2.642100
  H     -1.128700   -2.407700   -0.720700
  H     -0.276900    0.443100    0.013200
  H     -1.889300    1.995700    0.587900
  H     -4.233100    2.677300    0.893400
  H     -6.061300    1.054000    0.482100
  H     -5.427500   -2.247700   -0.521100
  H     -3.193900   -1.924500   -0.533500

----------------------------
CARTESIAN COORDINATES (A.U.)
----------------------------
  NO LB      ZA    FRAG     MASS         X           Y           Z
   0 C     6.0000    0    12.011    9.021931    3.094993    3.332154
   1 C     6.0000    0    12.011    7.211762    1.461325    1.917316
   2 C     6.0000    0    12.011    7.340641    0.983602   -0.592051
   3 C     6.0000    0    12.011    5.495513   -0.629090   -1.716627
   4 O     8.0000    0    15.999    5.529906   -1.088671   -4.205397
   5 C     6.0000    0    12.011    3.616180   -1.637637   -0.241318
   6 C     6.0000    0    12.011    1.771051   -3.508843   -1.308824
   7 O     8.0000    0    15.999    2.509367   -5.386286   -2.397873
   8 C     6.0000    0    12.011   -0.913116   -2.964980   -0.953367
   9 C     6.0000    0    12.011   -1.837003   -0.696742   -0.306325
  10 C     6.0000    0    12.011   -4.472415   -0.021921    0.006047
  11 C     6.0000    0    12.011   -5.072970    2.434723    0.766473
  12 C     6.0000    0    12.011   -7.561361    3.156976    1.094907
  13 C     6.0000    0    12.011   -9.501543    1.463215    0.668963
  14 C     6.0000    0    12.011   -8.937082   -0.995130   -0.090140
  15 O     8.0000    0    15.999  -10.891437   -2.609901   -0.493785
  16 C     6.0000    0    12.011   -6.443399   -1.724942   -0.417818
  17 C     6.0000    0    12.011    3.516024   -1.104923    2.429999
  18 O     8.0000    0    15.999    2.000275   -1.887458    3.934977
  19 O     8.0000    0    15.999    5.394601    0.485471    3.361823
  20 H     1.0000    0     1.008   10.453209    3.858632    2.078510
  21 H     1.0000    0     1.008    9.922574    1.995740    4.819369
  22 H     1.0000    0     1.008    8.003179    4.635120    4.238467
  23 H     1.0000    0     1.008    8.820864    1.796941   -1.731934
  24 H     1.0000    0     1.008    6.994632   -0.335615   -4.992845
  25 H     1.0000    0     1.008   -2.132934   -4.549894   -1.361926
  26 H     1.0000    0     1.008   -0.523265    0.837338    0.024944
  27 H     1.0000    0     1.008   -3.570260    3.771326    1.110970
  28 H     1.0000    0     1.008   -7.999400    5.059364    1.688281
  29 H     1.0000    0     1.008  -11.454197    1.991771    0.911037
  30 H     1.0000    0     1.008  -10.256489   -4.247537   -0.984736
  31 H     1.0000    0     1.008   -6.035596   -3.636778   -1.008169

--------------------------------
INTERNAL COORDINATES (ANGSTROEM)
--------------------------------
 C      0   0   0     0.000000000000     0.00000000     0.00000000
 C      1   0   0     1.491805734672     0.00000000     0.00000000
 C      2   1   0     1.353468688223   124.63017811     0.00000000
 C      3   2   1     1.426812016350   119.10672350   179.61741877
 O      4   3   2     1.339390338923   120.62491883   178.27172915
 C      4   3   2     1.372355067029   119.42216122     0.72744251
 C      6   4   3     1.500988011278   120.92089077   185.09758599
 O      7   6   4     1.213181944310   120.63239869    52.73501362
 C      7   6   4     1.461419381971   116.99355148   232.27483770
 C      9   7   6     1.340515221846   124.31086448    16.57326699
 C     10   9   7     1.449052676751   126.92741810   178.17447459
 C     11  10   9     1.397470071236   118.74821266   178.08918395
 C     12  11  10     1.382116319273   120.67170686   180.19593077
 C     13  12  11     1.381402092079   120.54167488   359.79377180
 C     14  13  12     1.393888585935   119.55789214     0.21014891
 O     15  14  13     1.358442067223   117.98472663   180.04662855
 C     15  14  13     1.385843483226   120.01271319   359.86986224
 C      6   4   3     1.442408253581   120.53983896   359.20950418
 O     18   6   4     1.203784108551   127.27348612   181.02289514
 O      2   1   3     1.332535507970   113.58083633   180.23959108
 H      1   2   3     1.084919872617   110.93007408     0.28211789
 H      1   2   3     1.088527193046   109.53081098   239.16619126
 H      1   2   3     1.088517326458   109.69422263   121.56821256
 H      3   2   1     1.078264016834   120.72377430     0.00000000
 H      5   4   3     0.966033720944   111.10887630     5.29625232
 H      9   7   6     1.080199231624   113.71183934   193.36590795
 H     10   9   7     1.083075422120   118.57933879   358.41770918
 H     12  11  10     1.079745164379   119.37396650   359.77161473
 H     13  12  11     1.079709280316   119.93025424   179.82201435
 H     14  13  12     1.078123643188   121.64230466   180.12973803
 H     16  15  14     0.965084245027   110.00556236   180.80991205
 H     17  15  14     1.080601818433   119.15909730   180.04223658

---------------------------
INTERNAL COORDINATES (A.U.)
---------------------------
 C      0   0   0     0.000000000000     0.00000000     0.00000000
 C      1   0   0     2.819104283543     0.00000000     0.00000000
 C      2   1   0     2.557685151579   124.63017811     0.00000000
 C      3   2   1     2.696283955489   119.10672350   179.61741877
 O      4   3   2     2.531080926984   120.62491883   178.27172915
 C      4   3   2     2.593375235184   119.42216122     0.72744251
 C      6   4   3     2.836456271614   120.92089077   185.09758599
 O      7   6   4     2.292581625364   120.63239869    52.73501362
 C      7   6   4     2.761682398729   116.99355148   232.27483770
 C      9   7   6     2.533206647641   124.31086448    16.57326699
 C     10   9   7     2.738312712685   126.92741810   178.17447459
 C     11  10   9     2.640835714987   118.74821266   178.08918395
 C     12  11  10     2.611821328649   120.67170686   180.19593077
 C     13  12  11     2.610471634855   120.54167488   359.79377180
 C     14  13  12     2.634067688616   119.55789214     0.21014891
 O     15  14  13     2.567083475849   117.98472663   180.04662855
 C     15  14  13     2.618864647777   120.01271319   359.86986224
 C      6   4   3     2.725756572577   120.53983896   359.20950418
 O     18   6   4     2.274822289528   127.27348612   181.02289514
 O      2   1   3     2.518127173788   113.58083633   180.23959108
 H      1   2   3     2.050201436495   110.93007408     0.28211789
 H      1   2   3     2.057018284182   109.53081098   239.16619126
 H      1   2   3     2.056999639034   109.69422263   121.56821256
 H      3   2   1     2.037623691879   120.72377430     0.00000000
 H      5   4   3     1.825539168716   111.10887630     5.29625232
 H      9   7   6     2.041280717841   113.71183934   193.36590795
 H     10   9   7     2.046715930188   118.57933879   358.41770918
 H     12  11  10     2.040422655102   119.37396650   359.77161473
 H     13  12  11     2.040354844050   119.93025424   179.82201435
 H     14  13  12     2.037358424130   121.64230466   180.12973803
 H     16  15  14     1.823744919264   110.00556236   180.80991205
 H     17  15  14     2.042041496655   119.15909730   180.04223658

---------------------
BASIS SET INFORMATION
---------------------
There are 3 groups of distinct atoms

 Group   1 Type C   : 19s6p3d2f contracted to 5s4p3d2f pattern {88111/3111/111/11}
 Group   2 Type O   : 19s6p3d2f contracted to 5s4p3d2f pattern {88111/3111/111/11}
 Group   3 Type H   : 5s2p1d contracted to 3s2p1d pattern {311/11/1}

Atom   0C    basis set group =>   1
Atom   1C    basis set group =>   1
Atom   2C    basis set group =>   1
Atom   3C    basis set group =>   1
Atom   4O    basis set group =>   2
Atom   5C    basis set group =>   1
Atom   6C    basis set group =>   1
Atom   7O    basis set group =>   2
Atom   8C    basis set group =>   1
Atom   9C    basis set group =>   1
Atom  10C    basis set group =>   1
Atom  11C    basis set group =>   1
Atom  12C    basis set group =>   1
Atom  13C    basis set group =>   1
Atom  14C    basis set group =>   1
Atom  15O    basis set group =>   2
Atom  16C    basis set group =>   1
Atom  17C    basis set group =>   1
Atom  18O    basis set group =>   2
Atom  19O    basis set group =>   2
Atom  20H    basis set group =>   3
Atom  21H    basis set group =>   3
Atom  22H    basis set group =>   3
Atom  23H    basis set group =>   3
Atom  24H    basis set group =>   3
Atom  25H    basis set group =>   3
Atom  26H    basis set group =>   3
Atom  27H    basis set group =>   3
Atom  28H    basis set group =>   3
Atom  29H    basis set group =>   3
Atom  30H    basis set group =>   3
Atom  31H    basis set group =>   3
---------------------------------
AUXILIARY/J BASIS SET INFORMATION
---------------------------------
There are 3 groups of distinct atoms

 Group   1 Type C   : 10s7p5d2f1g contracted to 10s7p5d2f1g pattern {1111111111/1111111/11111/11/1}
 Group   2 Type O   : 10s7p5d2f1g contracted to 10s7p5d2f1g pattern {1111111111/1111111/11111/11/1}
 Group   3 Type H   : 4s3p2d1f contracted to 4s3p2d1f pattern {1111/111/11/1}

Atom   0C    basis set group =>   1
Atom   1C    basis set group =>   1
Atom   2C    basis set group =>   1
Atom   3C    basis set group =>   1
Atom   4O    basis set group =>   2
Atom   5C    basis set group =>   1
Atom   6C    basis set group =>   1
Atom   7O    basis set group =>   2
Atom   8C    basis set group =>   1
Atom   9C    basis set group =>   1
Atom  10C    basis set group =>   1
Atom  11C    basis set group =>   1
Atom  12C    basis set group =>   1
Atom  13C    basis set group =>   1
Atom  14C    basis set group =>   1
Atom  15O    basis set group =>   2
Atom  16C    basis set group =>   1
Atom  17C    basis set group =>   1
Atom  18O    basis set group =>   2
Atom  19O    basis set group =>   2
Atom  20H    basis set group =>   3
Atom  21H    basis set group =>   3
Atom  22H    basis set group =>   3
Atom  23H    basis set group =>   3
Atom  24H    basis set group =>   3
Atom  25H    basis set group =>   3
Atom  26H    basis set group =>   3
Atom  27H    basis set group =>   3
Atom  28H    basis set group =>   3
Atom  29H    basis set group =>   3
Atom  30H    basis set group =>   3
Atom  31H    basis set group =>   3
---------------------------------
AUXILIARY/C BASIS SET INFORMATION
---------------------------------
There are 3 groups of distinct atoms

 Group   1 Type C   : 9s7p6d4f2g contracted to 9s7p6d4f2g pattern {111111111/1111111/111111/1111/11}
 Group   2 Type O   : 9s7p6d4f2g contracted to 9s7p6d4f2g pattern {111111111/1111111/111111/1111/11}
 Group   3 Type H   : 4s3p2d1f contracted to 4s3p2d1f pattern {1111/111/11/1}

Atom   0C    basis set group =>   1
Atom   1C    basis set group =>   1
Atom   2C    basis set group =>   1
Atom   3C    basis set group =>   1
Atom   4O    basis set group =>   2
Atom   5C    basis set group =>   1
Atom   6C    basis set group =>   1
Atom   7O    basis set group =>   2
Atom   8C    basis set group =>   1
Atom   9C    basis set group =>   1
Atom  10C    basis set group =>   1
Atom  11C    basis set group =>   1
Atom  12C    basis set group =>   1
Atom  13C    basis set group =>   1
Atom  14C    basis set group =>   1
Atom  15O    basis set group =>   2
Atom  16C    basis set group =>   1
Atom  17C    basis set group =>   1
Atom  18O    basis set group =>   2
Atom  19O    basis set group =>   2
Atom  20H    basis set group =>   3
Atom  21H    basis set group =>   3
Atom  22H    basis set group =>   3
Atom  23H    basis set group =>   3
Atom  24H    basis set group =>   3
Atom  25H    basis set group =>   3
Atom  26H    basis set group =>   3
Atom  27H    basis set group =>   3
Atom  28H    basis set group =>   3
Atom  29H    basis set group =>   3
Atom  30H    basis set group =>   3
Atom  31H    basis set group =>   3


           ************************************************************
           *        Program running with 4 parallel MPI-processes     *
           *              working on a common directory               *
           ************************************************************
------------------------------------------------------------------------------
                           ORCA GTO INTEGRAL CALCULATION
                           -- RI-GTO INTEGRALS CHOSEN --
------------------------------------------------------------------------------
------------------------------------------------------------------------------
                   ___                                                        
                  /   \      - P O W E R E D   B Y -                         
                 /     \                                                     
                 |  |  |   _    _      __       _____    __    __             
                 |  |  |  | |  | |    /  \     |  _  \  |  |  /  |          
                  \  \/   | |  | |   /    \    | | | |  |  | /  /          
                 / \  \   | |__| |  /  /\  \   | |_| |  |  |/  /          
                |  |  |   |  __  | /  /__\  \  |    /   |      \           
                |  |  |   | |  | | |   __   |  |    \   |  |\   \          
                \     /   | |  | | |  |  |  |  | |\  \  |  | \   \       
                 \___/    |_|  |_| |__|  |__|  |_| \__\ |__|  \__/        
                                                                              
                      - O R C A' S   B I G   F R I E N D -                    
                                      &                                       
                       - I N T E G R A L  F E E D E R -                       
                                                                              
 v1 FN, 2020, v2 2021                                                         
------------------------------------------------------------------------------


Reading SHARK input file b3lyp-train-17.SHARKINP.tmp ... ok
----------------------
SHARK INTEGRAL PACKAGE
----------------------

Number of atoms                             ...     32
Number of basis functions                   ...   1208
Number of shells                            ...    472
Maximum angular momentum                    ...      3
Integral batch strategy                     ... SHARK/LIBINT Hybrid
RI-J (if used) integral strategy            ... SPLIT-RIJ (Revised 2003 algorithm where possible)
Printlevel                                  ...      1
Contraction scheme used                     ... PARTIAL GENERAL contraction
Coulomb Range Separation                    ... NOT USED
Exchange Range Separation                   ... NOT USED
Finite Nucleus Model                        ... NOT USED
Auxiliary Coulomb fitting basis             ... AVAILABLE
   # of basis functions in Aux-J            ...   1940
   # of shells in Aux-J                     ...    620
   Maximum angular momentum in Aux-J        ...      4
Auxiliary J/K fitting basis                 ... NOT available
Auxiliary Correlation fitting basis         ... AVAILABLE
   # of basis functions in Aux-C            ...   2480
   # of shells in Aux-C                     ...    680
   Maximum angular momentum in Aux-C        ...      4
Auxiliary 'external' fitting basis          ... NOT available
Integral threshold                          ...     2.500000e-11
Primitive cut-off                           ...     2.500000e-12
Primitive pair pre-selection threshold      ...     2.500000e-12

Calculating pre-screening integrals         ... done (  0.3 sec) Dimension = 472
Calculating pre-screening integrals (ORCA)  ... done (  0.6 sec) Dimension = 352
Organizing shell pair data                  ... done (  1.5 sec)
Shell pair information
Total number of shell pairs                 ...    111628
Shell pairs after pre-screening             ...     69883
Total number of primitive shell pairs       ...    144012
Primitive shell pairs kept                  ...     81639
          la=0 lb=0:  15794 shell pairs
          la=1 lb=0:  17865 shell pairs
          la=1 lb=1:   4342 shell pairs
          la=2 lb=0:  11705 shell pairs
          la=2 lb=1:   5785 shell pairs
          la=2 lb=2:   1974 shell pairs
          la=3 lb=0:   6414 shell pairs
          la=3 lb=1:   3211 shell pairs
          la=3 lb=2:   2170 shell pairs
          la=3 lb=3:    623 shell pairs

Calculating one electron integrals          ... done (  0.2 sec)
Calculating RI/J V-Matrix + Cholesky decomp.... done (  0.3 sec)
Calculating RI/C V-Matrix + Cholesky decomp.... done (  0.5 sec)
Calculating Nuclear repulsion               ... done (  0.0 sec) ENN=   1439.514730946674 Eh

SHARK setup successfully completed in   4.7 seconds

Maximum memory used throughout the entire GTOINT-calculation: 111.3 MB


           ************************************************************
           *        Program running with 4 parallel MPI-processes     *
           *              working on a common directory               *
           ************************************************************
-------------------------------------------------------------------------------
                                 ORCA SCF
-------------------------------------------------------------------------------

------------
SCF SETTINGS
------------
Hamiltonian:
 Density Functional     Method          .... DFT(GTOs)
 Exchange Functional    Exchange        .... B88
   X-Alpha parameter    XAlpha          ....  0.666667
   Becke's b parameter  XBeta           ....  0.004200
 Correlation Functional Correlation     .... LYP
 LDA part of GGA corr.  LDAOpt          .... VWN-5
 Gradients option       PostSCFGGA      .... off
 Hybrid DFT is turned on
   Fraction HF Exchange ScalHFX         ....  0.200000
   Scaling of DF-GGA-X  ScalDFX         ....  0.720000
   Scaling of DF-GGA-C  ScalDFC         ....  0.810000
   Scaling of DF-LDA-C  ScalLDAC        ....  1.000000
   Perturbative correction              ....  0.000000
   Density functional embedding theory  .... OFF
   NL short-range parameter             ....  4.800000
 RI-approximation to the Coulomb term is turned on
   Number of AuxJ basis functions       .... 1940
   RIJ-COSX (HFX calculated with COS-X)).... on


General Settings:
 Integral files         IntName         .... b3lyp-train-17
 Hartree-Fock type      HFTyp           .... RHF
 Total Charge           Charge          ....    0
 Multiplicity           Mult            ....    1
 Number of Electrons    NEL             ....  142
 Basis Dimension        Dim             .... 1088
 Nuclear Repulsion      ENuc            ....   1439.5147309467 Eh

Convergence Acceleration:
 DIIS                   CNVDIIS         .... on
   Start iteration      DIISMaxIt       ....    12
   Startup error        DIISStart       ....  0.200000
   # of expansion vecs  DIISMaxEq       ....     5
   Bias factor          DIISBfac        ....   1.050
   Max. coefficient     DIISMaxC        ....  10.000
 Trust-Rad. Augm. Hess. CNVTRAH         .... auto
   Auto Start mean grad. ratio tolernc. ....  1.125000
   Auto Start start iteration           ....    20
   Auto Start num. interpolation iter.  ....    10
   Max. Number of Micro iterations      ....    16
   Max. Number of Macro iterations      .... Maxiter - #DIIS iter
   Number of Davidson start vectors     ....     2
   Converg. threshold I  (grad. norm)   ....   1.000e-05
   Converg. threshold II (energy diff.) ....   1.000e-08
   Grad. Scal. Fac. for Micro threshold ....   0.100
   Minimum threshold for Micro iter.    ....   0.010
   NR start threshold (gradient norm)   ....   0.001
   Initial trust radius                 ....   0.400
   Minimum AH scaling param. (alpha)    ....   1.000
   Maximum AH scaling param. (alpha)    .... 1000.000
   Orbital update algorithm             .... Taylor
   White noise on init. David. guess    .... on
   Maximum white noise                  ....   0.010
   Quad. conv. algorithm                .... NR
 SOSCF                  CNVSOSCF        .... on
   Start iteration      SOSCFMaxIt      ....   150
   Startup grad/error   SOSCFStart      ....  0.003300
 Level Shifting         CNVShift        .... on
   Level shift para.    LevelShift      ....    0.2500
   Turn off err/grad.   ShiftErr        ....    0.0010
 Zerner damping         CNVZerner       .... off
 Static damping         CNVDamp         .... on
   Fraction old density DampFac         ....    0.7000
   Max. Damping (<1)    DampMax         ....    0.9800
   Min. Damping (>=0)   DampMin         ....    0.0000
   Turn off err/grad.   DampErr         ....    0.1000
 Fernandez-Rico         CNVRico         .... off

SCF Procedure:
 Maximum # iterations   MaxIter         ....   125
 SCF integral mode      SCFMode         .... Direct
   Integral package                     .... SHARK and LIBINT hybrid scheme
 Reset frequency        DirectResetFreq ....    20
 Integral Threshold     Thresh          ....  2.500e-11 Eh
 Primitive CutOff       TCut            ....  2.500e-12 Eh

Convergence Tolerance:
 Convergence Check Mode ConvCheckMode   .... Total+1el-Energy
 Convergence forced     ConvForced      .... 0
 Energy Change          TolE            ....  1.000e-08 Eh
 1-El. energy change                    ....  1.000e-05 Eh
 Orbital Gradient       TolG            ....  1.000e-05
 Orbital Rotation angle TolX            ....  1.000e-05
 DIIS Error             TolErr          ....  5.000e-07


Diagonalization of the overlap matrix:
Smallest eigenvalue                        ... 8.521e-07
Time for diagonalization                   ...    0.296 sec
Threshold for overlap eigenvalues          ... 1.000e-08
Number of eigenvalues below threshold      ... 0
Time for construction of square roots      ...    0.184 sec
Total time needed                          ...    0.487 sec

Time for model grid setup =    2.563 sec

------------------------------
INITIAL GUESS: MODEL POTENTIAL
------------------------------
Loading Hartree-Fock densities                     ... done
Calculating cut-offs                               ... done
Initializing the effective Hamiltonian             ... done
Setting up the integral package (SHARK)            ... done
Starting the Coulomb interaction                   ... done (   3.0 sec)
Reading the grid                                   ... done
Mapping shells                                     ... done
Starting the XC term evaluation                    ... done (   1.7 sec)
  promolecular density results
     # of electrons  =    141.988001684
     EX              =   -121.763924627
     EC              =     -4.910901880
     EX+EC           =   -126.674826507
Transforming the Hamiltonian                       ... done (   0.1 sec)
Diagonalizing the Hamiltonian                      ... done (   0.3 sec)
Back transforming the eigenvectors                 ... done (   0.1 sec)
Now organizing SCF variables                       ... done
                      ------------------
                      INITIAL GUESS DONE (   7.8 sec)
                      ------------------
-------------------
DFT GRID GENERATION
-------------------

General Integration Accuracy     IntAcc      ... 4.388
Radial Grid Type                 RadialGrid  ... OptM3 with GC (2021)
Angular Grid (max. ang.)         AngularGrid ... 4 (Lebedev-302)
Angular grid pruning method      GridPruning ... 4 (adaptive)
Weight generation scheme         WeightScheme... Becke
Basis function cutoff            BFCut       ... 1.0000e-11
Integration weight cutoff        WCut        ... 1.0000e-14
Angular grids for H and He will be reduced by one unit
Partially contracted basis set               ... off
Rotationally invariant grid construction     ... off

Total number of grid points                  ...   163616
Total number of batches                      ...     2572
Average number of points per batch           ...       63
Average number of grid points per atom       ...     5113
Time for grid setup =    2.256 sec

--------------------
COSX GRID GENERATION
--------------------

GRIDX 1
-------
General Integration Accuracy     IntAcc      ... 3.816
Radial Grid Type                 RadialGrid  ... OptM3 with GC (2021)
Angular Grid (max. ang.)         AngularGrid ... 1 (Lebedev-50)
Angular grid pruning method      GridPruning ... 4 (adaptive)
Weight generation scheme         WeightScheme... Becke
Basis function cutoff            BFCut       ... 1.0000e-11
Integration weight cutoff        WCut        ... 1.0000e-14
Angular grids for H and He will be reduced by one unit
Partially contracted basis set               ... on
Rotationally invariant grid construction     ... off

Total number of grid points                  ...    20829
Total number of batches                      ...      343
Average number of points per batch           ...       60
Average number of grid points per atom       ...      651
UseSFitting                                  ... on

GRIDX 2
-------
General Integration Accuracy     IntAcc      ... 4.020
Radial Grid Type                 RadialGrid  ... OptM3 with GC (2021)
Angular Grid (max. ang.)         AngularGrid ... 2 (Lebedev-110)
Angular grid pruning method      GridPruning ... 4 (adaptive)
Weight generation scheme         WeightScheme... Becke
Basis function cutoff            BFCut       ... 1.0000e-11
Integration weight cutoff        WCut        ... 1.0000e-14
Angular grids for H and He will be reduced by one unit
Partially contracted basis set               ... on
Rotationally invariant grid construction     ... off

Total number of grid points                  ...    50134
Total number of batches                      ...      799
Average number of points per batch           ...       62
Average number of grid points per atom       ...     1567
UseSFitting                                  ... on

GRIDX 3
-------
General Integration Accuracy     IntAcc      ... 4.338
Radial Grid Type                 RadialGrid  ... OptM3 with GC (2021)
Angular Grid (max. ang.)         AngularGrid ... 3 (Lebedev-194)
Angular grid pruning method      GridPruning ... 4 (adaptive)
Weight generation scheme         WeightScheme... Becke
Basis function cutoff            BFCut       ... 1.0000e-11
Integration weight cutoff        WCut        ... 1.0000e-14
Angular grids for H and He will be reduced by one unit
Partially contracted basis set               ... on
Rotationally invariant grid construction     ... off

Total number of grid points                  ...   108179
Total number of batches                      ...     1706
Average number of points per batch           ...       63
Average number of grid points per atom       ...     3381
UseSFitting                                  ... on

Time for X-Grid setup             =    5.972 sec


--------------------
CPCM SOLVATION MODEL
--------------------
CPCM parameters:
  Epsilon                                         ...       8.9300
  Refrac                                          ...       1.4242
  Rsolv                                           ...       1.3000
  Surface type                                    ... GAUSSIAN VDW
  Epsilon function type                           ...         CPCM
Solvent:                                     ... DICHLOROMETHANE
SMD-CDS solvent descriptors:
  Soln                                       ...    1.4242
  Soln25                                     ...    1.4212
  Sola                                       ...    0.1000
  Solb                                       ...    0.0500
  Solg                                       ...   39.1500
  Solc                                       ...    0.0000
  Solh                                       ...    0.6670
Radii:
 Radius for C  used is    3.4960 Bohr (=   1.8500 Ang.)
 Radius for O  used is    3.9949 Bohr (=   2.1140 Ang.)
 Radius for H  used is    2.2677 Bohr (=   1.2000 Ang.)
Calculating surface                               ...        done! (  0.0s)
GEPOL surface points                              ...         1723
GEPOL Volume                                      ...    2110.6121
GEPOL Surface-area                                ...    1138.7670
Calculating surface distance matrix               ...        done! (  0.0s)
Performing Cholesky decomposition & store         ...        done! (  0.2s)
Overall time for CPCM initialization              ...                 0.2s
 re-compute Schwartz prescreening matrix in partically contracted basis (1) ...done (   0.253 sec)
--------------
SCF ITERATIONS
--------------
ITER       Energy         Delta-E        Max-DP      RMS-DP      [F,P]     Damp
               ***  Starting incremental Fock matrix formation  ***
  0   -954.2096461105   0.000000000000 0.30525749  0.00133187  0.3324051 0.7000
  1   -954.4774287655  -0.267782654992 0.22801885  0.00095894  0.1208225 0.7000
                               ***Turning on DIIS***
  2   -954.5792114713  -0.101782705785 0.46660406  0.00180763  0.0387475 0.0000
  3   -954.7484564568  -0.169244985434 0.07291145  0.00049512  0.0574727 0.0000
  4   -954.7798387619  -0.031382305184 0.01845431  0.00014551  0.0213434 0.0000
  5   -954.7825760081  -0.002737246136 0.00543979  0.00005931  0.0068001 0.0000
                      *** Initiating the SOSCF procedure ***
                           *** Shutting down DIIS ***
                      *** Re-Reading the Fockian *** 
                      *** Removing any level shift *** 
ITER      Energy       Delta-E        Grad      Rot      Max-DP    RMS-DP
  6   -954.78272468  -0.0001486726  0.000311  0.000311  0.004316  0.000028
               *** Restarting incremental Fock matrix formation ***
  7   -954.78273820  -0.0000135205  0.000133  0.000861  0.036140  0.000283
  8   -954.78273984  -0.0000016377  0.000149  0.000480  0.007001  0.000086
  9   -954.78274154  -0.0000017056  0.000062  0.000245  0.013001  0.000095
 10   -954.78274176  -0.0000002153  0.000051  0.000081  0.002571  0.000026
 11   -954.78274193  -0.0000001688  0.000022  0.000060  0.014381  0.000047
 12   -954.78274193   0.0000000018  0.000010  0.000030  0.011334  0.000030
 13   -954.78274197  -0.0000000411  0.000005  0.000026  0.015954  0.000048
 14   -954.78274197  -0.0000000052  0.000004  0.000009  0.010018  0.000029
                  ***Gradient check signals convergence***
              ***Rediagonalizing the Fockian in SOSCF/NRSCF***

               *****************************************************
               *                     SUCCESS                       *
               *           SCF CONVERGED AFTER  15 CYCLES          *
               *****************************************************

Old exchange energy                            =    -24.646210110 Eh
New exchange energy                            =    -24.646264244 Eh
Exchange energy change after final integration =     -0.000054133 Eh
Total energy after final integration           =   -954.782796085 Eh
Final COS-X integration done in                =   130.996 sec

SMD CDS free energy correction energy :                -4.72739     Kcal/mol
Total Energy after SMD CDS correction =              -954.790329661 Eh

----------------
TOTAL SCF ENERGY
----------------

Total Energy       :         -954.79032966 Eh          -25981.16573 eV

Components:
Nuclear Repulsion  :         1439.51473095 Eh           39171.18725 eV
Electronic Energy  :        -2394.30506061 Eh          -65152.35298 eV
One Electron Energy:        -4160.17409332 Eh         -113204.09226 eV
Two Electron Energy:         1765.86903271 Eh           48051.73928 eV
Max COSX asymmetry :            0.00003483 Eh               0.00095 eV
CPCM Dielectric    :           -0.03741030 Eh              -1.01799 eV
SMD CDS (Gcds)     :           -0.00753358 Eh              -0.20500 eV

Virial components:
Potential Energy   :        -1904.55146673 Eh          -51825.48017 eV
Kinetic Energy     :          949.76113706 Eh           25844.31444 eV
Virial Ratio       :            2.00529522


DFT components:
N(Alpha)           :       71.000160612825 electrons
N(Beta)            :       71.000160612825 electrons
N(Total)           :      142.000321225650 electrons
E(X)               :      -98.060912559124 Eh       
E(C)               :       -5.785970616025 Eh       
E(XC)              :     -103.846883175149 Eh       
DFET-embed. en.    :        0.000000000000 Eh       
CPCM Solvation Model Properties:
Surface-charge          :           -0.03777564
Charge-correction       :            0.00026249 Eh               0.00714 eV
Free-energy (cav+disp)  :           -0.00753358 Eh              -0.20500 eV

---------------
SCF CONVERGENCE
---------------

  Last Energy change         ...    2.1735e-08  Tolerance :   1.0000e-08
  Last MAX-Density change    ...    3.7748e-15  Tolerance :   1.0000e-07
  Last RMS-Density change    ...    1.5275e-17  Tolerance :   5.0000e-09
  Last Orbital Gradient      ...    1.5307e-06  Tolerance :   1.0000e-05
  Last Orbital Rotation      ...    6.2738e-06  Tolerance :   1.0000e-05

             **** THE GBW FILE WAS UPDATED (b3lyp-train-17.gbw) ****
             **** DENSITY b3lyp-train-17.scfp WAS UPDATED ****
             **** ENERGY FILE WAS UPDATED (b3lyp-train-17.en.tmp) ****
             **** THE GBW FILE WAS UPDATED (b3lyp-train-17.gbw) ****
             **** DENSITY b3lyp-train-17.scfp WAS UPDATED ****
----------------
ORBITAL ENERGIES
----------------

  NO   OCC          E(Eh)            E(eV) 
   0   2.0000     -19.203382      -522.5506 
   1   2.0000     -19.185501      -522.0640 
   2   2.0000     -19.161605      -521.4138 
   3   2.0000     -19.116455      -520.1852 
   4   2.0000     -19.107642      -519.9454 
   5   2.0000     -10.306966      -280.4668 
   6   2.0000     -10.275810      -279.6190 
   7   2.0000     -10.269550      -279.4487 
   8   2.0000     -10.263552      -279.2854 
   9   2.0000     -10.240348      -278.6540 
  10   2.0000     -10.193595      -277.3818 
  11   2.0000     -10.191404      -277.3222 
  12   2.0000     -10.185999      -277.1751 
  13   2.0000     -10.185191      -277.1531 
  14   2.0000     -10.177637      -276.9476 
  15   2.0000     -10.175956      -276.9018 
  16   2.0000     -10.175617      -276.8926 
  17   2.0000     -10.175269      -276.8832 
  18   2.0000     -10.173212      -276.8272 
  19   2.0000     -10.172416      -276.8055 
  20   2.0000      -1.132532       -30.8178 
  21   2.0000      -1.095133       -29.8001 
  22   2.0000      -1.067424       -29.0461 
  23   2.0000      -1.046244       -28.4697 
  24   2.0000      -1.037307       -28.2266 
  25   2.0000      -0.868163       -23.6239 
  26   2.0000      -0.837309       -22.7843 
  27   2.0000      -0.812251       -22.1025 
  28   2.0000      -0.800563       -21.7844 
  29   2.0000      -0.752395       -20.4737 
  30   2.0000      -0.746693       -20.3185 
  31   2.0000      -0.721383       -19.6298 
  32   2.0000      -0.670199       -18.2370 
  33   2.0000      -0.665139       -18.0994 
  34   2.0000      -0.647405       -17.6168 
  35   2.0000      -0.623681       -16.9712 
  36   2.0000      -0.588437       -16.0122 
  37   2.0000      -0.572868       -15.5885 
  38   2.0000      -0.559558       -15.2263 
  39   2.0000      -0.547452       -14.8969 
  40   2.0000      -0.532934       -14.5019 
  41   2.0000      -0.511228       -13.9112 
  42   2.0000      -0.496666       -13.5150 
  43   2.0000      -0.490039       -13.3346 
  44   2.0000      -0.474486       -12.9114 
  45   2.0000      -0.463027       -12.5996 
  46   2.0000      -0.456465       -12.4210 
  47   2.0000      -0.447198       -12.1689 
  48   2.0000      -0.436699       -11.8832 
  49   2.0000      -0.433419       -11.7939 
  50   2.0000      -0.427191       -11.6245 
  51   2.0000      -0.423460       -11.5229 
  52   2.0000      -0.421677       -11.4744 
  53   2.0000      -0.420092       -11.4313 
  54   2.0000      -0.409795       -11.1511 
  55   2.0000      -0.403877       -10.9901 
  56   2.0000      -0.398140       -10.8339 
  57   2.0000      -0.386496       -10.5171 
  58   2.0000      -0.376808       -10.2535 
  59   2.0000      -0.367526       -10.0009 
  60   2.0000      -0.364276        -9.9125 
  61   2.0000      -0.359420        -9.7803 
  62   2.0000      -0.353952        -9.6315 
  63   2.0000      -0.348268        -9.4769 
  64   2.0000      -0.306415        -8.3380 
  65   2.0000      -0.292268        -7.9530 
  66   2.0000      -0.287909        -7.8344 
  67   2.0000      -0.261072        -7.1041 
  68   2.0000      -0.244957        -6.6656 
  69   2.0000      -0.234926        -6.3927 
  70   2.0000      -0.229283        -6.2391 
  71   0.0000      -0.079911        -2.1745 
  72   0.0000      -0.050386        -1.3711 
  73   0.0000      -0.011297        -0.3074 
  74   0.0000      -0.006376        -0.1735 
  75   0.0000      -0.002240        -0.0610 
  76   0.0000       0.001144         0.0311 
  77   0.0000       0.008427         0.2293 
  78   0.0000       0.011135         0.3030 
  79   0.0000       0.012989         0.3534 
  80   0.0000       0.021163         0.5759 
  81   0.0000       0.026446         0.7196 
  82   0.0000       0.031296         0.8516 
  83   0.0000       0.035625         0.9694 
  84   0.0000       0.038113         1.0371 
  85   0.0000       0.040266         1.0957 
  86   0.0000       0.043029         1.1709 
  87   0.0000       0.049027         1.3341 
  88   0.0000       0.050157         1.3649 
  89   0.0000       0.055958         1.5227 
  90   0.0000       0.061958         1.6860 
  91   0.0000       0.065203         1.7743 
  92   0.0000       0.067917         1.8481 
  93   0.0000       0.075304         2.0491 
  94   0.0000       0.075987         2.0677 
  95   0.0000       0.081580         2.2199 
  96   0.0000       0.081863         2.2276 
  97   0.0000       0.082607         2.2479 
  98   0.0000       0.088098         2.3973 
  99   0.0000       0.094098         2.5605 
 100   0.0000       0.095993         2.6121 
 101   0.0000       0.097013         2.6399 
 102   0.0000       0.103884         2.8268 
 103   0.0000       0.106075         2.8865 
 104   0.0000       0.108643         2.9563 
 105   0.0000       0.111083         3.0227 
 106   0.0000       0.114720         3.1217 
 107   0.0000       0.119448         3.2503 
 108   0.0000       0.120457         3.2778 
 109   0.0000       0.124261         3.3813 
 110   0.0000       0.126593         3.4448 
 111   0.0000       0.127673         3.4742 
 112   0.0000       0.129115         3.5134 
 113   0.0000       0.130874         3.5613 
 114   0.0000       0.132694         3.6108 
 115   0.0000       0.137143         3.7319 
 116   0.0000       0.139270         3.7897 
 117   0.0000       0.141707         3.8560 
 118   0.0000       0.143471         3.9040 
 119   0.0000       0.146515         3.9869 
 120   0.0000       0.151358         4.1187 
 121   0.0000       0.152060         4.1377 
 122   0.0000       0.154011         4.1909 
 123   0.0000       0.156571         4.2605 
 124   0.0000       0.158764         4.3202 
 125   0.0000       0.160398         4.3647 
 126   0.0000       0.165111         4.4929 
 127   0.0000       0.169962         4.6249 
 128   0.0000       0.174118         4.7380 
 129   0.0000       0.176681         4.8077 
 130   0.0000       0.177650         4.8341 
 131   0.0000       0.180139         4.9018 
 132   0.0000       0.182594         4.9686 
 133   0.0000       0.184940         5.0325 
 134   0.0000       0.185504         5.0478 
 135   0.0000       0.188860         5.1391 
 136   0.0000       0.194151         5.2831 
 137   0.0000       0.195911         5.3310 
 138   0.0000       0.198864         5.4114 
 139   0.0000       0.201184         5.4745 
 140   0.0000       0.203449         5.5361 
 141   0.0000       0.206800         5.6273 
 142   0.0000       0.208289         5.6678 
 143   0.0000       0.209734         5.7072 
 144   0.0000       0.214695         5.8422 
 145   0.0000       0.216788         5.8991 
 146   0.0000       0.217503         5.9185 
 147   0.0000       0.224256         6.1023 
 148   0.0000       0.226620         6.1666 
 149   0.0000       0.227696         6.1959 
 150   0.0000       0.229676         6.2498 
 151   0.0000       0.233385         6.3507 
 152   0.0000       0.234757         6.3881 
 153   0.0000       0.240042         6.5319 
 154   0.0000       0.242614         6.6019 
 155   0.0000       0.247806         6.7431 
 156   0.0000       0.248913         6.7733 
 157   0.0000       0.250055         6.8043 
 158   0.0000       0.256307         6.9745 
 159   0.0000       0.257714         7.0128 
 160   0.0000       0.259000         7.0478 
 161   0.0000       0.262397         7.1402 
 162   0.0000       0.263268         7.1639 
 163   0.0000       0.265605         7.2275 
 164   0.0000       0.268157         7.2969 
 165   0.0000       0.272022         7.4021 
 166   0.0000       0.272505         7.4152 
 167   0.0000       0.277165         7.5420 
 168   0.0000       0.278471         7.5776 
 169   0.0000       0.280327         7.6281 
 170   0.0000       0.286145         7.7864 
 171   0.0000       0.289885         7.8882 
 172   0.0000       0.291404         7.9295 
 173   0.0000       0.296515         8.0686 
 174   0.0000       0.297037         8.0828 
 175   0.0000       0.306581         8.3425 
 176   0.0000       0.308676         8.3995 
 177   0.0000       0.309613         8.4250 
 178   0.0000       0.314236         8.5508 
 179   0.0000       0.317068         8.6278 
 180   0.0000       0.320257         8.7146 
 181   0.0000       0.322790         8.7836 
 182   0.0000       0.324003         8.8166 
 183   0.0000       0.328932         8.9507 
 184   0.0000       0.330192         8.9850 
 185   0.0000       0.331104         9.0098 
 186   0.0000       0.336443         9.1551 
 187   0.0000       0.341128         9.2826 
 188   0.0000       0.343929         9.3588 
 189   0.0000       0.346050         9.4165 
 190   0.0000       0.349004         9.4969 
 191   0.0000       0.350617         9.5408 
 192   0.0000       0.353164         9.6101 
 193   0.0000       0.357030         9.7153 
 194   0.0000       0.361492         9.8367 
 195   0.0000       0.363325         9.8866 
 196   0.0000       0.366368         9.9694 
 197   0.0000       0.370428        10.0799 
 198   0.0000       0.373969        10.1762 
[...]
B( 17-C , 18-O ) :   0.9189 B( 17-C , 19-O ) :   0.6183 

-------
TIMINGS
-------

Total SCF time: 0 days 0 hours 5 min 1 sec 

Total time                  ....     301.544 sec
Sum of individual times     ....     297.221 sec  ( 98.6%)

Fock matrix formation       ....     286.354 sec  ( 95.0%)
  Split-RI-J                ....      15.374 sec  (  5.4% of F)
  Chain of spheres X        ....     251.364 sec  ( 87.8% of F)
  XC integration            ....      11.027 sec  (  3.9% of F)
    Basis function eval.    ....       1.781 sec  ( 16.2% of XC)
    Density eval.           ....       4.645 sec  ( 42.1% of XC)
    XC-Functional eval.     ....       0.111 sec  (  1.0% of XC)
    XC-Potential eval.      ....       4.244 sec  ( 38.5% of XC)
Diagonalization             ....       0.458 sec  (  0.2%)
Density matrix formation    ....       0.050 sec  (  0.0%)
Population analysis         ....       0.585 sec  (  0.2%)
Initial guess               ....       0.992 sec  (  0.3%)
Orbital Transformation      ....       0.000 sec  (  0.0%)
Orbital Orthonormalization  ....       0.921 sec  (  0.3%)
DIIS solution               ....       0.195 sec  (  0.1%)
SOSCF solution              ....       0.363 sec  (  0.1%)
Grid generation             ....       8.223 sec  (  2.7%)

Maximum memory used throughout the entire SCF-calculation: 293.6 MB


           ************************************************************
           *        Program running with 4 parallel MPI-processes     *
           *              working on a common directory               *
           ************************************************************
------------------------------------------------------------------------------
                        ORCA TD-DFT/TDA CALCULATION
------------------------------------------------------------------------------

Input orbitals are from        ... b3lyp-train-17_job2.gbw
CI-vector output               ... b3lyp-train-17_job2.cis
Tamm-Dancoff approximation     ... operative
CIS-Integral strategy          ... AO-integrals
Integral handling              ... AO integral Direct
Max. core memory used          ... 4000 MB
Reference state                ... RHF
Generation of triplets         ... off
Follow IRoot                   ... off
Number of operators            ... 1
Orbital ranges used for CIS calculation:
 Operator 0:  Orbitals  20... 70  to  71...1087
XAS localization array:
 Operator 0:  Orbitals  -1... -1

-------------------
XC-INTEGRATION GRID
-------------------

General Integration Accuracy     IntAcc      ... 3.467
Radial Grid Type                 RadialGrid  ... OptM3 with GC (2021)
Angular Grid (max. ang.)         AngularGrid ... 1 (Lebedev-50)
Angular grid pruning method      GridPruning ... 4 (adaptive)
Weight generation scheme         WeightScheme... Becke
Basis function cutoff            BFCut       ... 1.0000e-11
Integration weight cutoff        WCut        ... 1.0000e-14
Angular grids for H and He will be reduced by one unit
Partially contracted basis set               ... off
Rotationally invariant grid construction     ... off

Total number of grid points                  ...    24501
Total number of batches                      ...      398
Average number of points per batch           ...       61
Average number of grid points per atom       ...      766

---------------------
COSX-INTEGRATION GRID
---------------------

General Integration Accuracy     IntAcc      ... 3.067
Radial Grid Type                 RadialGrid  ... OptM3 with GC (2021)
Angular Grid (max. ang.)         AngularGrid ... 1 (Lebedev-50)
Angular grid pruning method      GridPruning ... 4 (adaptive)
Weight generation scheme         WeightScheme... Becke
Basis function cutoff            BFCut       ... 1.0000e-11
Integration weight cutoff        WCut        ... 1.0000e-14
Angular grids for H and He will be reduced by one unit
Partially contracted basis set               ... on
Rotationally invariant grid construction     ... off

Total number of grid points                  ...    11093
Total number of batches                      ...      189
Average number of points per batch           ...       58
Average number of grid points per atom       ...      347

---------------
TD-DFT XC SETUP
---------------

DFT calculation                         ... on
Name of the grid file                   ... b3lyp-train-17_job2.grid_cis.tmp
Exchange functional (TD-DFT)            ... B88
   X-Alpha parameter    XAlpha (TD-DFT) ...  0.666667
   Becke's b parameter  XBeta (TD-DFT)  ...  0.004200
Correlation functional (TD-DFT)         ... LYP
 LDA part of GGA corr.  LDAOpt (TD-DFT) ... VWN-5
Hybrid DFT                              ... on
   Exchange mixing (TD-DFT)             ...  0.200
   GGA exch. scaling (TD-DFT)           ...  0.720
   GGA corr. scaling (TD-DFT)           ...  0.810

Building densities             ... done
Calculating rho(r) on the grid ... done
Building xc-kernel on the grid ... done
                    *** TD-DFT CALCULATION INITIALIZED ***

---------------------------------
    LR-CPCM (non-equilibrium)
---------------------------------

Setting up LR-CPCM             ... done

------------------------
DAVIDSON-DIAGONALIZATION
------------------------

Dimension of the eigenvalue problem            ...  51867
Number of roots to be determined               ...     10
Maximum size of the expansion space            ...     70
Maximum number of iterations                   ...    100
Convergence tolerance for the residual         ...    1.000e-06
Convergence tolerance for the energies         ...    1.000e-06
Orthogonality tolerance                        ...    1.000e-14
Level Shift                                    ...    0.000e+00
Constructing the preconditioner                ... o.k.
Building the initial guess                     ... o.k.
Number of trial vectors determined             ...     70


                       ****Iteration    0****

   Memory handling for direct AO based CIS:
   Memory per vector needed      ...    54 MB
   Memory needed                 ...  1625 MB
   Memory available              ...  4000 MB
   Number of vectors per batch   ...    73
   Number of batches             ...     1
   Time for densities:            0.702
   Time for RI-J (Direct):       20.188
   Time for K (COSX):           107.137
   Time for XC-Integration:      45.381
   Time for LR-CPCM terms:       22.324
   Time for Sigma-Completion:     0.573
   Size of expansion space: 30
   Lowest Energy          :     0.121715519789
   Maximum Energy change  :     0.198569752852 (vector 9)
   Maximum residual norm  :     0.011532149741

                       ****Iteration    1****
   Time for densities:            0.238
   Time for RI-J (Direct):       11.518
   Time for K (COSX):            37.695
   Time for XC-Integration:      15.291
   Time for LR-CPCM terms:       10.064
   Time for Sigma-Completion:     0.192
   Size of expansion space: 40
   Lowest Energy          :     0.120325596525
   Maximum Energy change  :     0.013223432199 (vector 9)
   Maximum residual norm  :     0.001278143847

                       ****Iteration    2****
   Time for densities:            0.236
   Time for RI-J (Direct):       11.575
   Time for K (COSX):            37.685
   Time for XC-Integration:      16.034
   Time for LR-CPCM terms:       10.147
   Time for Sigma-Completion:     0.193
   Size of expansion space: 50
   Lowest Energy          :     0.120224639662
   Maximum Energy change  :     0.001838543814 (vector 5)
   Maximum residual norm  :     0.000108172743

                       ****Iteration    3****
   Time for densities:            0.239
   Time for RI-J (Direct):       11.558
   Time for K (COSX):            37.622
   Time for XC-Integration:      15.650
   Time for LR-CPCM terms:       10.117
   Time for Sigma-Completion:     0.198
   Size of expansion space: 60
   Lowest Energy          :     0.120220509698
   Maximum Energy change  :     0.000159354830 (vector 5)
   Maximum residual norm  :     0.000011085068

                       ****Iteration    4****
   Time for densities:            0.239
   Time for RI-J (Direct):       11.601
   Time for K (COSX):            37.722
   Time for XC-Integration:      15.747
   Time for LR-CPCM terms:       10.149
   Time for Sigma-Completion:     0.194
   Size of expansion space: 70
   Lowest Energy          :     0.120220268534
   Maximum Energy change  :     0.000015265422 (vector 5)
   Maximum residual norm  :     0.000000733411

      *** CONVERGENCE OF RESIDUAL NORM REACHED ***

Storing the converged CI vectors               ... b3lyp-train-17_job2.cis1

                 *** DAVIDSON DONE ***

Total time for solving the CIS problem:   500.977sec

------------------------------------
TD-DFT/TDA EXCITED STATES (SINGLETS)
------------------------------------

the weight of the individual excitations are printed if larger than 1.0e-02

STATE  1:  E=   0.120220 au      3.271 eV    26385.3 cm**-1 <S**2> =   0.000000
    67a ->  71a  :     0.080241 (c=  0.28326897)
    69a ->  71a  :     0.719090 (c= -0.84799203)
    70a ->  71a  :     0.172132 (c=  0.41488822)

STATE  2:  E=   0.135761 au      3.694 eV    29796.1 cm**-1 <S**2> =   0.000000
    67a ->  71a  :     0.079073 (c=  0.28119837)
    68a ->  71a  :     0.127503 (c=  0.35707595)
    69a ->  71a  :     0.099848 (c= -0.31598713)
    70a ->  71a  :     0.643780 (c= -0.80235910)

STATE  3:  E=   0.137940 au      3.754 eV    30274.2 cm**-1 <S**2> =   0.000000
    65a ->  71a  :     0.010888 (c= -0.10434329)
    67a ->  71a  :     0.768912 (c=  0.87687649)
    67a ->  73a  :     0.013486 (c= -0.11612826)
    67a ->  77a  :     0.012476 (c= -0.11169497)
    68a ->  71a  :     0.041768 (c= -0.20437175)
    69a ->  71a  :     0.131095 (c=  0.36207081)

STATE  4:  E=   0.154200 au      4.196 eV    33843.1 cm**-1 <S**2> =   0.000000
    67a ->  71a  :     0.011872 (c=  0.10895817)
    68a ->  71a  :     0.701201 (c=  0.83737770)
    69a ->  71a  :     0.020587 (c=  0.14348334)
    69a ->  72a  :     0.034052 (c= -0.18453115)
    70a ->  71a  :     0.114838 (c=  0.33887785)
    70a ->  72a  :     0.064968 (c=  0.25488837)

STATE  5:  E=   0.162767 au      4.429 eV    35723.2 cm**-1 <S**2> =   0.000000
    68a ->  71a  :     0.024678 (c= -0.15709348)
    68a ->  72a  :     0.032949 (c=  0.18151833)
    69a ->  72a  :     0.124273 (c=  0.35252428)
    70a ->  72a  :     0.802426 (c=  0.89578209)

STATE  6:  E=   0.170586 au      4.642 eV    37439.2 cm**-1 <S**2> =   0.000000
    66a ->  71a  :     0.029912 (c=  0.17294961)
    67a ->  72a  :     0.063479 (c=  0.25195066)
    68a ->  71a  :     0.041565 (c= -0.20387534)
    69a ->  72a  :     0.708392 (c= -0.84166052)
    70a ->  71a  :     0.016623 (c= -0.12893073)
    70a ->  72a  :     0.077609 (c=  0.27858314)

STATE  7:  E=   0.177546 au      4.831 eV    38966.8 cm**-1 <S**2> =   0.000000
    65a ->  71a  :     0.011440 (c= -0.10695683)
    66a ->  71a  :     0.761799 (c= -0.87281112)
    67a ->  72a  :     0.016770 (c=  0.12949827)
    68a ->  72a  :     0.162923 (c= -0.40363663)
    70a ->  72a  :     0.011963 (c=  0.10937745)

STATE  8:  E=   0.177751 au      4.837 eV    39011.9 cm**-1 <S**2> =   0.000000
    66a ->  71a  :     0.162991 (c= -0.40372134)
    68a ->  72a  :     0.780901 (c=  0.88368623)
    69a ->  72a  :     0.018958 (c= -0.13768918)
    70a ->  72a  :     0.017795 (c= -0.13339704)

STATE  9:  E=   0.182255 au      4.959 eV    40000.3 cm**-1 <S**2> =   0.000000
    66a ->  72a  :     0.026010 (c= -0.16127476)
    67a ->  72a  :     0.869115 (c= -0.93226354)
    69a ->  72a  :     0.058779 (c= -0.24244460)
    70a ->  72a  :     0.010674 (c=  0.10331381)

STATE 10:  E=   0.185244 au      5.041 eV    40656.4 cm**-1 <S**2> =   0.000000
    65a ->  71a  :     0.946520 (c= -0.97289244)
    66a ->  71a  :     0.010679 (c=  0.10333907)


-----------------------------
TD-DFT/TDA-EXCITATION SPECTRA
-----------------------------

Center of mass = (  0.0299, -0.6781,  0.3136)
Calculating the Dipole integrals                  ... done
Transforming integrals                            ... done
Calculating the Linear Momentum integrals         ... done
Transforming integrals                            ... done
Calculating angular momentum integrals            ... done
Transforming integrals                            ... done

-----------------------------------------------------------------------------
         ABSORPTION SPECTRUM VIA TRANSITION ELECTRIC DIPOLE MOMENTS
-----------------------------------------------------------------------------
State   Energy    Wavelength  fosc         T2        TX        TY        TZ  
        (cm-1)      (nm)                 (au**2)    (au)      (au)      (au) 
-----------------------------------------------------------------------------
   1   26385.3    379.0   0.019743663   0.24634  -0.49086  -0.01718  -0.07147
   2   29796.1    335.6   0.222732028   2.46093   1.23173  -0.93901  -0.24907
   3   30274.2    330.3   0.007806511   0.08489   0.07839   0.25937   0.10711
   4   33843.1    295.5   0.791095409   7.69547  -2.66669   0.74328   0.17826
   5   35723.2    279.9   0.078788208   0.72608   0.77213  -0.35547  -0.05942
   6   37439.2    267.1   0.187801799   1.65139  -0.36813  -1.23091  -0.02700
   7   38966.8    256.6   0.012088397   0.10213  -0.27456  -0.16254  -0.01804
   8   39011.9    256.3   0.002902717   0.02450   0.15646  -0.00365   0.00084
   9   40000.3    250.0   0.057552497   0.47367  -0.52388  -0.44630   0.00600
  10   40656.4    246.0   0.001409443   0.01141  -0.08911   0.02023  -0.05535

-----------------------------------------------------------------------------
         ABSORPTION SPECTRUM VIA TRANSITION VELOCITY DIPOLE MOMENTS
-----------------------------------------------------------------------------
State   Energy    Wavelength   fosc        P2         PX        PY        PZ  
        (cm-1)      (nm)                 (au**2)     (au)      (au)      (au) 
-----------------------------------------------------------------------------
   1   26385.3    379.0   0.012062319   0.00218   0.04661   0.00061   0.00141
   2   29796.1    335.6   0.064358390   0.01311  -0.11226  -0.01484  -0.01687
   3   30274.2    330.3   0.001256602   0.00026  -0.00888   0.00774  -0.01101
   4   33843.1    295.5   0.349997808   0.08095   0.28368  -0.01785   0.01279
   5   35723.2    279.9   0.035747312   0.00873  -0.09215   0.01340  -0.00754
   6   37439.2    267.1   0.016945007   0.00434   0.02282   0.05719   0.02334
   7   38966.8    256.6   0.005268010   0.00140   0.03666  -0.00005   0.00769
   8   39011.9    256.3   0.002952474   0.00079  -0.02773   0.00292  -0.00315
   9   40000.3    250.0   0.011404979   0.00312   0.05025   0.02379   0.00514
  10   40656.4    246.0   0.000108526   0.00003   0.00540   0.00061  -0.00078

-------------------------------------------------------------------
                             CD SPECTRUM
-------------------------------------------------------------------
State  Energy     Wavelength     R         MX        MY        MZ   
       (cm-1)       (nm)     (1e40*cgs)   (au)      (au)      (au)  
-------------------------------------------------------------------
   1   26385.3    379.0    -12.67947   0.07230  -0.08181  -0.10056
   2   29796.1    335.6     78.70275   0.03940  -0.11591  -0.03841
   3   30274.2    330.3    -35.68976   0.07476  -0.29624  -0.04414
   4   33843.1    295.5     81.54923  -0.03620   0.15746  -0.22775
   5   35723.2    279.9     -4.28265  -0.01704  -0.01519   0.02229
   6   37439.2    267.1    -145.74133  -0.23297   0.32457  -0.17111
   7   38966.8    256.6      2.00615  -0.09040   0.12980  -0.02958
   8   39011.9    256.3     -3.20039  -0.04300   0.02100   0.01997
   9   40000.3    250.0     26.85661  -0.24283   0.15678  -0.04652
  10   40656.4    246.0      3.85754  -0.08923   0.04338   0.01169

-------------------------------------------------------------------
         CD SPECTRUM VIA TRANSITION VELOCITY DIPOLE MOMENTS        
-------------------------------------------------------------------
State  Energy     Wavelength     R         MX        MY        MZ   
       (cm-1)       (nm)     (1e40*cgs)   (au)      (au)      (au)  
-------------------------------------------------------------------
   1   26385.3    379.0     12.46376   0.07230  -0.08181  -0.10056
   2   29796.1    335.6     -7.13654   0.03940  -0.11591  -0.03841
   3   30274.2    330.3     -8.44870   0.07476  -0.29624  -0.04414
   4   33843.1    295.5    -48.89636  -0.03620   0.15746  -0.22775
   5   35723.2    279.9      3.47194  -0.01704  -0.01519   0.02229
   6   37439.2    267.1     25.56613  -0.23297   0.32457  -0.17111
   7   38966.8    256.6     -9.42158  -0.09040   0.12980  -0.02958
   8   39011.9    256.3      3.15850  -0.04300   0.02100   0.01997
   9   40000.3    250.0    -22.53614  -0.24283   0.15678  -0.04652
  10   40656.4    246.0     -1.18301  -0.08923   0.04338   0.01169

Total run time:      507.544 sec

           *** ORCA-CIS/TD-DFT FINISHED WITHOUT ERROR ***

Maximum memory used throughout the entire CIS-calculation: 1490.7 MB

-----------------------
CIS/TD-DFT TOTAL ENERGY
-----------------------

    E(SCF)  =   -954.793872675 Eh
    DE(CIS) =      0.120220269 Eh (Root  1)
    ----------------------------- ---------
    E(tot)  =   -954.673652407 Eh


-------------------------   --------------------
FINAL SINGLE POINT ENERGY      -954.673652406517
-------------------------   --------------------


                            ***************************************
                            *     ORCA property calculations      *
                            ***************************************

                                    ---------------------
                                    Active property flags
                                    ---------------------
   (+) Dipole Moment


------------------------------------------------------------------------------
                       ORCA ELECTRIC PROPERTIES CALCULATION
------------------------------------------------------------------------------

Dipole Moment Calculation                       ... on
Quadrupole Moment Calculation                   ... off
Polarizability Calculation                      ... off
GBWName                                         ... b3lyp-train-17_job2.gbw
Electron density                                ... b3lyp-train-17_job2.scfp
The origin for moment calculation is the CENTER OF MASS  = ( 0.029931, -0.678078  0.313562)

-------------
DIPOLE MOMENT
-------------
                                X             Y             Z
Electronic contribution:      0.70736      -7.02081      -1.27800
Nuclear contribution   :      0.43450      10.25342      -0.31108
                        -----------------------------------------
Total Dipole Moment    :      1.14185       3.23261      -1.58908
                        -----------------------------------------
Magnitude (a.u.)       :      3.77873
Magnitude (Debye)      :      9.60476



--------------------
Rotational spectrum 
--------------------
 
Rotational constants in cm-1:     0.022204     0.005183     0.004798 
Rotational constants in MHz :   665.671576   155.395166   143.841674 

 Dipole components along the rotational axes: 
x,y,z [a.u.] :     1.057899     1.862856     3.112777 
x,y,z [Debye]:     2.688964     4.735005     7.912051 

 

Timings for individual modules:

Sum of individual times         ...      815.110 sec (=  13.585 min)
GTO integral calculation        ...        4.710 sec (=   0.079 min)   0.6 %
SCF iterations                  ...      302.085 sec (=   5.035 min)  37.1 %
CIS module                      ...      508.315 sec (=   8.472 min)  62.4 %



                             ****ORCA TERMINATED NORMALLY****
TOTAL RUN TIME: 0 days 3 hours 57 minutes 2 seconds 667 msec
