
                                 *****************
                                 * O   R   C   A *
                                 *****************

                                            #,                                       
                                            ###                                      
                                            ####                                     
                                            #####                                    
                                            ######                                   
                                           ########,                                 
                                     ,,################,,,,,                         
                               ,,#################################,,                 
                          ,,##########################################,,             
                       ,#########################################, ''#####,          
                    ,#############################################,,   '####,        
                  ,##################################################,,,,####,       
                ,###########''''           ''''###############################       
              ,#####''   ,,,,##########,,,,          '''####'''          '####       
            ,##' ,,,,###########################,,,                        '##       
           ' ,,###''''                  '''############,,,                           
         ,,##''                                '''############,,,,        ,,,,,,###''
      ,#''                                            '''#######################'''  
     '                                                          ''''####''''         
             ,#######,   #######,   ,#######,      ##                                
            ,#'     '#,  ##    ##  ,#'     '#,    #''#        ######   ,####,        
            ##       ##  ##   ,#'  ##            #'  '#       #        #'  '#        
            ##       ##  #######   ##           ,######,      #####,   #    #        
            '#,     ,#'  ##    ##  '#,     ,#' ,#      #,         ##   #,  ,#        
             '#######'   ##     ##  '#######'  #'      '#     #####' # '####'        



                  #######################################################
                  #                        -***-                        #
                  #          Department of theory and spectroscopy      #
                  #    Directorship and core code : Frank Neese         #
                  #        Max Planck Institute fuer Kohlenforschung    #
                  #                Kaiser Wilhelm Platz 1               #
                  #                 D-45470 Muelheim/Ruhr               #
                  #                      Germany                        #
                  #                                                     #
                  #                  All rights reserved                #
                  #                        -***-                        #
                  #######################################################


                         Program Version 5.0.2 -  RELEASE  -


 With contributions from (in alphabetic order):
   Daniel Aravena         : Magnetic Suceptibility
   Michael Atanasov       : Ab Initio Ligand Field Theory (pilot matlab implementation)
   Alexander A. Auer      : GIAO ZORA, VPT2 properties, NMR spectrum
   Ute Becker             : Parallelization
   Giovanni Bistoni       : ED, misc. LED, open-shell LED, HFLD
   Martin Brehm           : Molecular dynamics
   Dmytro Bykov           : SCF Hessian
   Vijay G. Chilkuri      : MRCI spin determinant printing, contributions to CSF-ICE
   Dipayan Datta          : RHF DLPNO-CCSD density
   Achintya Kumar Dutta   : EOM-CC, STEOM-CC
   Dmitry Ganyushin       : Spin-Orbit,Spin-Spin,Magnetic field MRCI
   Miquel Garcia          : C-PCM and meta-GGA Hessian, CC/C-PCM, Gaussian charge scheme
   Yang Guo               : DLPNO-NEVPT2, F12-NEVPT2, CIM, IAO-localization
   Andreas Hansen         : Spin unrestricted coupled pair/coupled cluster methods
   Benjamin Helmich-Paris : MC-RPA, TRAH-SCF, COSX integrals
   Lee Huntington         : MR-EOM, pCC
   Robert Izsak           : Overlap fitted RIJCOSX, COSX-SCS-MP3, EOM
   Marcus Kettner         : VPT2
   Christian Kollmar      : KDIIS, OOCD, Brueckner-CCSD(T), CCSD density, CASPT2, CASPT2-K
   Simone Kossmann        : Meta GGA functionals, TD-DFT gradient, OOMP2, MP2 Hessian
   Martin Krupicka        : Initial AUTO-CI
   Lucas Lang             : DCDCAS
   Marvin Lechner         : AUTO-CI (C++ implementation), FIC-MRCC
   Dagmar Lenk            : GEPOL surface, SMD
   Dimitrios Liakos       : Extrapolation schemes; Compound Job, initial MDCI parallelization
   Dimitrios Manganas     : Further ROCIS development; embedding schemes
   Dimitrios Pantazis     : SARC Basis sets
   Anastasios Papadopoulos: AUTO-CI, single reference methods and gradients
   Taras Petrenko         : DFT Hessian,TD-DFT gradient, ASA, ECA, R-Raman, ABS, FL, XAS/XES, NRVS
   Peter Pinski           : DLPNO-MP2, DLPNO-MP2 Gradient
   Christoph Reimann      : Effective Core Potentials
   Marius Retegan         : Local ZFS, SOC
   Christoph Riplinger    : Optimizer, TS searches, QM/MM, DLPNO-CCSD(T), (RO)-DLPNO pert. Triples
   Tobias Risthaus        : Range-separated hybrids, TD-DFT gradient, RPA, STAB
   Michael Roemelt        : Original ROCIS implementation
   Masaaki Saitow         : Open-shell DLPNO-CCSD energy and density
   Barbara Sandhoefer     : DKH picture change effects
   Avijit Sen             : IP-ROCIS
   Kantharuban Sivalingam : CASSCF convergence, NEVPT2, FIC-MRCI
   Bernardo de Souza      : ESD, SOC TD-DFT
   Georgi Stoychev        : AutoAux, RI-MP2 NMR, DLPNO-MP2 response
   Willem Van den Heuvel  : Paramagnetic NMR
   Boris Wezisla          : Elementary symmetry handling
   Frank Wennmohs         : Technical directorship


 We gratefully acknowledge several colleagues who have allowed us to
 interface, adapt or use parts of their codes:
   Stefan Grimme, W. Hujo, H. Kruse, P. Pracht,  : VdW corrections, initial TS optimization,
                  C. Bannwarth, S. Ehlert          DFT functionals, gCP, sTDA/sTD-DF
   Ed Valeev, F. Pavosevic, A. Kumar             : LibInt (2-el integral package), F12 methods
   Garnet Chan, S. Sharma, J. Yang, R. Olivares  : DMRG
   Ulf Ekstrom                                   : XCFun DFT Library
   Mihaly Kallay                                 : mrcc  (arbitrary order and MRCC methods)
   Jiri Pittner, Ondrej Demel                    : Mk-CCSD
   Frank Weinhold                                : gennbo (NPA and NBO analysis)
   Christopher J. Cramer and Donald G. Truhlar   : smd solvation model
   Lars Goerigk                                  : TD-DFT with DH, B97 family of functionals
   V. Asgeirsson, H. Jonsson                     : NEB implementation
   FAccTs GmbH                                   : IRC, NEB, NEB-TS, DLPNO-Multilevel, CI-OPT
                                                   MM, QMMM, 2- and 3-layer-ONIOM, Crystal-QMMM,
                                                   LR-CPCM, SF, NACMEs, symmetry and pop. for TD-DFT,
                                                   nearIR, NL-DFT gradient (VV10), updates on ESD,
                                                   ML-optimized integration grids
   S Lehtola, MJT Oliveira, MAL Marques          : LibXC Library
   Liviu Ungur et al                             : ANISO software


 Your calculation uses the libint2 library for the computation of 2-el integrals
 For citations please refer to: http://libint.valeyev.net

 Your ORCA version has been built with support for libXC version: 5.1.0
 For citations please refer to: https://tddft.org/programs/libxc/

 This ORCA versions uses:
   CBLAS   interface :  Fast vector & matrix operations
   LAPACKE interface :  Fast linear algebra routines
   SCALAPACK package :  Parallel linear algebra routines
   Shared memory     :  Shared parallel matrices
   BLAS/LAPACK       :  OpenBLAS 0.3.15  USE64BITINT DYNAMIC_ARCH NO_AFFINITY Haswell SINGLE_THREADED
        Core in use  :  Haswell
   Copyright (c) 2011-2014, The OpenBLAS Project


Your calculation utilizes the SMD solvation module
Please cite in your paper:
A.V. Marenich, C.J. Cramer, D.G. Truhlar J. Phys. Chem. B, 113, (2009), 6378 

================================================================================

----- Orbital basis set information -----
Your calculation utilizes the basis: aug-cc-pVTZ 
    H, B-Ne : Obtained from the ccRepo (grant-hill.group.shef.ac.uk/ccrepo) Feb. 2017
              R. A. Kendall, T. H. Dunning, Jr., R. J. Harrison, J. Chem. Phys. 96, 6796 (1992)
         He : Obtained from the ccRepo (grant-hill.group.shef.ac.uk/ccrepo) Feb. 2017
              D. E. Woon, T. H. Dunning, Jr., J. Chem. Phys. 100, 2975 (1994)
  Li-Be, Na : Obtained from the ccRepo (grant-hill.group.shef.ac.uk/ccrepo) Feb. 2017
              B. P. Prascher, D. E. Woon, K. A. Peterson, T. H. Dunning, Jr., A. K. Wilson, Theor. Chem. Acc. 128, 69 (2011)
         Mg : Obtained from the Peterson Research Group Website (tyr0.chem.wsu.edu/~kipeters) Feb. 2017
              B. P. Prascher, D. E. Woon, K. A. Peterson, T. H. Dunning, Jr., A. K. Wilson, Theor. Chem. Acc. 128, 69 (2011)
      Al-Ar : Obtained from the ccRepo (grant-hill.group.shef.ac.uk/ccrepo) Feb. 2017
              D. E. Woon, T. H. Dunning, Jr., J. Chem. Phys. 98, 1358 (1993)
      Sc-Zn : Obtained from the ccRepo (grant-hill.group.shef.ac.uk/ccrepo) Feb. 2017
              N. B. Balabanov, K. A. Peterson, J. Chem. Phys. 123, 064107 (2005)
              N. B. Balabanov, K. A. Peterson, J. Chem. Phys. 125, 074110 (2006)
      Ga-Kr : Obtained from the ccRepo (grant-hill.group.shef.ac.uk/ccrepo) Feb. 2017
              A. K. Wilson, D. E. Woon, K. A. Peterson, T. H. Dunning, Jr., J. Chem. Phys. 110, 7667 (1999)
     Ag, Au : Obtained from the Peterson Research Group Website (tyr0.chem.wsu.edu/~kipeters) Feb. 2017
              K. A. Peterson, C. Puzzarini, Theor. Chem. Acc. 114, 283 (2005)

The basis set includes element-specific modifications.

Your calculation utilizes the basis: cc-pVTZ 
       H, B-Ne : Obtained from the ccRepo (grant-hill.group.shef.ac.uk/ccrepo) Feb. 2017
                 T. H. Dunning, Jr., J. Chem. Phys. 90, 1007 (1989)
            He : Obtained from the ccRepo (grant-hill.group.shef.ac.uk/ccrepo) Feb. 2017
                 D. E. Woon, T. H. Dunning, Jr., J. Chem. Phys. 100, 2975 (1994)
  Li-Be, Na-Mg : Obtained from the ccRepo (grant-hill.group.shef.ac.uk/ccrepo) Feb. 2017
                 B. P. Prascher, D. E. Woon, K. A. Peterson, T. H. Dunning, Jr., A. K. Wilson, Theor. Chem. Acc. 128, 69 (2011)
         Al-Ar : Obtained from the ccRepo (grant-hill.group.shef.ac.uk/ccrepo) Feb. 2017
                 D. E. Woon, T. H. Dunning, Jr., J. Chem. Phys. 98, 1358 (1993)
            Ca : Obtained from the Peterson Research Group Website (tyr0.chem.wsu.edu/~kipeters) Feb. 2017
                 J. Koput, K. A. Peterson, J. Phys. Chem. 106, 9595 (2002)
         Sc-Zn : Obtained from the ccRepo (grant-hill.group.shef.ac.uk/ccrepo) Feb. 2017
                 N. B. Balabanov, K. A. Peterson, J. Chem. Phys. 123, 064107 (2005)
                 N. B. Balabanov, K. A. Peterson, J. Chem. Phys. 125, 074110 (2006)
         Ga-Kr : Obtained from the ccRepo (grant-hill.group.shef.ac.uk/ccrepo) Feb. 2017
                 A. K. Wilson, D. E. Woon, K. A. Peterson, T. H. Dunning, Jr., J. Chem. Phys. 110, 7667 (1999)
             Y : Obtained from the ccRepo (grant-hill.group.shef.ac.uk/ccrepo) Feb. 2017
                 K. A. Peterson, D. Figgen, M. Dolg, H. Stoll, J. Chem. Phys. 126, 124101 (2007)
        Ag, Au : Obtained from the Peterson Research Group Website (tyr0.chem.wsu.edu/~kipeters) Feb. 2017
                 K. A. Peterson, C. Puzzarini, Theor. Chem. Acc. 114, 283 (2005)

----- AuxJ basis set information -----
Your calculation utilizes the auxiliary basis: aug-cc-pVTZ/JK 
  H, B-F, Al-Cl, Ga-Br : Obtained from the TURBOMOLE 7.0 basis set library

The basis set includes element-specific modifications.

Your calculation utilizes the auxiliary basis: cc-pVTZ/JK 
  H, B-F, Al-Cl, Ga-Br : Obtained from the TURBOMOLE 7.0 basis set library

----- AuxC basis set information -----
Your calculation utilizes the auxiliary basis: aug-cc-pVTZ/C 
  H-He, B-F, Al-Ar, Ga-Kr : Obtained from the EMSL Basis Set Exchange (bse.pnl.gov) Feb. 2017
                            F. Weigend, A. Kohn, C. Hattig, J. Chem. Phys. 116, 3175 (2002)
                   Be, Mg : Obtained from the TURBOMOLE 7.0 basis set library
                            C. Haettig, Phys. Chem. Chem. Phys. 7, 59 (2005)
                       Ne : Obtained from the EMSL Basis Set Exchange (bse.pnl.gov) Feb. 2017
                            C. Haettig, Phys. Chem. Chem. Phys. 7, 59 (2005)
                            F. Weigend, A. Kohn, C. Hattig, J. Chem. Phys. 116, 3175 (2002)
                    Sc-Zn : Obtained from the EMSL Basis Set Exchange (bse.pnl.gov) Feb. 2017
                            J. G. Hill, J. A. Platts, J. Chem. Phys. 128, 044104 (2008)

The basis set includes element-specific modifications.

Your calculation utilizes the auxiliary basis: cc-pVTZ/C 
  Obtained from the EMSL Basis Set Exchange (bse.pnl.gov) Feb. 2017
  H-He, B-F, Al-Ar, Ga-Kr : F. Weigend, A. Kohn, C. Hattig, J. Chem. Phys. 116, 3175 (2002)
             Li-Be, Na-Mg : C. Haettig, Phys. Chem. Chem. Phys. 7, 59 (2005)
                       Ne : C. Haettig, Phys. Chem. Chem. Phys. 7, 59 (2005)
                            F. Weigend, A. Kohn, C. Hattig, J. Chem. Phys. 116, 3175 (2002)
                    Sc-Zn : J. G. Hill, J. A. Platts, J. Chem. Phys. 128, 044104 (2008)

================================================================================
                                        WARNINGS
                       Please study these warnings very carefully!
================================================================================


WARNING: Geometry Optimization
  ===> : Switching off AutoStart
         For restart on a previous wavefunction, please use MOREAD

INFO   : the flag for use of the SHARK integral package has been found!



***************************************
The coordinates will be read from file: 
***************************************


Your calculation utilizes the SMD solvation module
Please cite in your paper:
A.V. Marenich, C.J. Cramer, D.G. Truhlar J. Phys. Chem. B, 113, (2009), 6378 

================================================================================

----- Orbital basis set information -----
Your calculation utilizes the basis: aug-cc-pVTZ 
    H, B-Ne : Obtained from the ccRepo (grant-hill.group.shef.ac.uk/ccrepo) Feb. 2017
              R. A. Kendall, T. H. Dunning, Jr., R. J. Harrison, J. Chem. Phys. 96, 6796 (1992)
         He : Obtained from the ccRepo (grant-hill.group.shef.ac.uk/ccrepo) Feb. 2017
              D. E. Woon, T. H. Dunning, Jr., J. Chem. Phys. 100, 2975 (1994)
  Li-Be, Na : Obtained from the ccRepo (grant-hill.group.shef.ac.uk/ccrepo) Feb. 2017
              B. P. Prascher, D. E. Woon, K. A. Peterson, T. H. Dunning, Jr., A. K. Wilson, Theor. Chem. Acc. 128, 69 (2011)
         Mg : Obtained from the Peterson Research Group Website (tyr0.chem.wsu.edu/~kipeters) Feb. 2017
              B. P. Prascher, D. E. Woon, K. A. Peterson, T. H. Dunning, Jr., A. K. Wilson, Theor. Chem. Acc. 128, 69 (2011)
      Al-Ar : Obtained from the ccRepo (grant-hill.group.shef.ac.uk/ccrepo) Feb. 2017
              D. E. Woon, T. H. Dunning, Jr., J. Chem. Phys. 98, 1358 (1993)
      Sc-Zn : Obtained from the ccRepo (grant-hill.group.shef.ac.uk/ccrepo) Feb. 2017
              N. B. Balabanov, K. A. Peterson, J. Chem. Phys. 123, 064107 (2005)
              N. B. Balabanov, K. A. Peterson, J. Chem. Phys. 125, 074110 (2006)
      Ga-Kr : Obtained from the ccRepo (grant-hill.group.shef.ac.uk/ccrepo) Feb. 2017
              A. K. Wilson, D. E. Woon, K. A. Peterson, T. H. Dunning, Jr., J. Chem. Phys. 110, 7667 (1999)
     Ag, Au : Obtained from the Peterson Research Group Website (tyr0.chem.wsu.edu/~kipeters) Feb. 2017
              K. A. Peterson, C. Puzzarini, Theor. Chem. Acc. 114, 283 (2005)

The basis set includes element-specific modifications.

Your calculation utilizes the basis: cc-pVTZ 
       H, B-Ne : Obtained from the ccRepo (grant-hill.group.shef.ac.uk/ccrepo) Feb. 2017
                 T. H. Dunning, Jr., J. Chem. Phys. 90, 1007 (1989)
            He : Obtained from the ccRepo (grant-hill.group.shef.ac.uk/ccrepo) Feb. 2017
                 D. E. Woon, T. H. Dunning, Jr., J. Chem. Phys. 100, 2975 (1994)
  Li-Be, Na-Mg : Obtained from the ccRepo (grant-hill.group.shef.ac.uk/ccrepo) Feb. 2017
                 B. P. Prascher, D. E. Woon, K. A. Peterson, T. H. Dunning, Jr., A. K. Wilson, Theor. Chem. Acc. 128, 69 (2011)
         Al-Ar : Obtained from the ccRepo (grant-hill.group.shef.ac.uk/ccrepo) Feb. 2017
                 D. E. Woon, T. H. Dunning, Jr., J. Chem. Phys. 98, 1358 (1993)
            Ca : Obtained from the Peterson Research Group Website (tyr0.chem.wsu.edu/~kipeters) Feb. 2017
                 J. Koput, K. A. Peterson, J. Phys. Chem. 106, 9595 (2002)
         Sc-Zn : Obtained from the ccRepo (grant-hill.group.shef.ac.uk/ccrepo) Feb. 2017
                 N. B. Balabanov, K. A. Peterson, J. Chem. Phys. 123, 064107 (2005)
                 N. B. Balabanov, K. A. Peterson, J. Chem. Phys. 125, 074110 (2006)
         Ga-Kr : Obtained from the ccRepo (grant-hill.group.shef.ac.uk/ccrepo) Feb. 2017
                 A. K. Wilson, D. E. Woon, K. A. Peterson, T. H. Dunning, Jr., J. Chem. Phys. 110, 7667 (1999)
             Y : Obtained from the ccRepo (grant-hill.group.shef.ac.uk/ccrepo) Feb. 2017
                 K. A. Peterson, D. Figgen, M. Dolg, H. Stoll, J. Chem. Phys. 126, 124101 (2007)
        Ag, Au : Obtained from the Peterson Research Group Website (tyr0.chem.wsu.edu/~kipeters) Feb. 2017
                 K. A. Peterson, C. Puzzarini, Theor. Chem. Acc. 114, 283 (2005)

----- AuxJ basis set information -----
Your calculation utilizes the auxiliary basis: aug-cc-pVTZ/JK 
  H, B-F, Al-Cl, Ga-Br : Obtained from the TURBOMOLE 7.0 basis set library

The basis set includes element-specific modifications.

Your calculation utilizes the auxiliary basis: cc-pVTZ/JK 
  H, B-F, Al-Cl, Ga-Br : Obtained from the TURBOMOLE 7.0 basis set library

----- AuxC basis set information -----
Your calculation utilizes the auxiliary basis: aug-cc-pVTZ/C 
  H-He, B-F, Al-Ar, Ga-Kr : Obtained from the EMSL Basis Set Exchange (bse.pnl.gov) Feb. 2017
                            F. Weigend, A. Kohn, C. Hattig, J. Chem. Phys. 116, 3175 (2002)
                   Be, Mg : Obtained from the TURBOMOLE 7.0 basis set library
                            C. Haettig, Phys. Chem. Chem. Phys. 7, 59 (2005)
                       Ne : Obtained from the EMSL Basis Set Exchange (bse.pnl.gov) Feb. 2017
                            C. Haettig, Phys. Chem. Chem. Phys. 7, 59 (2005)
                            F. Weigend, A. Kohn, C. Hattig, J. Chem. Phys. 116, 3175 (2002)
                    Sc-Zn : Obtained from the EMSL Basis Set Exchange (bse.pnl.gov) Feb. 2017
                            J. G. Hill, J. A. Platts, J. Chem. Phys. 128, 044104 (2008)

The basis set includes element-specific modifications.

Your calculation utilizes the auxiliary basis: cc-pVTZ/C 
  Obtained from the EMSL Basis Set Exchange (bse.pnl.gov) Feb. 2017
  H-He, B-F, Al-Ar, Ga-Kr : F. Weigend, A. Kohn, C. Hattig, J. Chem. Phys. 116, 3175 (2002)
             Li-Be, Na-Mg : C. Haettig, Phys. Chem. Chem. Phys. 7, 59 (2005)
                       Ne : C. Haettig, Phys. Chem. Chem. Phys. 7, 59 (2005)
                            F. Weigend, A. Kohn, C. Hattig, J. Chem. Phys. 116, 3175 (2002)
                    Sc-Zn : J. G. Hill, J. A. Platts, J. Chem. Phys. 128, 044104 (2008)

================================================================================
                                        WARNINGS
                       Please study these warnings very carefully!
================================================================================

INFO   : Checking CIS options ...

INFO   : the flag for use of the SHARK integral package has been found!

================================================================================
                                       INPUT FILE
================================================================================
NAME = pbe0-train-17.inp
|  1> ! pbe0 aug-cc-PVTZ RIJCOSX Opt
|  2> %maxcore 4000
|  3> %basis
|  4>  AuxJ "aug-cc-PVTZ/JK"
|  5>  AuxC "aug-cc-PVTZ/C"
|  6>  newGTO H "cc-PVTZ" end
|  7>  newAuxJGTO H "cc-PVTZ/JK" end
|  8>  newAuxCGTO H "cc-PVTZ/C" end
|  9> end
| 10> %cpcm
| 11>  SMD true
| 12>  SMDsolvent "dichloromethane"
| 13> end
| 14> %pal nprocs 4 end
| 15> * xyz 0 1
| 16> C          4.77420        1.63780        1.76330
| 17> C          3.81630        0.77330        1.01460
| 18> C          3.88450        0.52050       -0.31330
| 19> C          2.90810       -0.33290       -0.90840
| 20> O          2.92630       -0.57610       -2.22540
| 21> C          1.91360       -0.86660       -0.12770
| 22> C          0.93720       -1.85680       -0.69260
| 23> O          1.32790       -2.85030       -1.26890
| 24> C         -0.48320       -1.56900       -0.50450
| 25> C         -0.97210       -0.36870       -0.16210
| 26> C         -2.36670       -0.01160        0.00320
| 27> C         -2.68450        1.28840        0.40560
| 28> C         -4.00130        1.67060        0.57940
| 29> C         -5.02800        0.77430        0.35400
| 30> C         -4.72930       -0.52660       -0.04770
| 31> O         -5.76350       -1.38110       -0.26130
| 32> C         -3.40970       -0.91280       -0.22110
| 33> C          1.86060       -0.58470        1.28590
| 34> O          1.05850       -0.99880        2.08230
| 35> O          2.85470        0.25690        1.77900
| 36> H          5.53160        2.04190        1.09990
| 37> H          5.25080        1.05610        2.55030
| 38> H          4.23510        2.45280        2.24290
| 39> H          4.66780        0.95090       -0.91650
| 40> H          3.70140       -0.17760       -2.64210
| 41> H         -1.12870       -2.40770       -0.72070
| 42> H         -0.27690        0.44310        0.01320
| 43> H         -1.88930        1.99570        0.58790
| 44> H         -4.23310        2.67730        0.89340
| 45> H         -6.06130        1.05400        0.48210
| 46> H         -5.42750       -2.24770       -0.52110
| 47> H         -3.19390       -1.92450       -0.53350
| 48> *
| 49> 
| 50> 
| 51> $new_job
| 52> ! pbe0 aug-cc-PVTZ RIJCOSX SP
| 53> %maxcore 4000
| 54> %basis
| 55>  AuxJ "aug-cc-PVTZ/JK"
| 56>  AuxC "aug-cc-PVTZ/C"
| 57>  newGTO H "cc-PVTZ" end
| 58>  newAuxJGTO H "cc-PVTZ/JK" end
| 59>  newAuxCGTO H "cc-PVTZ/C" end
| 60> end
| 61> %cpcm
| 62>  SMD true
| 63>  SMDsolvent "dichloromethane"
| 64> end
| 65> %pal nprocs 4 end
| 66> %tddft
| 67>  nroots 10
| 68>  maxdim 7
| 69> end
| 70> * xyzfile 0 1
| 71> 
| 72>                          ****END OF INPUT****
================================================================================


                 $$$$$$$$$$$$$$$$$$$$$$$$$$$$$$$$$$$$$$$$$$$$$$ 
                 $ THERE ARE  2 JOBS TO BE PROCESSED THIS RUN $
                 $$$$$$$$$$$$$$$$$$$$$$$$$$$$$$$$$$$$$$$$$$$$$$ 




                 $$$$$$$$$$$$$$$$  JOB NUMBER  1 $$$$$$$$$$$$$$


                       *****************************
                       * Geometry Optimization Run *
                       *****************************

Geometry optimization settings:
Update method            Update   .... BFGS
Choice of coordinates    CoordSys .... Z-matrix Internals
Initial Hessian          InHess   .... Almoef's Model

Convergence Tolerances:
Energy Change            TolE     ....  5.0000e-06 Eh
Max. Gradient            TolMAXG  ....  3.0000e-04 Eh/bohr
RMS Gradient             TolRMSG  ....  1.0000e-04 Eh/bohr
Max. Displacement        TolMAXD  ....  4.0000e-03 bohr
RMS Displacement         TolRMSD  ....  2.0000e-03 bohr
Strict Convergence                ....  False
------------------------------------------------------------------------------
                        ORCA OPTIMIZATION COORDINATE SETUP
------------------------------------------------------------------------------

The optimization will be done in new redundant internal coordinates
Making redundant internal coordinates   ...  (new redundants) done
Evaluating the initial hessian          ...  (Almloef) done
Evaluating the coordinates              ...  done
Calculating the B-matrix                .... done
Calculating the G-matrix                .... done
Diagonalizing the G-matrix              .... done
Small eigenvalue found = 1.950e-03
Small eigenvalue found = 8.220e-03
Small eigenvalue found = 1.361e-02
Small eigenvalue found = 1.887e-02
The first mode is                       ....   64
The number of degrees of freedom        ....   90

    -----------------------------------------------------------------
                    Redundant Internal Coordinates


    -----------------------------------------------------------------
         Definition                    Initial Value    Approx d2E/dq
    -----------------------------------------------------------------
      1. B(C   1,C   0)                  1.4918         0.429847   
      2. B(C   2,C   1)                  1.3535         0.714532   
      3. B(C   3,C   2)                  1.4268         0.545767   
      4. B(O   4,C   3)                  1.3394         0.673938   
      5. B(C   5,C   3)                  1.3724         0.666638   
      6. B(C   6,C   5)                  1.5010         0.415589   
      7. B(O   7,C   6)                  1.2132         1.071464   
      8. B(C   8,C   6)                  1.4614         0.480611   
      9. B(C   9,C   8)                  1.3405         0.749356   
     10. B(C  10,C   9)                  1.4491         0.502949   
     11. B(C  11,C  10)                  1.3975         0.607884   
     12. B(C  12,C  11)                  1.3821         0.643156   
     13. B(C  13,C  12)                  1.3814         0.644846   
     14. B(C  14,C  13)                  1.3939         0.615935   
     15. B(O  15,C  14)                  1.3584         0.628383   
     16. B(C  16,C  14)                  1.3858         0.634410   
     17. B(C  16,C  10)                  1.3965         0.609967   
     18. B(C  17,C   5)                  1.4424         0.515376   
     19. B(O  18,C  17)                  1.2038         1.109101   
     20. B(O  19,C  17)                  1.3927         0.554030   
     21. B(O  19,C   1)                  1.3325         0.691125   
     22. B(H  20,C   0)                  1.0849         0.366883   
     23. B(H  21,C   0)                  1.0885         0.362054   
     24. B(H  22,C   0)                  1.0885         0.362067   
     25. B(H  23,C   2)                  1.0783         0.375965   
     26. B(H  24,O   4)                  0.9660         0.508558   
     27. B(H  25,C   8)                  1.0802         0.373301   
     28. B(H  26,C   9)                  1.0831         0.369378   
     29. B(H  27,C  11)                  1.0797         0.373925   
     30. B(H  28,C  12)                  1.0797         0.373974   
     31. B(H  29,C  13)                  1.0781         0.376159   
     32. B(H  30,O  15)                  0.9651         0.510335   
     33. B(H  31,C  16)                  1.0806         0.372750   
     34. A(C   1,C   0,H  21)          109.5308         0.332210   
     35. A(H  20,C   0,H  22)          109.6508         0.291944   
     36. A(C   1,C   0,H  20)          110.9301         0.332940   
     37. A(H  21,C   0,H  22)          107.3619         0.291336   
     38. A(H  20,C   0,H  21)          109.6014         0.291942   
     39. A(C   1,C   0,H  22)          109.6942         0.332212   
     40. A(C   0,C   1,C   2)          124.6302         0.416979   
     41. A(C   2,C   1,O  19)          121.7885         0.451191   
     42. A(C   0,C   1,O  19)          113.5808         0.411837   
     43. A(C   1,C   2,H  23)          120.7238         0.364195   
     44. A(C   3,C   2,H  23)          120.1684         0.347915   
     45. A(C   1,C   2,C   3)          119.1067         0.435191   
     46. A(C   2,C   3,O   4)          120.6249         0.427827   
     47. A(O   4,C   3,C   5)          119.9074         0.443522   
     48. A(C   2,C   3,C   5)          119.4222         0.429797   
     49. A(C   3,O   4,H  24)          111.1089         0.374041   
     50. A(C   3,C   5,C  17)          120.5398         0.425406   
     51. A(C   3,C   5,C   6)          120.9209         0.409413   
     52. A(C   6,C   5,C  17)          118.2853         0.391283   
     53. A(O   7,C   6,C   8)          122.3724         0.454642   
     54. A(C   5,C   6,C   8)          116.9936         0.386542   
     55. A(C   5,C   6,O   7)          120.6324         0.442808   
     56. A(C   9,C   8,H  25)          121.8973         0.366728   
     57. A(C   6,C   8,C   9)          124.3109         0.429014   
     58. A(C   6,C   8,H  25)          113.7118         0.340166   
     59. A(C   8,C   9,C  10)          126.9274         0.432528   
     60. A(C  10,C   9,H  26)          114.4928         0.342156   
     61. A(C   8,C   9,H  26)          118.5793         0.366065   
     62. A(C  11,C  10,C  16)          118.4706         0.431262   
     63. A(C   9,C  10,C  11)          118.7482         0.416639   
     64. A(C   9,C  10,C  16)          122.7811         0.416893   
     65. A(C  10,C  11,C  12)          120.6717         0.435391   
     66. A(C  10,C  11,H  27)          119.3740         0.353983   
     67. A(C  12,C  11,H  27)          119.9530         0.357387   
     68. A(C  11,C  12,C  13)          120.5417         0.440050   
     69. A(C  13,C  12,H  28)          119.5281         0.357554   
     70. A(C  11,C  12,H  28)          119.9303         0.357395   
     71. A(C  12,C  13,C  14)          119.5579         0.436630   
     72. A(C  14,C  13,H  29)          118.7998         0.355131   
     73. A(C  12,C  13,H  29)          121.6423         0.357909   
     74. A(O  15,C  14,C  16)          122.0023         0.434058   
     75. A(C  13,C  14,C  16)          120.0127         0.435349   
     76. A(C  13,C  14,O  15)          117.9847         0.431758   
     77. A(C  14,O  15,H  30)          110.0056         0.369782   
     78. A(C  14,C  16,H  31)          119.1591         0.356366   
     79. A(C  10,C  16,H  31)          120.0958         0.353999   
     80. A(C  10,C  16,C  14)          120.7451         0.434587   
     81. A(O  18,C  17,O  19)          116.6950         0.466429   
     82. A(C   5,C  17,O  19)          116.0309         0.408954   
     83. A(C   5,C  17,O  18)          127.2735         0.463382   
     84. A(C   1,O  19,C  17)          123.1044         0.428111   
     85. D(C   2,C   1,C   0,H  22)    121.5682         0.013646   
     86. D(O  19,C   1,C   0,H  21)     59.4058         0.013646   
     87. D(C   2,C   1,C   0,H  20)      0.2821         0.013646   
     88. D(C   2,C   1,C   0,H  21)   -120.8338         0.013646   
     89. D(O  19,C   1,C   0,H  20)   -179.4783         0.013646   
     90. D(O  19,C   1,C   0,H  22)    -58.1922         0.013646   
     91. D(C   3,C   2,C   1,C   0)    179.6174         0.036086   
     92. D(H  23,C   2,C   1,C   0)     -0.0048         0.036086   
     93. D(H  23,C   2,C   1,O  19)    179.7369         0.036086   
     94. D(C   3,C   2,C   1,O  19)     -0.6409         0.036086   
     95. D(C   5,C   3,C   2,H  23)   -179.6482         0.020366   
     96. D(C   5,C   3,C   2,C   1)      0.7274         0.020366   
     97. D(O   4,C   3,C   2,H  23)     -2.1039         0.020366   
     98. D(O   4,C   3,C   2,C   1)    178.2717         0.020366   
     99. D(H  24,O   4,C   3,C   2)      5.2963         0.033775   
    100. D(H  24,O   4,C   3,C   5)   -177.1713         0.033775   
    101. D(C  17,C   5,C   3,O   4)   -178.3527         0.031057   
    102. D(C  17,C   5,C   3,C   2)     -0.7905         0.031057   
    103. D(C   6,C   5,C   3,O   4)      7.5354         0.031057   
    104. D(C   6,C   5,C   3,C   2)   -174.9024         0.031057   
    105. D(C   8,C   6,C   5,C  17)     58.0333         0.011831   
    106. D(C   8,C   6,C   5,C   3)   -127.7252         0.011831   
    107. D(O   7,C   6,C   5,C  17)   -121.5065         0.011831   
    108. D(O   7,C   6,C   5,C   3)     52.7350         0.011831   
    109. D(H  25,C   8,C   6,O   7)     12.8971         0.015727   
    110. D(H  25,C   8,C   6,C   5)   -166.6341         0.015727   
    111. D(C   9,C   8,C   6,O   7)   -163.8956         0.015727   
    112. D(C   9,C   8,C   6,C   5)     16.5733         0.015727   
    113. D(C  10,C   9,C   8,H  25)      1.6337         0.040039   
    114. D(H  26,C   9,C   8,C   6)     -1.5823         0.040039   
    115. D(C  10,C   9,C   8,C   6)    178.1745         0.040039   
    116. D(H  26,C   9,C   8,H  25)   -178.1231         0.040039   
    117. D(C  16,C  10,C   9,H  26)    177.9355         0.017232   
    118. D(C  16,C  10,C   9,C   8)     -1.8298         0.017232   
    119. D(C  11,C  10,C   9,H  26)     -2.1455         0.017232   
    120. D(C  11,C  10,C   9,C   8)    178.0892         0.017232   
    121. D(H  27,C  11,C  10,C  16)    179.6941         0.025511   
    122. D(H  27,C  11,C  10,C   9)     -0.2284         0.025511   
    123. D(C  12,C  11,C  10,C  16)      0.1184         0.025511   
    124. D(C  12,C  11,C  10,C   9)   -179.8041         0.025511   
    125. D(H  28,C  12,C  11,H  27)      0.2488         0.028759   
    126. D(H  28,C  12,C  11,C  10)    179.8220         0.028759   
    127. D(C  13,C  12,C  11,H  27)   -179.7795         0.028759   
    128. D(C  13,C  12,C  11,C  10)     -0.2062         0.028759   
    129. D(H  29,C  13,C  12,H  28)      0.1016         0.028921   
    130. D(H  29,C  13,C  12,C  11)   -179.8703         0.028921   
    131. D(C  14,C  13,C  12,H  28)   -179.8180         0.028921   
    132. D(C  14,C  13,C  12,C  11)      0.2101         0.028921   
    133. D(C  16,C  14,C  13,H  29)    179.9480         0.026231   
    134. D(C  16,C  14,C  13,C  12)     -0.1301         0.026231   
    135. D(O  15,C  14,C  13,H  29)      0.1247         0.026231   
    136. D(O  15,C  14,C  13,C  12)   -179.9534         0.026231   
    137. D(H  30,O  15,C  14,C  16)      0.9904         0.029028   
    138. D(H  30,O  15,C  14,C  13)   -179.1901         0.029028   
    139. D(H  31,C  16,C  14,O  15)     -0.1418         0.027931   
    140. D(H  31,C  16,C  14,C  13)   -179.9578         0.027931   
    141. D(C  10,C  16,C  14,O  15)    179.8618         0.027931   
    142. D(C  10,C  16,C  14,C  13)      0.0459         0.027931   
    143. D(H  31,C  16,C  10,C  11)    179.9646         0.025696   
    144. D(H  31,C  16,C  10,C   9)     -0.1163         0.025696   
    145. D(C  14,C  16,C  10,C  11)     -0.0391         0.025696   
    146. D(C  14,C  16,C  10,C   9)    179.8800         0.025696   
    147. D(O  18,C  17,C   5,C   3)   -178.9771         0.018108   
    148. D(O  19,C  17,C   5,C   6)    174.9992         0.018108   
    149. D(O  19,C  17,C   5,C   3)      0.7348         0.018108   
    150. D(O  18,C  17,C   5,C   6)     -4.7127         0.018108   
    151. D(C   1,O  19,C  17,O  18)    179.0935         0.022216   
    152. D(C   1,O  19,C  17,C   5)     -0.6499         0.022216   
    153. D(C  17,O  19,C   1,C   2)      0.6329         0.035683   
    154. D(C  17,O  19,C   1,C   0)   -179.5991         0.035683   
    -----------------------------------------------------------------

Number of atoms                         .... 32
Number of degrees of freedom            .... 154

         *************************************************************
         *                GEOMETRY OPTIMIZATION CYCLE   1            *
         *************************************************************
---------------------------------
CARTESIAN COORDINATES (ANGSTROEM)
---------------------------------
  C      4.774200    1.637800    1.763300
  C      3.816300    0.773300    1.014600
  C      3.884500    0.520500   -0.313300
  C      2.908100   -0.332900   -0.908400
  O      2.926300   -0.576100   -2.225400
  C      1.913600   -0.866600   -0.127700
  C      0.937200   -1.856800   -0.692600
  O      1.327900   -2.850300   -1.268900
  C     -0.483200   -1.569000   -0.504500
  C     -0.972100   -0.368700   -0.162100
  C     -2.366700   -0.011600    0.003200
  C     -2.684500    1.288400    0.405600
  C     -4.001300    1.670600    0.579400
  C     -5.028000    0.774300    0.354000
  C     -4.729300   -0.526600   -0.047700
  O     -5.763500   -1.381100   -0.261300
  C     -3.409700   -0.912800   -0.221100
  C      1.860600   -0.584700    1.285900
  O      1.058500   -0.998800    2.082300
  O      2.854700    0.256900    1.779000
  H      5.531600    2.041900    1.099900
  H      5.250800    1.056100    2.550300
  H      4.235100    2.452800    2.242900
  H      4.667800    0.950900   -0.916500
  H      3.701400   -0.177600   -2.642100
  H     -1.128700   -2.407700   -0.720700
  H     -0.276900    0.443100    0.013200
  H     -1.889300    1.995700    0.587900
  H     -4.233100    2.677300    0.893400
  H     -6.061300    1.054000    0.482100
  H     -5.427500   -2.247700   -0.521100
  H     -3.193900   -1.924500   -0.533500

----------------------------
CARTESIAN COORDINATES (A.U.)
----------------------------
  NO LB      ZA    FRAG     MASS         X           Y           Z
   0 C     6.0000    0    12.011    9.021931    3.094993    3.332154
   1 C     6.0000    0    12.011    7.211762    1.461325    1.917316
   2 C     6.0000    0    12.011    7.340641    0.983602   -0.592051
   3 C     6.0000    0    12.011    5.495513   -0.629090   -1.716627
   4 O     8.0000    0    15.999    5.529906   -1.088671   -4.205397
   5 C     6.0000    0    12.011    3.616180   -1.637637   -0.241318
   6 C     6.0000    0    12.011    1.771051   -3.508843   -1.308824
   7 O     8.0000    0    15.999    2.509367   -5.386286   -2.397873
   8 C     6.0000    0    12.011   -0.913116   -2.964980   -0.953367
   9 C     6.0000    0    12.011   -1.837003   -0.696742   -0.306325
  10 C     6.0000    0    12.011   -4.472415   -0.021921    0.006047
  11 C     6.0000    0    12.011   -5.072970    2.434723    0.766473
  12 C     6.0000    0    12.011   -7.561361    3.156976    1.094907
  13 C     6.0000    0    12.011   -9.501543    1.463215    0.668963
  14 C     6.0000    0    12.011   -8.937082   -0.995130   -0.090140
  15 O     8.0000    0    15.999  -10.891437   -2.609901   -0.493785
  16 C     6.0000    0    12.011   -6.443399   -1.724942   -0.417818
  17 C     6.0000    0    12.011    3.516024   -1.104923    2.429999
  18 O     8.0000    0    15.999    2.000275   -1.887458    3.934977
  19 O     8.0000    0    15.999    5.394601    0.485471    3.361823
  20 H     1.0000    0     1.008   10.453209    3.858632    2.078510
  21 H     1.0000    0     1.008    9.922574    1.995740    4.819369
  22 H     1.0000    0     1.008    8.003179    4.635120    4.238467
  23 H     1.0000    0     1.008    8.820864    1.796941   -1.731934
  24 H     1.0000    0     1.008    6.994632   -0.335615   -4.992845
  25 H     1.0000    0     1.008   -2.132934   -4.549894   -1.361926
  26 H     1.0000    0     1.008   -0.523265    0.837338    0.024944
  27 H     1.0000    0     1.008   -3.570260    3.771326    1.110970
  28 H     1.0000    0     1.008   -7.999400    5.059364    1.688281
  29 H     1.0000    0     1.008  -11.454197    1.991771    0.911037
  30 H     1.0000    0     1.008  -10.256489   -4.247537   -0.984736
  31 H     1.0000    0     1.008   -6.035596   -3.636778   -1.008169

--------------------------------
INTERNAL COORDINATES (ANGSTROEM)
--------------------------------
 C      0   0   0     0.000000000000     0.00000000     0.00000000
 C      1   0   0     1.491805734672     0.00000000     0.00000000
 C      2   1   0     1.353468688223   124.63017811     0.00000000
 C      3   2   1     1.426812016350   119.10672350   179.61741877
 O      4   3   2     1.339390338923   120.62491883   178.27172915
 C      4   3   2     1.372355067029   119.42216122     0.72744251
 C      6   4   3     1.500988011278   120.92089077   185.09758599
 O      7   6   4     1.213181944310   120.63239869    52.73501362
 C      7   6   4     1.461419381971   116.99355148   232.27483770
 C      9   7   6     1.340515221846   124.31086448    16.57326699
 C     10   9   7     1.449052676751   126.92741810   178.17447459
 C     11  10   9     1.397470071236   118.74821266   178.08918395
 C     12  11  10     1.382116319273   120.67170686   180.19593077
 C     13  12  11     1.381402092079   120.54167488   359.79377180
 C     14  13  12     1.393888585935   119.55789214     0.21014891
 O     15  14  13     1.358442067223   117.98472663   180.04662855
 C     15  14  13     1.385843483226   120.01271319   359.86986224
 C      6   4   3     1.442408253581   120.53983896   359.20950418
 O     18   6   4     1.203784108551   127.27348612   181.02289514
 O      2   1   3     1.332535507970   113.58083633   180.23959108
 H      1   2   3     1.084919872617   110.93007408     0.28211789
 H      1   2   3     1.088527193046   109.53081098   239.16619126
 H      1   2   3     1.088517326458   109.69422263   121.56821256
 H      3   2   1     1.078264016834   120.72377430     0.00000000
 H      5   4   3     0.966033720944   111.10887630     5.29625232
 H      9   7   6     1.080199231624   113.71183934   193.36590795
 H     10   9   7     1.083075422120   118.57933879   358.41770918
 H     12  11  10     1.079745164379   119.37396650   359.77161473
 H     13  12  11     1.079709280316   119.93025424   179.82201435
 H     14  13  12     1.078123643188   121.64230466   180.12973803
 H     16  15  14     0.965084245027   110.00556236   180.80991205
 H     17  15  14     1.080601818433   119.15909730   180.04223658

---------------------------
INTERNAL COORDINATES (A.U.)
---------------------------
 C      0   0   0     0.000000000000     0.00000000     0.00000000
 C      1   0   0     2.819104283543     0.00000000     0.00000000
 C      2   1   0     2.557685151579   124.63017811     0.00000000
 C      3   2   1     2.696283955489   119.10672350   179.61741877
 O      4   3   2     2.531080926984   120.62491883   178.27172915
 C      4   3   2     2.593375235184   119.42216122     0.72744251
 C      6   4   3     2.836456271614   120.92089077   185.09758599
 O      7   6   4     2.292581625364   120.63239869    52.73501362
 C      7   6   4     2.761682398729   116.99355148   232.27483770
 C      9   7   6     2.533206647641   124.31086448    16.57326699
 C     10   9   7     2.738312712685   126.92741810   178.17447459
 C     11  10   9     2.640835714987   118.74821266   178.08918395
 C     12  11  10     2.611821328649   120.67170686   180.19593077
 C     13  12  11     2.610471634855   120.54167488   359.79377180
 C     14  13  12     2.634067688616   119.55789214     0.21014891
 O     15  14  13     2.567083475849   117.98472663   180.04662855
 C     15  14  13     2.618864647777   120.01271319   359.86986224
 C      6   4   3     2.725756572577   120.53983896   359.20950418
 O     18   6   4     2.274822289528   127.27348612   181.02289514
 O      2   1   3     2.518127173788   113.58083633   180.23959108
 H      1   2   3     2.050201436495   110.93007408     0.28211789
 H      1   2   3     2.057018284182   109.53081098   239.16619126
 H      1   2   3     2.056999639034   109.69422263   121.56821256
 H      3   2   1     2.037623691879   120.72377430     0.00000000
 H      5   4   3     1.825539168716   111.10887630     5.29625232
 H      9   7   6     2.041280717841   113.71183934   193.36590795
 H     10   9   7     2.046715930188   118.57933879   358.41770918
 H     12  11  10     2.040422655102   119.37396650   359.77161473
 H     13  12  11     2.040354844050   119.93025424   179.82201435
 H     14  13  12     2.037358424130   121.64230466   180.12973803
 H     16  15  14     1.823744919264   110.00556236   180.80991205
 H     17  15  14     2.042041496655   119.15909730   180.04223658

---------------------
BASIS SET INFORMATION
---------------------
There are 3 groups of distinct atoms

 Group   1 Type C   : 19s6p3d2f contracted to 5s4p3d2f pattern {88111/3111/111/11}
 Group   2 Type O   : 19s6p3d2f contracted to 5s4p3d2f pattern {88111/3111/111/11}
 Group   3 Type H   : 5s2p1d contracted to 3s2p1d pattern {311/11/1}

Atom   0C    basis set group =>   1
Atom   1C    basis set group =>   1
Atom   2C    basis set group =>   1
Atom   3C    basis set group =>   1
Atom   4O    basis set group =>   2
Atom   5C    basis set group =>   1
Atom   6C    basis set group =>   1
Atom   7O    basis set group =>   2
Atom   8C    basis set group =>   1
Atom   9C    basis set group =>   1
Atom  10C    basis set group =>   1
Atom  11C    basis set group =>   1
Atom  12C    basis set group =>   1
Atom  13C    basis set group =>   1
Atom  14C    basis set group =>   1
Atom  15O    basis set group =>   2
Atom  16C    basis set group =>   1
Atom  17C    basis set group =>   1
Atom  18O    basis set group =>   2
Atom  19O    basis set group =>   2
Atom  20H    basis set group =>   3
Atom  21H    basis set group =>   3
Atom  22H    basis set group =>   3
Atom  23H    basis set group =>   3
Atom  24H    basis set group =>   3
Atom  25H    basis set group =>   3
Atom  26H    basis set group =>   3
Atom  27H    basis set group =>   3
Atom  28H    basis set group =>   3
Atom  29H    basis set group =>   3
Atom  30H    basis set group =>   3
Atom  31H    basis set group =>   3
---------------------------------
AUXILIARY/J BASIS SET INFORMATION
---------------------------------
There are 3 groups of distinct atoms

 Group   1 Type C   : 10s7p5d2f1g contracted to 10s7p5d2f1g pattern {1111111111/1111111/11111/11/1}
 Group   2 Type O   : 10s7p5d2f1g contracted to 10s7p5d2f1g pattern {1111111111/1111111/11111/11/1}
 Group   3 Type H   : 4s3p2d1f contracted to 4s3p2d1f pattern {1111/111/11/1}

Atom   0C    basis set group =>   1
Atom   1C    basis set group =>   1
Atom   2C    basis set group =>   1
Atom   3C    basis set group =>   1
Atom   4O    basis set group =>   2
Atom   5C    basis set group =>   1
Atom   6C    basis set group =>   1
Atom   7O    basis set group =>   2
Atom   8C    basis set group =>   1
Atom   9C    basis set group =>   1
Atom  10C    basis set group =>   1
Atom  11C    basis set group =>   1
Atom  12C    basis set group =>   1
Atom  13C    basis set group =>   1
Atom  14C    basis set group =>   1
Atom  15O    basis set group =>   2
Atom  16C    basis set group =>   1
Atom  17C    basis set group =>   1
Atom  18O    basis set group =>   2
Atom  19O    basis set group =>   2
Atom  20H    basis set group =>   3
Atom  21H    basis set group =>   3
Atom  22H    basis set group =>   3
Atom  23H    basis set group =>   3
Atom  24H    basis set group =>   3
Atom  25H    basis set group =>   3
Atom  26H    basis set group =>   3
Atom  27H    basis set group =>   3
Atom  28H    basis set group =>   3
Atom  29H    basis set group =>   3
Atom  30H    basis set group =>   3
Atom  31H    basis set group =>   3
---------------------------------
AUXILIARY/C BASIS SET INFORMATION
---------------------------------
There are 3 groups of distinct atoms

 Group   1 Type C   : 9s7p6d4f2g contracted to 9s7p6d4f2g pattern {111111111/1111111/111111/1111/11}
 Group   2 Type O   : 9s7p6d4f2g contracted to 9s7p6d4f2g pattern {111111111/1111111/111111/1111/11}
 Group   3 Type H   : 4s3p2d1f contracted to 4s3p2d1f pattern {1111/111/11/1}

Atom   0C    basis set group =>   1
Atom   1C    basis set group =>   1
Atom   2C    basis set group =>   1
Atom   3C    basis set group =>   1
Atom   4O    basis set group =>   2
Atom   5C    basis set group =>   1
Atom   6C    basis set group =>   1
Atom   7O    basis set group =>   2
Atom   8C    basis set group =>   1
Atom   9C    basis set group =>   1
Atom  10C    basis set group =>   1
Atom  11C    basis set group =>   1
Atom  12C    basis set group =>   1
Atom  13C    basis set group =>   1
Atom  14C    basis set group =>   1
Atom  15O    basis set group =>   2
Atom  16C    basis set group =>   1
Atom  17C    basis set group =>   1
Atom  18O    basis set group =>   2
Atom  19O    basis set group =>   2
Atom  20H    basis set group =>   3
Atom  21H    basis set group =>   3
Atom  22H    basis set group =>   3
Atom  23H    basis set group =>   3
Atom  24H    basis set group =>   3
Atom  25H    basis set group =>   3
Atom  26H    basis set group =>   3
Atom  27H    basis set group =>   3
Atom  28H    basis set group =>   3
Atom  29H    basis set group =>   3
Atom  30H    basis set group =>   3
Atom  31H    basis set group =>   3


           ************************************************************
           *        Program running with 4 parallel MPI-processes     *
           *              working on a common directory               *
           ************************************************************
------------------------------------------------------------------------------
                           ORCA GTO INTEGRAL CALCULATION
                           -- RI-GTO INTEGRALS CHOSEN --
------------------------------------------------------------------------------
------------------------------------------------------------------------------
                   ___                                                        
                  /   \      - P O W E R E D   B Y -                         
                 /     \                                                     
                 |  |  |   _    _      __       _____    __    __             
                 |  |  |  | |  | |    /  \     |  _  \  |  |  /  |          
                  \  \/   | |  | |   /    \    | | | |  |  | /  /          
                 / \  \   | |__| |  /  /\  \   | |_| |  |  |/  /          
                |  |  |   |  __  | /  /__\  \  |    /   |      \           
                |  |  |   | |  | | |   __   |  |    \   |  |\   \          
                \     /   | |  | | |  |  |  |  | |\  \  |  | \   \       
                 \___/    |_|  |_| |__|  |__|  |_| \__\ |__|  \__/        
                                                                              
                      - O R C A' S   B I G   F R I E N D -                    
                                      &                                       
                       - I N T E G R A L  F E E D E R -                       
                                                                              
 v1 FN, 2020, v2 2021                                                         
------------------------------------------------------------------------------


Reading SHARK input file pbe0-train-17.SHARKINP.tmp ... ok
----------------------
SHARK INTEGRAL PACKAGE
----------------------

Number of atoms                             ...     32
Number of basis functions                   ...   1208
Number of shells                            ...    472
Maximum angular momentum                    ...      3
Integral batch strategy                     ... SHARK/LIBINT Hybrid
RI-J (if used) integral strategy            ... SPLIT-RIJ (Revised 2003 algorithm where possible)
Printlevel                                  ...      1
Contraction scheme used                     ... PARTIAL GENERAL contraction
Coulomb Range Separation                    ... NOT USED
Exchange Range Separation                   ... NOT USED
Finite Nucleus Model                        ... NOT USED
Auxiliary Coulomb fitting basis             ... AVAILABLE
   # of basis functions in Aux-J            ...   1940
   # of shells in Aux-J                     ...    620
   Maximum angular momentum in Aux-J        ...      4
Auxiliary J/K fitting basis                 ... NOT available
Auxiliary Correlation fitting basis         ... AVAILABLE
   # of basis functions in Aux-C            ...   2480
   # of shells in Aux-C                     ...    680
   Maximum angular momentum in Aux-C        ...      4
Auxiliary 'external' fitting basis          ... NOT available
Integral threshold                          ...     2.500000e-11
Primitive cut-off                           ...     2.500000e-12
Primitive pair pre-selection threshold      ...     2.500000e-12

Calculating pre-screening integrals         ... done (  0.3 sec) Dimension = 472
Calculating pre-screening integrals (ORCA)  ... done (  0.6 sec) Dimension = 352
Organizing shell pair data                  ... done (  1.4 sec)
Shell pair information
Total number of shell pairs                 ...    111628
Shell pairs after pre-screening             ...     69883
Total number of primitive shell pairs       ...    144012
Primitive shell pairs kept                  ...     81639
          la=0 lb=0:  15794 shell pairs
          la=1 lb=0:  17865 shell pairs
          la=1 lb=1:   4342 shell pairs
          la=2 lb=0:  11705 shell pairs
          la=2 lb=1:   5785 shell pairs
          la=2 lb=2:   1974 shell pairs
          la=3 lb=0:   6414 shell pairs
          la=3 lb=1:   3211 shell pairs
          la=3 lb=2:   2170 shell pairs
          la=3 lb=3:    623 shell pairs

Calculating one electron integrals          ... done (  0.2 sec)
Calculating RI/J V-Matrix + Cholesky decomp.... done (  0.4 sec)
Calculating RI/C V-Matrix + Cholesky decomp.... done (  0.5 sec)
Calculating Nuclear repulsion               ... done (  0.0 sec) ENN=   1439.514730946674 Eh

SHARK setup successfully completed in   5.8 seconds

Maximum memory used throughout the entire GTOINT-calculation: 111.3 MB


           ************************************************************
           *        Program running with 4 parallel MPI-processes     *
           *              working on a common directory               *
           ************************************************************
-------------------------------------------------------------------------------
                                 ORCA SCF
-------------------------------------------------------------------------------

------------
SCF SETTINGS
------------
Hamiltonian:
 Density Functional     Method          .... DFT(GTOs)
 Exchange Functional    Exchange        .... PBE
   PBE kappa parameter   XKappa         ....  0.804000
   PBE mue parameter    XMuePBE         ....  0.219520
 Correlation Functional Correlation     .... PBE
   PBE beta parameter  CBetaPBE         ....  0.066725
 LDA part of GGA corr.  LDAOpt          .... PW91-LDA
 Gradients option       PostSCFGGA      .... off
 Hybrid DFT is turned on
   Fraction HF Exchange ScalHFX         ....  0.250000
   Scaling of DF-GGA-X  ScalDFX         ....  0.750000
   Scaling of DF-GGA-C  ScalDFC         ....  1.000000
   Scaling of DF-LDA-C  ScalLDAC        ....  1.000000
   Perturbative correction              ....  0.000000
   Density functional embedding theory  .... OFF
   NL short-range parameter             ....  6.900000
 RI-approximation to the Coulomb term is turned on
   Number of AuxJ basis functions       .... 1940
   RIJ-COSX (HFX calculated with COS-X)).... on


General Settings:
 Integral files         IntName         .... pbe0-train-17
 Hartree-Fock type      HFTyp           .... RHF
 Total Charge           Charge          ....    0
 Multiplicity           Mult            ....    1
 Number of Electrons    NEL             ....  142
 Basis Dimension        Dim             .... 1088
 Nuclear Repulsion      ENuc            ....   1439.5147309467 Eh

Convergence Acceleration:
 DIIS                   CNVDIIS         .... on
   Start iteration      DIISMaxIt       ....    12
   Startup error        DIISStart       ....  0.200000
   # of expansion vecs  DIISMaxEq       ....     5
   Bias factor          DIISBfac        ....   1.050
   Max. coefficient     DIISMaxC        ....  10.000
 Trust-Rad. Augm. Hess. CNVTRAH         .... auto
   Auto Start mean grad. ratio tolernc. ....  1.125000
   Auto Start start iteration           ....    20
   Auto Start num. interpolation iter.  ....    10
   Max. Number of Micro iterations      ....    16
   Max. Number of Macro iterations      .... Maxiter - #DIIS iter
   Number of Davidson start vectors     ....     2
   Converg. threshold I  (grad. norm)   ....   1.000e-05
   Converg. threshold II (energy diff.) ....   1.000e-08
   Grad. Scal. Fac. for Micro threshold ....   0.100
   Minimum threshold for Micro iter.    ....   0.010
   NR start threshold (gradient norm)   ....   0.001
   Initial trust radius                 ....   0.400
   Minimum AH scaling param. (alpha)    ....   1.000
   Maximum AH scaling param. (alpha)    .... 1000.000
   Orbital update algorithm             .... Taylor
   White noise on init. David. guess    .... on
   Maximum white noise                  ....   0.010
   Quad. conv. algorithm                .... NR
 SOSCF                  CNVSOSCF        .... on
   Start iteration      SOSCFMaxIt      ....   150
   Startup grad/error   SOSCFStart      ....  0.003300
 Level Shifting         CNVShift        .... on
   Level shift para.    LevelShift      ....    0.2500
   Turn off err/grad.   ShiftErr        ....    0.0010
 Zerner damping         CNVZerner       .... off
 Static damping         CNVDamp         .... on
   Fraction old density DampFac         ....    0.7000
   Max. Damping (<1)    DampMax         ....    0.9800
   Min. Damping (>=0)   DampMin         ....    0.0000
   Turn off err/grad.   DampErr         ....    0.1000
 Fernandez-Rico         CNVRico         .... off

SCF Procedure:
 Maximum # iterations   MaxIter         ....   125
 SCF integral mode      SCFMode         .... Direct
   Integral package                     .... SHARK and LIBINT hybrid scheme
 Reset frequency        DirectResetFreq ....    20
 Integral Threshold     Thresh          ....  2.500e-11 Eh
 Primitive CutOff       TCut            ....  2.500e-12 Eh

Convergence Tolerance:
 Convergence Check Mode ConvCheckMode   .... Total+1el-Energy
 Convergence forced     ConvForced      .... 0
 Energy Change          TolE            ....  1.000e-08 Eh
 1-El. energy change                    ....  1.000e-05 Eh
 Orbital Gradient       TolG            ....  1.000e-05
 Orbital Rotation angle TolX            ....  1.000e-05
 DIIS Error             TolErr          ....  5.000e-07


Diagonalization of the overlap matrix:
Smallest eigenvalue                        ... 8.521e-07
Time for diagonalization                   ...    0.284 sec
Threshold for overlap eigenvalues          ... 1.000e-08
Number of eigenvalues below threshold      ... 0
Time for construction of square roots      ...    0.183 sec
Total time needed                          ...    0.474 sec

Time for model grid setup =    0.645 sec

------------------------------
INITIAL GUESS: MODEL POTENTIAL
------------------------------
Loading Hartree-Fock densities                     ... done
Calculating cut-offs                               ... done
Initializing the effective Hamiltonian             ... done
Setting up the integral package (SHARK)            ... done
Starting the Coulomb interaction                   ... done (   2.5 sec)
Reading the grid                                   ... done
Mapping shells                                     ... done
Starting the XC term evaluation                    ... done (   1.9 sec)
  promolecular density results
     # of electrons  =    141.988001684
     EX              =   -121.102024774
     EC              =     -4.787874072
     EX+EC           =   -125.889898846
Transforming the Hamiltonian                       ... done (   0.1 sec)
Diagonalizing the Hamiltonian                      ... done (   0.3 sec)
Back transforming the eigenvectors                 ... done (   0.1 sec)
Now organizing SCF variables                       ... done
                      ------------------
                      INITIAL GUESS DONE (   5.5 sec)
                      ------------------
-------------------
DFT GRID GENERATION
-------------------

General Integration Accuracy     IntAcc      ... 4.388
Radial Grid Type                 RadialGrid  ... OptM3 with GC (2021)
Angular Grid (max. ang.)         AngularGrid ... 4 (Lebedev-302)
Angular grid pruning method      GridPruning ... 4 (adaptive)
Weight generation scheme         WeightScheme... Becke
Basis function cutoff            BFCut       ... 1.0000e-11
Integration weight cutoff        WCut        ... 1.0000e-14
Angular grids for H and He will be reduced by one unit
Partially contracted basis set               ... off
Rotationally invariant grid construction     ... off

Total number of grid points                  ...   163616
Total number of batches                      ...     2572
Average number of points per batch           ...       63
Average number of grid points per atom       ...     5113
Time for grid setup =    2.122 sec

--------------------
COSX GRID GENERATION
--------------------

GRIDX 1
-------
General Integration Accuracy     IntAcc      ... 3.816
Radial Grid Type                 RadialGrid  ... OptM3 with GC (2021)
Angular Grid (max. ang.)         AngularGrid ... 1 (Lebedev-50)
Angular grid pruning method      GridPruning ... 4 (adaptive)
Weight generation scheme         WeightScheme... Becke
Basis function cutoff            BFCut       ... 1.0000e-11
Integration weight cutoff        WCut        ... 1.0000e-14
Angular grids for H and He will be reduced by one unit
Partially contracted basis set               ... on
Rotationally invariant grid construction     ... off

Total number of grid points                  ...    20829
Total number of batches                      ...      343
Average number of points per batch           ...       60
Average number of grid points per atom       ...      651
UseSFitting                                  ... on

GRIDX 2
-------
General Integration Accuracy     IntAcc      ... 4.020
Radial Grid Type                 RadialGrid  ... OptM3 with GC (2021)
Angular Grid (max. ang.)         AngularGrid ... 2 (Lebedev-110)
Angular grid pruning method      GridPruning ... 4 (adaptive)
Weight generation scheme         WeightScheme... Becke
Basis function cutoff            BFCut       ... 1.0000e-11
Integration weight cutoff        WCut        ... 1.0000e-14
Angular grids for H and He will be reduced by one unit
Partially contracted basis set               ... on
Rotationally invariant grid construction     ... off

Total number of grid points                  ...    50134
Total number of batches                      ...      799
Average number of points per batch           ...       62
Average number of grid points per atom       ...     1567
UseSFitting                                  ... on

GRIDX 3
-------
General Integration Accuracy     IntAcc      ... 4.338
Radial Grid Type                 RadialGrid  ... OptM3 with GC (2021)
Angular Grid (max. ang.)         AngularGrid ... 3 (Lebedev-194)
Angular grid pruning method      GridPruning ... 4 (adaptive)
Weight generation scheme         WeightScheme... Becke
Basis function cutoff            BFCut       ... 1.0000e-11
Integration weight cutoff        WCut        ... 1.0000e-14
Angular grids for H and He will be reduced by one unit
Partially contracted basis set               ... on
Rotationally invariant grid construction     ... off

Total number of grid points                  ...   108179
Total number of batches                      ...     1706
Average number of points per batch           ...       63
Average number of grid points per atom       ...     3381
UseSFitting                                  ... on

Time for X-Grid setup             =    5.093 sec


--------------------
CPCM SOLVATION MODEL
--------------------
CPCM parameters:
  Epsilon                                         ...       8.9300
  Refrac                                          ...       1.4242
  Rsolv                                           ...       1.3000
  Surface type                                    ... GAUSSIAN VDW
  Epsilon function type                           ...         CPCM
Solvent:                                     ... DICHLOROMETHANE
SMD-CDS solvent descriptors:
  Soln                                       ...    1.4242
  Soln25                                     ...    1.4212
  Sola                                       ...    0.1000
  Solb                                       ...    0.0500
  Solg                                       ...   39.1500
  Solc                                       ...    0.0000
  Solh                                       ...    0.6670
Radii:
 Radius for C  used is    3.4960 Bohr (=   1.8500 Ang.)
 Radius for O  used is    3.9949 Bohr (=   2.1140 Ang.)
 Radius for H  used is    2.2677 Bohr (=   1.2000 Ang.)
Calculating surface                               ...        done! (  0.0s)
GEPOL surface points                              ...         1723
GEPOL Volume                                      ...    2110.6121
GEPOL Surface-area                                ...    1138.7670
Calculating surface distance matrix               ...        done! (  0.0s)
Performing Cholesky decomposition & store         ...        done! (  0.2s)
Overall time for CPCM initialization              ...                 0.2s
 re-compute Schwartz prescreening matrix in partically contracted basis (1) ...done (   0.232 sec)
--------------
SCF ITERATIONS
--------------
ITER       Energy         Delta-E        Max-DP      RMS-DP      [F,P]     Damp
               ***  Starting incremental Fock matrix formation  ***
  0   -953.7321635925   0.000000000000 0.32481184  0.00123534  0.3073458 0.7000
  1   -953.9558035627  -0.223639970196 0.24435343  0.00091086  0.1198804 0.7000
                               ***Turning on DIIS***
  2   -954.0460892983  -0.090285735557 0.49154104  0.00178223  0.0388828 0.0000
  3   -954.1937705397  -0.147681241409 0.08054013  0.00045761  0.0578702 0.0000
  4   -954.2204868231  -0.026716283409 0.01586126  0.00013104  0.0184254 0.0000
  5   -954.2224838644  -0.001997041336 0.00396405  0.00005119  0.0063459 0.0000
                      *** Initiating the SOSCF procedure ***
                           *** Shutting down DIIS ***
                      *** Re-Reading the Fockian *** 
                      *** Removing any level shift *** 
ITER      Energy       Delta-E        Grad      Rot      Max-DP    RMS-DP
  6   -954.22260826  -0.0001243929  0.000311  0.000311  0.003567  0.000033
               *** Restarting incremental Fock matrix formation ***
  7   -954.22261796  -0.0000096999  0.000143  0.000718  0.026811  0.000305
  8   -954.22261529   0.0000026631  0.000219  0.000429  0.003306  0.000024
  9   -954.22262155  -0.0000062525  0.000049  0.000123  0.010284  0.000041
 10   -954.22262139   0.0000001533  0.000076  0.000076  0.005552  0.000018
 11   -954.22262168  -0.0000002916  0.000008  0.000042  0.025977  0.000072
 12   -954.22262164   0.0000000438  0.000012  0.000028  0.008524  0.000025
                  ***Gradient check signals convergence***
              ***Rediagonalizing the Fockian in SOSCF/NRSCF***

               *****************************************************
               *                     SUCCESS                       *
               *           SCF CONVERGED AFTER  13 CYCLES          *
               *****************************************************

Old exchange energy                            =    -30.803690206 Eh
New exchange energy                            =    -30.803753597 Eh
Exchange energy change after final integration =     -0.000063390 Eh
Total energy after final integration           =   -954.222685025 Eh
Final COS-X integration done in                =   138.678 sec

SMD CDS free energy correction energy :                -4.72739     Kcal/mol
Total Energy after SMD CDS correction =              -954.230218601 Eh

----------------
TOTAL SCF ENERGY
----------------

Total Energy       :         -954.23021860 Eh          -25965.92433 eV

Components:
Nuclear Repulsion  :         1439.51473095 Eh           39171.18725 eV
Electronic Energy  :        -2393.74494955 Eh          -65137.11158 eV
One Electron Energy:        -4160.05522238 Eh         -113200.85762 eV
Two Electron Energy:         1766.31027283 Eh           48063.74604 eV
Max COSX asymmetry :            0.00004133 Eh               0.00112 eV
CPCM Dielectric    :           -0.03785211 Eh              -1.03001 eV
SMD CDS (Gcds)     :           -0.00753358 Eh              -0.20500 eV

Virial components:
Potential Energy   :        -1903.13016575 Eh          -51786.80460 eV
Kinetic Energy     :          948.89994715 Eh           25820.88027 eV
Virial Ratio       :            2.00561732


DFT components:
N(Alpha)           :       71.000148727434 electrons
N(Beta)            :       71.000148727434 electrons
N(Total)           :      142.000297454869 electrons
E(X)               :      -92.272086918021 Eh       
E(C)               :       -4.796866803317 Eh       
E(XC)              :      -97.068953721337 Eh       
DFET-embed. en.    :        0.000000000000 Eh       
CPCM Solvation Model Properties:
Surface-charge          :           -0.03527612
Charge-correction       :            0.00025609 Eh               0.00697 eV
Free-energy (cav+disp)  :           -0.00753358 Eh              -0.20500 eV

---------------
SCF CONVERGENCE
---------------

  Last Energy change         ...    6.7845e-09  Tolerance :   1.0000e-08
  Last MAX-Density change    ...    3.5527e-15  Tolerance :   1.0000e-07
  Last RMS-Density change    ...    1.3253e-17  Tolerance :   5.0000e-09
  Last Orbital Gradient      ...    1.4334e-06  Tolerance :   1.0000e-05
  Last Orbital Rotation      ...    3.1925e-06  Tolerance :   1.0000e-05

             **** THE GBW FILE WAS UPDATED (pbe0-train-17.gbw) ****
             **** DENSITY pbe0-train-17.scfp WAS UPDATED ****
             **** ENERGY FILE WAS UPDATED (pbe0-train-17.en.tmp) ****
             **** THE GBW FILE WAS UPDATED (pbe0-train-17.gbw) ****
             **** DENSITY pbe0-train-17.scfp WAS UPDATED ****
----------------
ORBITAL ENERGIES
----------------

  NO   OCC          E(Eh)            E(eV) 
   0   2.0000     -19.288062      -524.8549 
   1   2.0000     -19.268114      -524.3120 
   2   2.0000     -19.243748      -523.6490 
   3   2.0000     -19.199418      -522.4427 
   4   2.0000     -19.189914      -522.1841 
   5   2.0000     -10.360605      -281.9264 
   6   2.0000     -10.331549      -281.1358 
   7   2.0000     -10.325539      -280.9722 
   8   2.0000     -10.318435      -280.7789 
   9   2.0000     -10.295435      -280.1530 
  10   2.0000     -10.249500      -278.9031 
  11   2.0000     -10.247868      -278.8587 
  12   2.0000     -10.241344      -278.6811 
  13   2.0000     -10.239453      -278.6297 
  14   2.0000     -10.232897      -278.4513 
  15   2.0000     -10.231021      -278.4002 
  16   2.0000     -10.230325      -278.3813 
  17   2.0000     -10.228830      -278.3406 
  18   2.0000     -10.228647      -278.3356 
  19   2.0000     -10.227756      -278.3114 
  20   2.0000      -1.164523       -31.6883 
  21   2.0000      -1.125598       -30.6291 
  22   2.0000      -1.097535       -29.8654 
  23   2.0000      -1.077040       -29.3077 
  24   2.0000      -1.067228       -29.0407 
  25   2.0000      -0.896687       -24.4001 
  26   2.0000      -0.864148       -23.5147 
  27   2.0000      -0.838748       -22.8235 
  28   2.0000      -0.826529       -22.4910 
  29   2.0000      -0.777443       -21.1553 
  30   2.0000      -0.771577       -20.9957 
  31   2.0000      -0.744909       -20.2700 
  32   2.0000      -0.691567       -18.8185 
  33   2.0000      -0.686962       -18.6932 
  34   2.0000      -0.668514       -18.1912 
  35   2.0000      -0.644422       -17.5356 
  36   2.0000      -0.608610       -16.5611 
  37   2.0000      -0.591604       -16.0984 
  38   2.0000      -0.578542       -15.7429 
  39   2.0000      -0.565549       -15.3894 
  40   2.0000      -0.550361       -14.9761 
  41   2.0000      -0.529115       -14.3979 
  42   2.0000      -0.514352       -13.9962 
  43   2.0000      -0.507465       -13.8088 
  44   2.0000      -0.491071       -13.3627 
  45   2.0000      -0.480146       -13.0654 
  46   2.0000      -0.473393       -12.8817 
  47   2.0000      -0.463028       -12.5996 
  48   2.0000      -0.452948       -12.3254 
  49   2.0000      -0.447858       -12.1868 
  50   2.0000      -0.443722       -12.0743 
  51   2.0000      -0.439214       -11.9516 
  52   2.0000      -0.438026       -11.9193 
  53   2.0000      -0.434925       -11.8349 
  54   2.0000      -0.423535       -11.5250 
  55   2.0000      -0.419882       -11.4256 
  56   2.0000      -0.413408       -11.2494 
  57   2.0000      -0.400077       -10.8867 
  58   2.0000      -0.390172       -10.6171 
  59   2.0000      -0.381265       -10.3747 
  60   2.0000      -0.379596       -10.3293 
  61   2.0000      -0.373881       -10.1738 
  62   2.0000      -0.366950        -9.9852 
  63   2.0000      -0.359826        -9.7914 
  64   2.0000      -0.320822        -8.7300 
  65   2.0000      -0.305762        -8.3202 
  66   2.0000      -0.302111        -8.2209 
  67   2.0000      -0.274636        -7.4732 
  68   2.0000      -0.257400        -7.0042 
  69   2.0000      -0.246583        -6.7099 
  70   2.0000      -0.241021        -6.5585 
  71   0.0000      -0.078370        -2.1325 
  72   0.0000      -0.047468        -1.2917 
  73   0.0000      -0.007714        -0.2099 
  74   0.0000      -0.000545        -0.0148 
  75   0.0000       0.002008         0.0546 
  76   0.0000       0.007522         0.2047 
  77   0.0000       0.013616         0.3705 
  78   0.0000       0.016405         0.4464 
  79   0.0000       0.019443         0.5291 
  80   0.0000       0.025736         0.7003 
  81   0.0000       0.030852         0.8395 
  82   0.0000       0.036148         0.9836 
  83   0.0000       0.040162         1.0929 
  84   0.0000       0.042804         1.1648 
  85   0.0000       0.045333         1.2336 
  86   0.0000       0.047947         1.3047 
  87   0.0000       0.054196         1.4748 
  88   0.0000       0.054734         1.4894 
  89   0.0000       0.060584         1.6486 
  90   0.0000       0.066994         1.8230 
  91   0.0000       0.070330         1.9138 
  92   0.0000       0.072778         1.9804 
  93   0.0000       0.079879         2.1736 
  94   0.0000       0.080608         2.1934 
  95   0.0000       0.086111         2.3432 
  96   0.0000       0.086346         2.3496 
  97   0.0000       0.087338         2.3766 
  98   0.0000       0.092066         2.5052 
  99   0.0000       0.098210         2.6724 
 100   0.0000       0.100070         2.7230 
 101   0.0000       0.101096         2.7510 
 102   0.0000       0.108605         2.9553 
 103   0.0000       0.110205         2.9988 
 104   0.0000       0.112877         3.0715 
 105   0.0000       0.116466         3.1692 
 106   0.0000       0.119285         3.2459 
 107   0.0000       0.125111         3.4044 
 108   0.0000       0.125266         3.4087 
 109   0.0000       0.129657         3.5281 
 110   0.0000       0.131151         3.5688 
 111   0.0000       0.132678         3.6104 
 112   0.0000       0.134544         3.6611 
 113   0.0000       0.135753         3.6940 
 114   0.0000       0.138057         3.7567 
 115   0.0000       0.142375         3.8742 
 116   0.0000       0.144773         3.9395 
 117   0.0000       0.147136         4.0038 
 118   0.0000       0.148687         4.0460 
 119   0.0000       0.150911         4.1065 
 120   0.0000       0.156266         4.2522 
 121   0.0000       0.157445         4.2843 
 122   0.0000       0.158752         4.3199 
 123   0.0000       0.161907         4.4057 
 124   0.0000       0.163541         4.4502 
 125   0.0000       0.165671         4.5082 
 126   0.0000       0.169663         4.6168 
 127   0.0000       0.175337         4.7712 
 128   0.0000       0.179143         4.8747 
 129   0.0000       0.181910         4.9500 
 130   0.0000       0.182374         4.9626 
 131   0.0000       0.185140         5.0379 
 132   0.0000       0.187429         5.1002 
 133   0.0000       0.190193         5.1754 
 134   0.0000       0.191066         5.1992 
 135   0.0000       0.194643         5.2965 
 136   0.0000       0.199811         5.4371 
 137   0.0000       0.201115         5.4726 
 138   0.0000       0.203653         5.5417 
 139   0.0000       0.206616         5.6223 
 140   0.0000       0.208699         5.6790 
 141   0.0000       0.212168         5.7734 
 142   0.0000       0.213930         5.8213 
 143   0.0000       0.215510         5.8643 
 144   0.0000       0.220175         5.9913 
 145   0.0000       0.222277         6.0485 
 146   0.0000       0.222953         6.0669 
 147   0.0000       0.229568         6.2469 
 148   0.0000       0.231876         6.3097 
 149   0.0000       0.234143         6.3714 
 150   0.0000       0.235669         6.4129 
 151   0.0000       0.239116         6.5067 
 152   0.0000       0.240879         6.5547 
 153   0.0000       0.246258         6.7010 
 154   0.0000       0.248164         6.7529 
 155   0.0000       0.253403         6.8954 
 156   0.0000       0.254569         6.9272 
 157   0.0000       0.257149         6.9974 
 158   0.0000       0.261878         7.1261 
 159   0.0000       0.264958         7.2099 
 160   0.0000       0.265359         7.2208 
 161   0.0000       0.268366         7.3026 
 162   0.0000       0.269591         7.3360 
 163   0.0000       0.271147         7.3783 
 164   0.0000       0.274119         7.4592 
 165   0.0000       0.278382         7.5751 
 166   0.0000       0.279246         7.5987 
 167   0.0000       0.282741         7.6938 
 168   0.0000       0.285348         7.7647 
 169   0.0000       0.286704         7.8016 
 170   0.0000       0.291347         7.9280 
 171   0.0000       0.295772         8.0484 
 172   0.0000       0.296264         8.0618 
 173   0.0000       0.301639         8.2080 
 174   0.0000       0.304770         8.2932 
 175   0.0000       0.312485         8.5031 
 176   0.0000       0.315520         8.5857 
 177   0.0000       0.316061         8.6005 
 178   0.0000       0.321198         8.7402 
 179   0.0000       0.324484         8.8297 
 180   0.0000       0.327133         8.9018 
 181   0.0000       0.329994         8.9796 
 182   0.0000       0.330712         8.9991 
 183   0.0000       0.335870         9.1395 
 184   0.0000       0.337973         9.1967 
 185   0.0000       0.338866         9.2210 
 186   0.0000       0.343856         9.3568 
 187   0.0000       0.347984         9.4691 
 188   0.0000       0.350532         9.5384 
 189   0.0000       0.353055         9.6071 
 190   0.0000       0.355900         9.6845 
 191   0.0000       0.358593         9.7578 
 192   0.0000       0.361344         9.8327 
 193   0.0000       0.363732         9.8977 
 194   0.0000       0.368388        10.0243 
 195   0.0000       0.369842        10.0639 
 196   0.0000       0.373070        10.1517 
 197   0.0000       0.377256        10.2657 
 198   0.0000       0.380218        10.3463 
 199   0.0000       0.388140        10.5618 
 200   0.0000       0.390389        10.6230 
 201   0.0000       0.393740        10.7142 
[...]

-------
TIMINGS
-------

Total SCF time: 0 days 0 hours 4 min 45 sec 

Total time                  ....     285.551 sec
Sum of individual times     ....     281.758 sec  ( 98.7%)

Fock matrix formation       ....     272.868 sec  ( 95.6%)
  Split-RI-J                ....      14.242 sec  (  5.2% of F)
  Chain of spheres X        ....     240.339 sec  ( 88.1% of F)
  XC integration            ....      10.632 sec  (  3.9% of F)
    Basis function eval.    ....       1.797 sec  ( 16.9% of XC)
    Density eval.           ....       4.126 sec  ( 38.8% of XC)
    XC-Functional eval.     ....       0.111 sec  (  1.0% of XC)
    XC-Potential eval.      ....       4.335 sec  ( 40.8% of XC)
Diagonalization             ....       0.363 sec  (  0.1%)
Density matrix formation    ....       0.048 sec  (  0.0%)
Population analysis         ....       0.443 sec  (  0.2%)
Initial guess               ....       0.716 sec  (  0.3%)
Orbital Transformation      ....       0.000 sec  (  0.0%)
Orbital Orthonormalization  ....       0.644 sec  (  0.2%)
DIIS solution               ....       0.207 sec  (  0.1%)
SOSCF solution              ....       0.311 sec  (  0.1%)
Grid generation             ....       6.801 sec  (  2.4%)

Maximum memory used throughout the entire SCF-calculation: 295.3 MB


           ************************************************************
           *        Program running with 4 parallel MPI-processes     *
           *              working on a common directory               *
           ************************************************************
------------------------------------------------------------------------------
                        ORCA TD-DFT/TDA CALCULATION
------------------------------------------------------------------------------

Input orbitals are from        ... pbe0-train-17_job2.gbw
CI-vector output               ... pbe0-train-17_job2.cis
Tamm-Dancoff approximation     ... operative
CIS-Integral strategy          ... AO-integrals
Integral handling              ... AO integral Direct
Max. core memory used          ... 4000 MB
Reference state                ... RHF
Generation of triplets         ... off
Follow IRoot                   ... off
Number of operators            ... 1
Orbital ranges used for CIS calculation:
 Operator 0:  Orbitals  20... 70  to  71...1087
XAS localization array:
 Operator 0:  Orbitals  -1... -1

-------------------
XC-INTEGRATION GRID
-------------------

General Integration Accuracy     IntAcc      ... 3.467
Radial Grid Type                 RadialGrid  ... OptM3 with GC (2021)
Angular Grid (max. ang.)         AngularGrid ... 1 (Lebedev-50)
Angular grid pruning method      GridPruning ... 4 (adaptive)
Weight generation scheme         WeightScheme... Becke
Basis function cutoff            BFCut       ... 1.0000e-11
Integration weight cutoff        WCut        ... 1.0000e-14
Angular grids for H and He will be reduced by one unit
Partially contracted basis set               ... off
Rotationally invariant grid construction     ... off

Total number of grid points                  ...    24536
Total number of batches                      ...      400
Average number of points per batch           ...       61
Average number of grid points per atom       ...      767

---------------------
COSX-INTEGRATION GRID
---------------------

General Integration Accuracy     IntAcc      ... 3.067
Radial Grid Type                 RadialGrid  ... OptM3 with GC (2021)
Angular Grid (max. ang.)         AngularGrid ... 1 (Lebedev-50)
Angular grid pruning method      GridPruning ... 4 (adaptive)
Weight generation scheme         WeightScheme... Becke
Basis function cutoff            BFCut       ... 1.0000e-11
Integration weight cutoff        WCut        ... 1.0000e-14
Angular grids for H and He will be reduced by one unit
Partially contracted basis set               ... on
Rotationally invariant grid construction     ... off

Total number of grid points                  ...    11097
Total number of batches                      ...      190
Average number of points per batch           ...       58
Average number of grid points per atom       ...      347

---------------
TD-DFT XC SETUP
---------------

DFT calculation                         ... on
Name of the grid file                   ... pbe0-train-17_job2.grid_cis.tmp
Exchange functional (TD-DFT)            ... PBE
   PBE kappa parameter  XKappa (TD-DFT) ...  0.804000
   PBE mue parameter   XMuePBE (TD-DFT) ...  0.219520
Correlation functional (TD-DFT)         ... PBE
   PBE beta parameter CBetaPBE (TD-DFT) ...  0.066725
 LDA part of GGA corr.  LDAOpt (TD-DFT) ... PW91-LDA
Hybrid DFT                              ... on
   Exchange mixing (TD-DFT)             ...  0.250
   GGA exch. scaling (TD-DFT)           ...  0.750
   GGA corr. scaling (TD-DFT)           ...  1.000

Building densities             ... done
Calculating rho(r) on the grid ... done
Building xc-kernel on the grid ... done
                    *** TD-DFT CALCULATION INITIALIZED ***

---------------------------------
    LR-CPCM (non-equilibrium)
---------------------------------

Setting up LR-CPCM             ... done

------------------------
DAVIDSON-DIAGONALIZATION
------------------------

Dimension of the eigenvalue problem            ...  51867
Number of roots to be determined               ...     10
Maximum size of the expansion space            ...     70
Maximum number of iterations                   ...    100
Convergence tolerance for the residual         ...    1.000e-06
Convergence tolerance for the energies         ...    1.000e-06
Orthogonality tolerance                        ...    1.000e-14
Level Shift                                    ...    0.000e+00
Constructing the preconditioner                ... o.k.
Building the initial guess                     ... o.k.
Number of trial vectors determined             ...     70


                       ****Iteration    0****

   Memory handling for direct AO based CIS:
   Memory per vector needed      ...    54 MB
   Memory needed                 ...  1625 MB
   Memory available              ...  4000 MB
   Number of vectors per batch   ...    73
   Number of batches             ...     1
   Time for densities:            0.611
   Time for RI-J (Direct):       17.939
   Time for K (COSX):           103.961
   Time for XC-Integration:      39.562
   Time for LR-CPCM terms:       20.073
   Time for Sigma-Completion:     0.541
   Size of expansion space: 30
   Lowest Energy          :     0.128765146179
   Maximum Energy change  :     0.205224898477 (vector 9)
   Maximum residual norm  :     0.018174462139

                       ****Iteration    1****
   Time for densities:            0.198
   Time for RI-J (Direct):       10.339
   Time for K (COSX):            35.813
   Time for XC-Integration:      13.747
   Time for LR-CPCM terms:        9.249
   Time for Sigma-Completion:     0.156
   Size of expansion space: 40
   Lowest Energy          :     0.125961581406
   Maximum Energy change  :     0.010831708907 (vector 5)
   Maximum residual norm  :     0.000653514624

                       ****Iteration    2****
   Time for densities:            0.207
   Time for RI-J (Direct):       10.378
   Time for K (COSX):            36.361
   Time for XC-Integration:      13.850
   Time for LR-CPCM terms:        9.167
   Time for Sigma-Completion:     0.171
   Size of expansion space: 50
   Lowest Energy          :     0.125764540506
   Maximum Energy change  :     0.000679997681 (vector 5)
   Maximum residual norm  :     0.000045272500

                       ****Iteration    3****
   Time for densities:            0.196
   Time for RI-J (Direct):       10.426
   Time for K (COSX):            36.101
   Time for XC-Integration:      13.915
   Time for LR-CPCM terms:        9.248
   Time for Sigma-Completion:     0.157
   Size of expansion space: 60
   Lowest Energy          :     0.125755949075
   Maximum Energy change  :     0.000063636664 (vector 8)
   Maximum residual norm  :     0.000005071675

                       ****Iteration    4****
   Time for densities:            0.203
   Time for RI-J (Direct):       10.369
   Time for K (COSX):            36.293
   Time for XC-Integration:      14.351
   Time for LR-CPCM terms:        9.172
   Time for Sigma-Completion:     0.158
   Size of expansion space: 70
   Lowest Energy          :     0.125755653117
   Maximum Energy change  :     0.000006798737 (vector 8)
   Maximum residual norm  :     0.000000452844

      *** CONVERGENCE OF RESIDUAL NORM REACHED ***

Storing the converged CI vectors               ... pbe0-train-17_job2.cis1

                 *** DAVIDSON DONE ***

Total time for solving the CIS problem:   464.814sec

------------------------------------
TD-DFT/TDA EXCITED STATES (SINGLETS)
------------------------------------

the weight of the individual excitations are printed if larger than 1.0e-02

STATE  1:  E=   0.125756 au      3.422 eV    27600.2 cm**-1 <S**2> =   0.000000
    67a ->  71a  :     0.155426 (c= -0.39424152)
    69a ->  71a  :     0.572689 (c=  0.75676188)
    70a ->  71a  :     0.224751 (c=  0.47407904)

STATE  2:  E=   0.140220 au      3.816 eV    30774.8 cm**-1 <S**2> =   0.000000
    65a ->  71a  :     0.010436 (c=  0.10215648)
    67a ->  71a  :     0.550721 (c= -0.74210579)
    67a ->  73a  :     0.013928 (c= -0.11801841)
    67a ->  77a  :     0.011805 (c= -0.10865239)
    70a ->  71a  :     0.378913 (c= -0.61555946)

STATE  3:  E=   0.142823 au      3.886 eV    31346.1 cm**-1 <S**2> =   0.000000
    67a ->  71a  :     0.190003 (c= -0.43589362)
    68a ->  71a  :     0.136221 (c=  0.36908104)
    69a ->  71a  :     0.359259 (c= -0.59938180)
    70a ->  71a  :     0.259309 (c=  0.50922351)

STATE  4:  E=   0.159259 au      4.334 eV    34953.3 cm**-1 <S**2> =   0.000000
    67a ->  71a  :     0.022971 (c= -0.15156164)
    68a ->  71a  :     0.729321 (c= -0.85400282)
    69a ->  71a  :     0.028909 (c= -0.17002756)
    69a ->  72a  :     0.032561 (c= -0.18044747)
    70a ->  71a  :     0.080915 (c=  0.28445535)
    70a ->  72a  :     0.059319 (c= -0.24355498)

STATE  5:  E=   0.172878 au      4.704 eV    37942.3 cm**-1 <S**2> =   0.000000
    68a ->  71a  :     0.036640 (c=  0.19141624)
    68a ->  72a  :     0.038651 (c=  0.19659814)
    69a ->  72a  :     0.032684 (c=  0.18078733)
    70a ->  72a  :     0.862686 (c= -0.92880903)

STATE  6:  E=   0.175232 au      4.768 eV    38459.1 cm**-1 <S**2> =   0.000000
    66a ->  71a  :     0.015317 (c=  0.12376023)
    67a ->  72a  :     0.019382 (c=  0.13922081)
    68a ->  71a  :     0.028344 (c=  0.16835530)
    68a ->  72a  :     0.013166 (c= -0.11474283)
    69a ->  72a  :     0.837662 (c= -0.91523880)
    70a ->  71a  :     0.012158 (c= -0.11026210)
    70a ->  72a  :     0.016818 (c= -0.12968280)

STATE  7:  E=   0.185807 au      5.056 eV    40779.8 cm**-1 <S**2> =   0.000000
    65a ->  71a  :     0.026713 (c=  0.16344033)
    66a ->  71a  :     0.898495 (c= -0.94788970)
    68a ->  72a  :     0.014467 (c= -0.12027869)

STATE  8:  E=   0.188493 au      5.129 eV    41369.4 cm**-1 <S**2> =   0.000000
    66a ->  71a  :     0.016465 (c= -0.12831595)
    66a ->  72a  :     0.011382 (c= -0.10668659)
    68a ->  72a  :     0.869437 (c=  0.93243585)
    69a ->  72a  :     0.022770 (c= -0.15089651)
    70a ->  72a  :     0.027939 (c=  0.16714917)
    70a ->  73a  :     0.024507 (c= -0.15654655)

STATE  9:  E=   0.188970 au      5.142 eV    41474.2 cm**-1 <S**2> =   0.000000
    66a ->  72a  :     0.028318 (c= -0.16827996)
    67a ->  72a  :     0.921157 (c=  0.95976947)
    69a ->  72a  :     0.016704 (c=  0.12924509)

STATE 10:  E=   0.195220 au      5.312 eV    42845.9 cm**-1 <S**2> =   0.000000
    65a ->  71a  :     0.911594 (c= -0.95477436)
    66a ->  71a  :     0.021559 (c= -0.14683069)
    69a ->  73a  :     0.011795 (c=  0.10860467)
    70a ->  73a  :     0.010052 (c=  0.10026164)


-----------------------------
TD-DFT/TDA-EXCITATION SPECTRA
-----------------------------

Center of mass = (  0.0142, -0.6550,  0.2919)
Calculating the Dipole integrals                  ... done
Transforming integrals                            ... done
Calculating the Linear Momentum integrals         ... done
Transforming integrals                            ... done
Calculating angular momentum integrals            ... done
Transforming integrals                            ... done

-----------------------------------------------------------------------------
         ABSORPTION SPECTRUM VIA TRANSITION ELECTRIC DIPOLE MOMENTS
-----------------------------------------------------------------------------
State   Energy    Wavelength  fosc         T2        TX        TY        TZ  
        (cm-1)      (nm)                 (au**2)    (au)      (au)      (au) 
-----------------------------------------------------------------------------
   1   27600.2    362.3   0.042861744   0.51125  -0.70801  -0.03613  -0.09308
   2   30774.8    324.9   0.175676043   1.87929   1.24886  -0.55017  -0.13018
   3   31346.1    319.0   0.120414375   1.26465  -0.66794   0.84909   0.31233
   4   34953.3    286.1   0.720356968   6.78476  -2.50171   0.69630   0.20345
   5   37942.3    263.6   0.096559621   0.83781   0.63560  -0.65144  -0.09718
   6   38459.1    260.0   0.194972395   1.66898  -0.64473  -1.11742  -0.06839
   7   40779.8    245.2   0.012710650   0.10261  -0.28918  -0.13557  -0.02464
   8   41369.4    241.7   0.004654806   0.03704   0.17208   0.08518   0.01329
   9   41474.2    241.1   0.028428429   0.22566   0.38327   0.28064   0.00200
  10   42845.9    233.4   0.002157351   0.01658   0.06062  -0.07369   0.08643

-----------------------------------------------------------------------------
         ABSORPTION SPECTRUM VIA TRANSITION VELOCITY DIPOLE MOMENTS
-----------------------------------------------------------------------------
State   Energy    Wavelength   fosc        P2         PX        PY        PZ  
        (cm-1)      (nm)                 (au**2)     (au)      (au)      (au) 
-----------------------------------------------------------------------------
   1   27600.2    362.3   0.026417790   0.00498   0.07053   0.00177   0.00225
   2   30774.8    324.9   0.072925369   0.01534  -0.12209  -0.00408  -0.02040
   3   31346.1    319.0   0.018652861   0.00400   0.06237   0.01027   0.00097
   4   34953.3    286.1   0.329199659   0.07864   0.27974  -0.01842   0.00697
   5   37942.3    263.6   0.034060966   0.00883  -0.08788   0.03332   0.00063
   6   38459.1    260.0   0.028362720   0.00746   0.05687   0.05882   0.02757
   7   40779.8    245.2   0.005875666   0.00164   0.03987  -0.00210   0.00663
   8   41369.4    241.7   0.004963808   0.00140  -0.03693   0.00220  -0.00589
   9   41474.2    241.1   0.006218147   0.00176  -0.03842  -0.01692  -0.00018
  10   42845.9    233.4   0.000058412   0.00002   0.00081   0.00404   0.00039

-------------------------------------------------------------------
                             CD SPECTRUM
-------------------------------------------------------------------
State  Energy     Wavelength     R         MX        MY        MZ   
       (cm-1)       (nm)     (1e40*cgs)   (au)      (au)      (au)  
-------------------------------------------------------------------
   1   27600.2    362.3    -15.84547   0.07079  -0.07415  -0.14859
   2   30774.8    324.9    128.91376   0.08090  -0.30756  -0.02454
   3   31346.1    319.0    -71.34148   0.02986  -0.15650   0.00481
   4   34953.3    286.1     67.26580  -0.03287   0.15654  -0.23859
   5   37942.3    263.6    -43.31951  -0.07268   0.07946  -0.06249
   6   38459.1    260.0    -102.77679  -0.25049   0.35297  -0.21796
   7   40779.8    245.2      8.04018  -0.11659   0.12859  -0.03130
   8   41369.4    241.7     -0.75673   0.00461  -0.03345   0.03390
   9   41474.2    241.1     23.13356   0.20089  -0.09976   0.03554
  10   42845.9    233.4      3.60807   0.09747  -0.06174  -0.03246

-------------------------------------------------------------------
         CD SPECTRUM VIA TRANSITION VELOCITY DIPOLE MOMENTS        
-------------------------------------------------------------------
State  Energy     Wavelength     R         MX        MY        MZ   
       (cm-1)       (nm)     (1e40*cgs)   (au)      (au)      (au)  
-------------------------------------------------------------------
   1   27600.2    362.3     16.97389   0.07079  -0.07415  -0.14859
   2   30774.8    324.9    -27.30615   0.08090  -0.30756  -0.02454
   3   31346.1    319.0      0.85459   0.02986  -0.15650   0.00481
   4   34953.3    286.1    -40.67345  -0.03287   0.15654  -0.23859
   5   37942.3    263.6     24.52960  -0.07268   0.07946  -0.06249
   6   38459.1    260.0      1.36416  -0.25049   0.35297  -0.21796
   7   40779.8    245.2    -13.00420  -0.11659   0.12859  -0.03130
   8   41369.4    241.7     -1.10962   0.00461  -0.03345   0.03390
   9   41474.2    241.1    -15.06148   0.20089  -0.09976   0.03554
  10   42845.9    233.4     -0.44217   0.09747  -0.06174  -0.03246

Total run time:      470.815 sec

           *** ORCA-CIS/TD-DFT FINISHED WITHOUT ERROR ***

Maximum memory used throughout the entire CIS-calculation: 1491.6 MB

-----------------------
CIS/TD-DFT TOTAL ENERGY
-----------------------

    E(SCF)  =   -954.232691359 Eh
    DE(CIS) =      0.125755653 Eh (Root  1)
    ----------------------------- ---------
    E(tot)  =   -954.106935706 Eh


-------------------------   --------------------
FINAL SINGLE POINT ENERGY      -954.106935706253
-------------------------   --------------------


                            ***************************************
                            *     ORCA property calculations      *
                            ***************************************

                                    ---------------------
                                    Active property flags
                                    ---------------------
   (+) Dipole Moment


------------------------------------------------------------------------------
                       ORCA ELECTRIC PROPERTIES CALCULATION
------------------------------------------------------------------------------

Dipole Moment Calculation                       ... on
Quadrupole Moment Calculation                   ... off
Polarizability Calculation                      ... off
GBWName                                         ... pbe0-train-17_job2.gbw
Electron density                                ... pbe0-train-17_job2.scfp
The origin for moment calculation is the CENTER OF MASS  = ( 0.014206, -0.654992  0.291895)

-------------
DIPOLE MOMENT
-------------
                                X             Y             Z
Electronic contribution:      0.74566      -6.90472      -1.50565
Nuclear contribution   :      0.68616       9.89702       0.00634
                        -----------------------------------------
Total Dipole Moment    :      1.43182       2.99230      -1.49931
                        -----------------------------------------
Magnitude (a.u.)       :      3.64031
Magnitude (Debye)      :      9.25294



--------------------
Rotational spectrum 
--------------------
 
Rotational constants in cm-1:     0.022425     0.005273     0.004811 
Rotational constants in MHz :   672.290887   158.079985   144.226581 

 Dipole components along the rotational axes: 
x,y,z [a.u.] :    -1.382889     1.460344    -3.034286 
x,y,z [Debye]:    -3.515025     3.711898    -7.712543 

 

Timings for individual modules:

Sum of individual times         ...      762.478 sec (=  12.708 min)
GTO integral calculation        ...        4.582 sec (=   0.076 min)   0.6 %
SCF iterations                  ...      286.189 sec (=   4.770 min)  37.5 %
CIS module                      ...      471.707 sec (=   7.862 min)  61.9 %



                             ****ORCA TERMINATED NORMALLY****
TOTAL RUN TIME: 0 days 3 hours 15 minutes 12 seconds 705 msec
