
                                 *****************
                                 * O   R   C   A *
                                 *****************

                                            #,                                       
                                            ###                                      
                                            ####                                     
                                            #####                                    
                                            ######                                   
                                           ########,                                 
                                     ,,################,,,,,                         
                               ,,#################################,,                 
                          ,,##########################################,,             
                       ,#########################################, ''#####,          
                    ,#############################################,,   '####,        
                  ,##################################################,,,,####,       
                ,###########''''           ''''###############################       
              ,#####''   ,,,,##########,,,,          '''####'''          '####       
            ,##' ,,,,###########################,,,                        '##       
           ' ,,###''''                  '''############,,,                           
         ,,##''                                '''############,,,,        ,,,,,,###''
      ,#''                                            '''#######################'''  
     '                                                          ''''####''''         
             ,#######,   #######,   ,#######,      ##                                
            ,#'     '#,  ##    ##  ,#'     '#,    #''#        ######   ,####,        
            ##       ##  ##   ,#'  ##            #'  '#       #        #'  '#        
            ##       ##  #######   ##           ,######,      #####,   #    #        
            '#,     ,#'  ##    ##  '#,     ,#' ,#      #,         ##   #,  ,#        
             '#######'   ##     ##  '#######'  #'      '#     #####' # '####'        



                  #######################################################
                  #                        -***-                        #
                  #          Department of theory and spectroscopy      #
                  #    Directorship and core code : Frank Neese         #
                  #        Max Planck Institute fuer Kohlenforschung    #
                  #                Kaiser Wilhelm Platz 1               #
                  #                 D-45470 Muelheim/Ruhr               #
                  #                      Germany                        #
                  #                                                     #
                  #                  All rights reserved                #
                  #                        -***-                        #
                  #######################################################


                         Program Version 5.0.2 -  RELEASE  -


 With contributions from (in alphabetic order):
   Daniel Aravena         : Magnetic Suceptibility
   Michael Atanasov       : Ab Initio Ligand Field Theory (pilot matlab implementation)
   Alexander A. Auer      : GIAO ZORA, VPT2 properties, NMR spectrum
   Ute Becker             : Parallelization
   Giovanni Bistoni       : ED, misc. LED, open-shell LED, HFLD
   Martin Brehm           : Molecular dynamics
   Dmytro Bykov           : SCF Hessian
   Vijay G. Chilkuri      : MRCI spin determinant printing, contributions to CSF-ICE
   Dipayan Datta          : RHF DLPNO-CCSD density
   Achintya Kumar Dutta   : EOM-CC, STEOM-CC
   Dmitry Ganyushin       : Spin-Orbit,Spin-Spin,Magnetic field MRCI
   Miquel Garcia          : C-PCM and meta-GGA Hessian, CC/C-PCM, Gaussian charge scheme
   Yang Guo               : DLPNO-NEVPT2, F12-NEVPT2, CIM, IAO-localization
   Andreas Hansen         : Spin unrestricted coupled pair/coupled cluster methods
   Benjamin Helmich-Paris : MC-RPA, TRAH-SCF, COSX integrals
   Lee Huntington         : MR-EOM, pCC
   Robert Izsak           : Overlap fitted RIJCOSX, COSX-SCS-MP3, EOM
   Marcus Kettner         : VPT2
   Christian Kollmar      : KDIIS, OOCD, Brueckner-CCSD(T), CCSD density, CASPT2, CASPT2-K
   Simone Kossmann        : Meta GGA functionals, TD-DFT gradient, OOMP2, MP2 Hessian
   Martin Krupicka        : Initial AUTO-CI
   Lucas Lang             : DCDCAS
   Marvin Lechner         : AUTO-CI (C++ implementation), FIC-MRCC
   Dagmar Lenk            : GEPOL surface, SMD
   Dimitrios Liakos       : Extrapolation schemes; Compound Job, initial MDCI parallelization
   Dimitrios Manganas     : Further ROCIS development; embedding schemes
   Dimitrios Pantazis     : SARC Basis sets
   Anastasios Papadopoulos: AUTO-CI, single reference methods and gradients
   Taras Petrenko         : DFT Hessian,TD-DFT gradient, ASA, ECA, R-Raman, ABS, FL, XAS/XES, NRVS
   Peter Pinski           : DLPNO-MP2, DLPNO-MP2 Gradient
   Christoph Reimann      : Effective Core Potentials
   Marius Retegan         : Local ZFS, SOC
   Christoph Riplinger    : Optimizer, TS searches, QM/MM, DLPNO-CCSD(T), (RO)-DLPNO pert. Triples
   Tobias Risthaus        : Range-separated hybrids, TD-DFT gradient, RPA, STAB
   Michael Roemelt        : Original ROCIS implementation
   Masaaki Saitow         : Open-shell DLPNO-CCSD energy and density
   Barbara Sandhoefer     : DKH picture change effects
   Avijit Sen             : IP-ROCIS
   Kantharuban Sivalingam : CASSCF convergence, NEVPT2, FIC-MRCI
   Bernardo de Souza      : ESD, SOC TD-DFT
   Georgi Stoychev        : AutoAux, RI-MP2 NMR, DLPNO-MP2 response
   Willem Van den Heuvel  : Paramagnetic NMR
   Boris Wezisla          : Elementary symmetry handling
   Frank Wennmohs         : Technical directorship


 We gratefully acknowledge several colleagues who have allowed us to
 interface, adapt or use parts of their codes:
   Stefan Grimme, W. Hujo, H. Kruse, P. Pracht,  : VdW corrections, initial TS optimization,
                  C. Bannwarth, S. Ehlert          DFT functionals, gCP, sTDA/sTD-DF
   Ed Valeev, F. Pavosevic, A. Kumar             : LibInt (2-el integral package), F12 methods
   Garnet Chan, S. Sharma, J. Yang, R. Olivares  : DMRG
   Ulf Ekstrom                                   : XCFun DFT Library
   Mihaly Kallay                                 : mrcc  (arbitrary order and MRCC methods)
   Jiri Pittner, Ondrej Demel                    : Mk-CCSD
   Frank Weinhold                                : gennbo (NPA and NBO analysis)
   Christopher J. Cramer and Donald G. Truhlar   : smd solvation model
   Lars Goerigk                                  : TD-DFT with DH, B97 family of functionals
   V. Asgeirsson, H. Jonsson                     : NEB implementation
   FAccTs GmbH                                   : IRC, NEB, NEB-TS, DLPNO-Multilevel, CI-OPT
                                                   MM, QMMM, 2- and 3-layer-ONIOM, Crystal-QMMM,
                                                   LR-CPCM, SF, NACMEs, symmetry and pop. for TD-DFT,
                                                   nearIR, NL-DFT gradient (VV10), updates on ESD,
                                                   ML-optimized integration grids
   S Lehtola, MJT Oliveira, MAL Marques          : LibXC Library
   Liviu Ungur et al                             : ANISO software


 Your calculation uses the libint2 library for the computation of 2-el integrals
 For citations please refer to: http://libint.valeyev.net

 Your ORCA version has been built with support for libXC version: 5.1.0
 For citations please refer to: https://tddft.org/programs/libxc/

 This ORCA versions uses:
   CBLAS   interface :  Fast vector & matrix operations
   LAPACKE interface :  Fast linear algebra routines
   SCALAPACK package :  Parallel linear algebra routines
   Shared memory     :  Shared parallel matrices
   BLAS/LAPACK       :  OpenBLAS 0.3.15  USE64BITINT DYNAMIC_ARCH NO_AFFINITY Sandybridge SINGLE_THREADED
        Core in use  :  Sandybridge
   Copyright (c) 2011-2014, The OpenBLAS Project


Your calculation utilizes the atom-pairwise dispersion correction
with the zero-damping scheme (D30)
Cite in your paper:
S.Grimme, J.Antony, S.Ehrlich and H.Krieg, J.Chem.Phys., 132, (2010), 154104 
   

Your calculation utilizes the SMD solvation module
Please cite in your paper:
A.V. Marenich, C.J. Cramer, D.G. Truhlar J. Phys. Chem. B, 113, (2009), 6378 

XCFun DFT library Copyright 2009-2010 Ulf Ekstrom and contributors.
See http://admol.org/xcfun for more information.
This is free software; see the source code for copying conditions.
There is ABSOLUTELY NO WARRANTY; not even for MERCHANTABILITY or FITNESS FOR A PARTICULAR PURPOSE.
For details see the documentation.
Scientific users of this library should cite U. Ekstrom, L. Visscher, R. Bast, A. J. Thorvaldsen and K. Ruud;
J.Chem.Theor.Comp. 2010, DOI: 10.1021/ct100117s
XCFun Version 0.99 

================================================================================

----- Orbital basis set information -----
Your calculation utilizes the basis: aug-cc-pVTZ 
    H, B-Ne : Obtained from the ccRepo (grant-hill.group.shef.ac.uk/ccrepo) Feb. 2017
              R. A. Kendall, T. H. Dunning, Jr., R. J. Harrison, J. Chem. Phys. 96, 6796 (1992)
         He : Obtained from the ccRepo (grant-hill.group.shef.ac.uk/ccrepo) Feb. 2017
              D. E. Woon, T. H. Dunning, Jr., J. Chem. Phys. 100, 2975 (1994)
  Li-Be, Na : Obtained from the ccRepo (grant-hill.group.shef.ac.uk/ccrepo) Feb. 2017
              B. P. Prascher, D. E. Woon, K. A. Peterson, T. H. Dunning, Jr., A. K. Wilson, Theor. Chem. Acc. 128, 69 (2011)
         Mg : Obtained from the Peterson Research Group Website (tyr0.chem.wsu.edu/~kipeters) Feb. 2017
              B. P. Prascher, D. E. Woon, K. A. Peterson, T. H. Dunning, Jr., A. K. Wilson, Theor. Chem. Acc. 128, 69 (2011)
      Al-Ar : Obtained from the ccRepo (grant-hill.group.shef.ac.uk/ccrepo) Feb. 2017
              D. E. Woon, T. H. Dunning, Jr., J. Chem. Phys. 98, 1358 (1993)
      Sc-Zn : Obtained from the ccRepo (grant-hill.group.shef.ac.uk/ccrepo) Feb. 2017
              N. B. Balabanov, K. A. Peterson, J. Chem. Phys. 123, 064107 (2005)
              N. B. Balabanov, K. A. Peterson, J. Chem. Phys. 125, 074110 (2006)
      Ga-Kr : Obtained from the ccRepo (grant-hill.group.shef.ac.uk/ccrepo) Feb. 2017
              A. K. Wilson, D. E. Woon, K. A. Peterson, T. H. Dunning, Jr., J. Chem. Phys. 110, 7667 (1999)
     Ag, Au : Obtained from the Peterson Research Group Website (tyr0.chem.wsu.edu/~kipeters) Feb. 2017
              K. A. Peterson, C. Puzzarini, Theor. Chem. Acc. 114, 283 (2005)

The basis set includes element-specific modifications.

Your calculation utilizes the basis: cc-pVTZ 
       H, B-Ne : Obtained from the ccRepo (grant-hill.group.shef.ac.uk/ccrepo) Feb. 2017
                 T. H. Dunning, Jr., J. Chem. Phys. 90, 1007 (1989)
            He : Obtained from the ccRepo (grant-hill.group.shef.ac.uk/ccrepo) Feb. 2017
                 D. E. Woon, T. H. Dunning, Jr., J. Chem. Phys. 100, 2975 (1994)
  Li-Be, Na-Mg : Obtained from the ccRepo (grant-hill.group.shef.ac.uk/ccrepo) Feb. 2017
                 B. P. Prascher, D. E. Woon, K. A. Peterson, T. H. Dunning, Jr., A. K. Wilson, Theor. Chem. Acc. 128, 69 (2011)
         Al-Ar : Obtained from the ccRepo (grant-hill.group.shef.ac.uk/ccrepo) Feb. 2017
                 D. E. Woon, T. H. Dunning, Jr., J. Chem. Phys. 98, 1358 (1993)
            Ca : Obtained from the Peterson Research Group Website (tyr0.chem.wsu.edu/~kipeters) Feb. 2017
                 J. Koput, K. A. Peterson, J. Phys. Chem. 106, 9595 (2002)
         Sc-Zn : Obtained from the ccRepo (grant-hill.group.shef.ac.uk/ccrepo) Feb. 2017
                 N. B. Balabanov, K. A. Peterson, J. Chem. Phys. 123, 064107 (2005)
                 N. B. Balabanov, K. A. Peterson, J. Chem. Phys. 125, 074110 (2006)
         Ga-Kr : Obtained from the ccRepo (grant-hill.group.shef.ac.uk/ccrepo) Feb. 2017
                 A. K. Wilson, D. E. Woon, K. A. Peterson, T. H. Dunning, Jr., J. Chem. Phys. 110, 7667 (1999)
             Y : Obtained from the ccRepo (grant-hill.group.shef.ac.uk/ccrepo) Feb. 2017
                 K. A. Peterson, D. Figgen, M. Dolg, H. Stoll, J. Chem. Phys. 126, 124101 (2007)
        Ag, Au : Obtained from the Peterson Research Group Website (tyr0.chem.wsu.edu/~kipeters) Feb. 2017
                 K. A. Peterson, C. Puzzarini, Theor. Chem. Acc. 114, 283 (2005)

----- AuxJ basis set information -----
Your calculation utilizes the auxiliary basis: aug-cc-pVTZ/JK 
  H, B-F, Al-Cl, Ga-Br : Obtained from the TURBOMOLE 7.0 basis set library

The basis set includes element-specific modifications.

Your calculation utilizes the auxiliary basis: cc-pVTZ/JK 
  H, B-F, Al-Cl, Ga-Br : Obtained from the TURBOMOLE 7.0 basis set library

----- AuxC basis set information -----
Your calculation utilizes the auxiliary basis: aug-cc-pVTZ/C 
  H-He, B-F, Al-Ar, Ga-Kr : Obtained from the EMSL Basis Set Exchange (bse.pnl.gov) Feb. 2017
                            F. Weigend, A. Kohn, C. Hattig, J. Chem. Phys. 116, 3175 (2002)
                   Be, Mg : Obtained from the TURBOMOLE 7.0 basis set library
                            C. Haettig, Phys. Chem. Chem. Phys. 7, 59 (2005)
                       Ne : Obtained from the EMSL Basis Set Exchange (bse.pnl.gov) Feb. 2017
                            C. Haettig, Phys. Chem. Chem. Phys. 7, 59 (2005)
                            F. Weigend, A. Kohn, C. Hattig, J. Chem. Phys. 116, 3175 (2002)
                    Sc-Zn : Obtained from the EMSL Basis Set Exchange (bse.pnl.gov) Feb. 2017
                            J. G. Hill, J. A. Platts, J. Chem. Phys. 128, 044104 (2008)

The basis set includes element-specific modifications.

Your calculation utilizes the auxiliary basis: cc-pVTZ/C 
  Obtained from the EMSL Basis Set Exchange (bse.pnl.gov) Feb. 2017
  H-He, B-F, Al-Ar, Ga-Kr : F. Weigend, A. Kohn, C. Hattig, J. Chem. Phys. 116, 3175 (2002)
             Li-Be, Na-Mg : C. Haettig, Phys. Chem. Chem. Phys. 7, 59 (2005)
                       Ne : C. Haettig, Phys. Chem. Chem. Phys. 7, 59 (2005)
                            F. Weigend, A. Kohn, C. Hattig, J. Chem. Phys. 116, 3175 (2002)
                    Sc-Zn : J. G. Hill, J. A. Platts, J. Chem. Phys. 128, 044104 (2008)

================================================================================
                                        WARNINGS
                       Please study these warnings very carefully!
================================================================================


WARNING: Geometry Optimization
  ===> : Switching off AutoStart
         For restart on a previous wavefunction, please use MOREAD

INFO   : the flag for use of the SHARK integral package has been found!



***************************************
The coordinates will be read from file: 
***************************************


Your calculation utilizes the atom-pairwise dispersion correction
with the zero-damping scheme (D30)
Cite in your paper:
S.Grimme, J.Antony, S.Ehrlich and H.Krieg, J.Chem.Phys., 132, (2010), 154104 
   

Your calculation utilizes the SMD solvation module
Please cite in your paper:
A.V. Marenich, C.J. Cramer, D.G. Truhlar J. Phys. Chem. B, 113, (2009), 6378 

XCFun DFT library Copyright 2009-2010 Ulf Ekstrom and contributors.
See http://admol.org/xcfun for more information.
This is free software; see the source code for copying conditions.
There is ABSOLUTELY NO WARRANTY; not even for MERCHANTABILITY or FITNESS FOR A PARTICULAR PURPOSE.
For details see the documentation.
Scientific users of this library should cite U. Ekstrom, L. Visscher, R. Bast, A. J. Thorvaldsen and K. Ruud;
J.Chem.Theor.Comp. 2010, DOI: 10.1021/ct100117s
XCFun Version 0.99 

================================================================================

----- Orbital basis set information -----
Your calculation utilizes the basis: aug-cc-pVTZ 
    H, B-Ne : Obtained from the ccRepo (grant-hill.group.shef.ac.uk/ccrepo) Feb. 2017
              R. A. Kendall, T. H. Dunning, Jr., R. J. Harrison, J. Chem. Phys. 96, 6796 (1992)
         He : Obtained from the ccRepo (grant-hill.group.shef.ac.uk/ccrepo) Feb. 2017
              D. E. Woon, T. H. Dunning, Jr., J. Chem. Phys. 100, 2975 (1994)
  Li-Be, Na : Obtained from the ccRepo (grant-hill.group.shef.ac.uk/ccrepo) Feb. 2017
              B. P. Prascher, D. E. Woon, K. A. Peterson, T. H. Dunning, Jr., A. K. Wilson, Theor. Chem. Acc. 128, 69 (2011)
         Mg : Obtained from the Peterson Research Group Website (tyr0.chem.wsu.edu/~kipeters) Feb. 2017
              B. P. Prascher, D. E. Woon, K. A. Peterson, T. H. Dunning, Jr., A. K. Wilson, Theor. Chem. Acc. 128, 69 (2011)
      Al-Ar : Obtained from the ccRepo (grant-hill.group.shef.ac.uk/ccrepo) Feb. 2017
              D. E. Woon, T. H. Dunning, Jr., J. Chem. Phys. 98, 1358 (1993)
      Sc-Zn : Obtained from the ccRepo (grant-hill.group.shef.ac.uk/ccrepo) Feb. 2017
              N. B. Balabanov, K. A. Peterson, J. Chem. Phys. 123, 064107 (2005)
              N. B. Balabanov, K. A. Peterson, J. Chem. Phys. 125, 074110 (2006)
      Ga-Kr : Obtained from the ccRepo (grant-hill.group.shef.ac.uk/ccrepo) Feb. 2017
              A. K. Wilson, D. E. Woon, K. A. Peterson, T. H. Dunning, Jr., J. Chem. Phys. 110, 7667 (1999)
     Ag, Au : Obtained from the Peterson Research Group Website (tyr0.chem.wsu.edu/~kipeters) Feb. 2017
              K. A. Peterson, C. Puzzarini, Theor. Chem. Acc. 114, 283 (2005)

The basis set includes element-specific modifications.

Your calculation utilizes the basis: cc-pVTZ 
       H, B-Ne : Obtained from the ccRepo (grant-hill.group.shef.ac.uk/ccrepo) Feb. 2017
                 T. H. Dunning, Jr., J. Chem. Phys. 90, 1007 (1989)
            He : Obtained from the ccRepo (grant-hill.group.shef.ac.uk/ccrepo) Feb. 2017
                 D. E. Woon, T. H. Dunning, Jr., J. Chem. Phys. 100, 2975 (1994)
  Li-Be, Na-Mg : Obtained from the ccRepo (grant-hill.group.shef.ac.uk/ccrepo) Feb. 2017
                 B. P. Prascher, D. E. Woon, K. A. Peterson, T. H. Dunning, Jr., A. K. Wilson, Theor. Chem. Acc. 128, 69 (2011)
         Al-Ar : Obtained from the ccRepo (grant-hill.group.shef.ac.uk/ccrepo) Feb. 2017
                 D. E. Woon, T. H. Dunning, Jr., J. Chem. Phys. 98, 1358 (1993)
            Ca : Obtained from the Peterson Research Group Website (tyr0.chem.wsu.edu/~kipeters) Feb. 2017
                 J. Koput, K. A. Peterson, J. Phys. Chem. 106, 9595 (2002)
         Sc-Zn : Obtained from the ccRepo (grant-hill.group.shef.ac.uk/ccrepo) Feb. 2017
                 N. B. Balabanov, K. A. Peterson, J. Chem. Phys. 123, 064107 (2005)
                 N. B. Balabanov, K. A. Peterson, J. Chem. Phys. 125, 074110 (2006)
         Ga-Kr : Obtained from the ccRepo (grant-hill.group.shef.ac.uk/ccrepo) Feb. 2017
                 A. K. Wilson, D. E. Woon, K. A. Peterson, T. H. Dunning, Jr., J. Chem. Phys. 110, 7667 (1999)
             Y : Obtained from the ccRepo (grant-hill.group.shef.ac.uk/ccrepo) Feb. 2017
                 K. A. Peterson, D. Figgen, M. Dolg, H. Stoll, J. Chem. Phys. 126, 124101 (2007)
        Ag, Au : Obtained from the Peterson Research Group Website (tyr0.chem.wsu.edu/~kipeters) Feb. 2017
                 K. A. Peterson, C. Puzzarini, Theor. Chem. Acc. 114, 283 (2005)

----- AuxJ basis set information -----
Your calculation utilizes the auxiliary basis: aug-cc-pVTZ/JK 
  H, B-F, Al-Cl, Ga-Br : Obtained from the TURBOMOLE 7.0 basis set library

The basis set includes element-specific modifications.

Your calculation utilizes the auxiliary basis: cc-pVTZ/JK 
  H, B-F, Al-Cl, Ga-Br : Obtained from the TURBOMOLE 7.0 basis set library

----- AuxC basis set information -----
Your calculation utilizes the auxiliary basis: aug-cc-pVTZ/C 
  H-He, B-F, Al-Ar, Ga-Kr : Obtained from the EMSL Basis Set Exchange (bse.pnl.gov) Feb. 2017
                            F. Weigend, A. Kohn, C. Hattig, J. Chem. Phys. 116, 3175 (2002)
                   Be, Mg : Obtained from the TURBOMOLE 7.0 basis set library
                            C. Haettig, Phys. Chem. Chem. Phys. 7, 59 (2005)
                       Ne : Obtained from the EMSL Basis Set Exchange (bse.pnl.gov) Feb. 2017
                            C. Haettig, Phys. Chem. Chem. Phys. 7, 59 (2005)
                            F. Weigend, A. Kohn, C. Hattig, J. Chem. Phys. 116, 3175 (2002)
                    Sc-Zn : Obtained from the EMSL Basis Set Exchange (bse.pnl.gov) Feb. 2017
                            J. G. Hill, J. A. Platts, J. Chem. Phys. 128, 044104 (2008)

The basis set includes element-specific modifications.

Your calculation utilizes the auxiliary basis: cc-pVTZ/C 
  Obtained from the EMSL Basis Set Exchange (bse.pnl.gov) Feb. 2017
  H-He, B-F, Al-Ar, Ga-Kr : F. Weigend, A. Kohn, C. Hattig, J. Chem. Phys. 116, 3175 (2002)
             Li-Be, Na-Mg : C. Haettig, Phys. Chem. Chem. Phys. 7, 59 (2005)
                       Ne : C. Haettig, Phys. Chem. Chem. Phys. 7, 59 (2005)
                            F. Weigend, A. Kohn, C. Hattig, J. Chem. Phys. 116, 3175 (2002)
                    Sc-Zn : J. G. Hill, J. A. Platts, J. Chem. Phys. 128, 044104 (2008)

================================================================================
                                        WARNINGS
                       Please study these warnings very carefully!
================================================================================

INFO   : Checking CIS options ...

INFO   : the flag for use of the SHARK integral package has been found!

================================================================================
                                       INPUT FILE
================================================================================
NAME = wb97x-d3-train-17.inp
|  1> ! wb97x-d3 aug-cc-PVTZ RIJCOSX Opt
|  2> %maxcore 4000
|  3> %basis
|  4>  AuxJ "aug-cc-PVTZ/JK"
|  5>  AuxC "aug-cc-PVTZ/C"
|  6>  newGTO H "cc-PVTZ" end
|  7>  newAuxJGTO H "cc-PVTZ/JK" end
|  8>  newAuxCGTO H "cc-PVTZ/C" end
|  9> end
| 10> %cpcm
| 11>  SMD true
| 12>  SMDsolvent "dichloromethane"
| 13> end
| 14> %pal nprocs 4 end
| 15> * xyz 0 1
| 16> C          4.77420        1.63780        1.76330
| 17> C          3.81630        0.77330        1.01460
| 18> C          3.88450        0.52050       -0.31330
| 19> C          2.90810       -0.33290       -0.90840
| 20> O          2.92630       -0.57610       -2.22540
| 21> C          1.91360       -0.86660       -0.12770
| 22> C          0.93720       -1.85680       -0.69260
| 23> O          1.32790       -2.85030       -1.26890
| 24> C         -0.48320       -1.56900       -0.50450
| 25> C         -0.97210       -0.36870       -0.16210
| 26> C         -2.36670       -0.01160        0.00320
| 27> C         -2.68450        1.28840        0.40560
| 28> C         -4.00130        1.67060        0.57940
| 29> C         -5.02800        0.77430        0.35400
| 30> C         -4.72930       -0.52660       -0.04770
| 31> O         -5.76350       -1.38110       -0.26130
| 32> C         -3.40970       -0.91280       -0.22110
| 33> C          1.86060       -0.58470        1.28590
| 34> O          1.05850       -0.99880        2.08230
| 35> O          2.85470        0.25690        1.77900
| 36> H          5.53160        2.04190        1.09990
| 37> H          5.25080        1.05610        2.55030
| 38> H          4.23510        2.45280        2.24290
| 39> H          4.66780        0.95090       -0.91650
| 40> H          3.70140       -0.17760       -2.64210
| 41> H         -1.12870       -2.40770       -0.72070
| 42> H         -0.27690        0.44310        0.01320
| 43> H         -1.88930        1.99570        0.58790
| 44> H         -4.23310        2.67730        0.89340
| 45> H         -6.06130        1.05400        0.48210
| 46> H         -5.42750       -2.24770       -0.52110
| 47> H         -3.19390       -1.92450       -0.53350
| 48> *
| 49> 
| 50> 
| 51> $new_job
| 52> ! wb97x-d3 aug-cc-PVTZ RIJCOSX SP
| 53> %maxcore 4000
| 54> %basis
| 55>  AuxJ "aug-cc-PVTZ/JK"
| 56>  AuxC "aug-cc-PVTZ/C"
| 57>  newGTO H "cc-PVTZ" end
| 58>  newAuxJGTO H "cc-PVTZ/JK" end
| 59>  newAuxCGTO H "cc-PVTZ/C" end
| 60> end
| 61> %cpcm
| 62>  SMD true
| 63>  SMDsolvent "dichloromethane"
| 64> end
| 65> %pal nprocs 4 end
| 66> %tddft
| 67>  nroots 10
| 68>  maxdim 7
| 69> end
| 70> * xyzfile 0 1
| 71> 
| 72>                          ****END OF INPUT****
================================================================================


                 $$$$$$$$$$$$$$$$$$$$$$$$$$$$$$$$$$$$$$$$$$$$$$ 
                 $ THERE ARE  2 JOBS TO BE PROCESSED THIS RUN $
                 $$$$$$$$$$$$$$$$$$$$$$$$$$$$$$$$$$$$$$$$$$$$$$ 




                 $$$$$$$$$$$$$$$$  JOB NUMBER  1 $$$$$$$$$$$$$$


                       *****************************
                       * Geometry Optimization Run *
                       *****************************

Geometry optimization settings:
Update method            Update   .... BFGS
Choice of coordinates    CoordSys .... Z-matrix Internals
Initial Hessian          InHess   .... Almoef's Model

Convergence Tolerances:
Energy Change            TolE     ....  5.0000e-06 Eh
Max. Gradient            TolMAXG  ....  3.0000e-04 Eh/bohr
RMS Gradient             TolRMSG  ....  1.0000e-04 Eh/bohr
Max. Displacement        TolMAXD  ....  4.0000e-03 bohr
RMS Displacement         TolRMSD  ....  2.0000e-03 bohr
Strict Convergence                ....  False
------------------------------------------------------------------------------
                        ORCA OPTIMIZATION COORDINATE SETUP
------------------------------------------------------------------------------

The optimization will be done in new redundant internal coordinates
Making redundant internal coordinates   ...  (new redundants) done
Evaluating the initial hessian          ...  (Almloef) done
Evaluating the coordinates              ...  done
Calculating the B-matrix                .... done
Calculating the G-matrix                .... done
Diagonalizing the G-matrix              .... done
Small eigenvalue found = 1.950e-03
Small eigenvalue found = 8.220e-03
Small eigenvalue found = 1.361e-02
Small eigenvalue found = 1.887e-02
The first mode is                       ....   64
The number of degrees of freedom        ....   90

    -----------------------------------------------------------------
                    Redundant Internal Coordinates


    -----------------------------------------------------------------
         Definition                    Initial Value    Approx d2E/dq
    -----------------------------------------------------------------
      1. B(C   1,C   0)                  1.4918         0.429847   
      2. B(C   2,C   1)                  1.3535         0.714532   
      3. B(C   3,C   2)                  1.4268         0.545767   
      4. B(O   4,C   3)                  1.3394         0.673938   
      5. B(C   5,C   3)                  1.3724         0.666638   
      6. B(C   6,C   5)                  1.5010         0.415589   
      7. B(O   7,C   6)                  1.2132         1.071464   
      8. B(C   8,C   6)                  1.4614         0.480611   
      9. B(C   9,C   8)                  1.3405         0.749356   
     10. B(C  10,C   9)                  1.4491         0.502949   
     11. B(C  11,C  10)                  1.3975         0.607884   
     12. B(C  12,C  11)                  1.3821         0.643156   
     13. B(C  13,C  12)                  1.3814         0.644846   
     14. B(C  14,C  13)                  1.3939         0.615935   
     15. B(O  15,C  14)                  1.3584         0.628383   
     16. B(C  16,C  14)                  1.3858         0.634410   
     17. B(C  16,C  10)                  1.3965         0.609967   
     18. B(C  17,C   5)                  1.4424         0.515376   
     19. B(O  18,C  17)                  1.2038         1.109101   
     20. B(O  19,C  17)                  1.3927         0.554030   
     21. B(O  19,C   1)                  1.3325         0.691125   
     22. B(H  20,C   0)                  1.0849         0.366883   
     23. B(H  21,C   0)                  1.0885         0.362054   
     24. B(H  22,C   0)                  1.0885         0.362067   
     25. B(H  23,C   2)                  1.0783         0.375965   
     26. B(H  24,O   4)                  0.9660         0.508558   
     27. B(H  25,C   8)                  1.0802         0.373301   
     28. B(H  26,C   9)                  1.0831         0.369378   
     29. B(H  27,C  11)                  1.0797         0.373925   
     30. B(H  28,C  12)                  1.0797         0.373974   
     31. B(H  29,C  13)                  1.0781         0.376159   
     32. B(H  30,O  15)                  0.9651         0.510335   
     33. B(H  31,C  16)                  1.0806         0.372750   
     34. A(C   1,C   0,H  21)          109.5308         0.332210   
     35. A(H  20,C   0,H  22)          109.6508         0.291944   
     36. A(C   1,C   0,H  20)          110.9301         0.332940   
     37. A(H  21,C   0,H  22)          107.3619         0.291336   
     38. A(H  20,C   0,H  21)          109.6014         0.291942   
     39. A(C   1,C   0,H  22)          109.6942         0.332212   
     40. A(C   0,C   1,C   2)          124.6302         0.416979   
     41. A(C   2,C   1,O  19)          121.7885         0.451191   
     42. A(C   0,C   1,O  19)          113.5808         0.411837   
     43. A(C   1,C   2,H  23)          120.7238         0.364195   
     44. A(C   3,C   2,H  23)          120.1684         0.347915   
     45. A(C   1,C   2,C   3)          119.1067         0.435191   
     46. A(C   2,C   3,O   4)          120.6249         0.427827   
     47. A(O   4,C   3,C   5)          119.9074         0.443522   
     48. A(C   2,C   3,C   5)          119.4222         0.429797   
     49. A(C   3,O   4,H  24)          111.1089         0.374041   
     50. A(C   3,C   5,C  17)          120.5398         0.425406   
     51. A(C   3,C   5,C   6)          120.9209         0.409413   
     52. A(C   6,C   5,C  17)          118.2853         0.391283   
     53. A(O   7,C   6,C   8)          122.3724         0.454642   
     54. A(C   5,C   6,C   8)          116.9936         0.386542   
     55. A(C   5,C   6,O   7)          120.6324         0.442808   
     56. A(C   9,C   8,H  25)          121.8973         0.366728   
     57. A(C   6,C   8,C   9)          124.3109         0.429014   
     58. A(C   6,C   8,H  25)          113.7118         0.340166   
     59. A(C   8,C   9,C  10)          126.9274         0.432528   
     60. A(C  10,C   9,H  26)          114.4928         0.342156   
     61. A(C   8,C   9,H  26)          118.5793         0.366065   
     62. A(C  11,C  10,C  16)          118.4706         0.431262   
     63. A(C   9,C  10,C  11)          118.7482         0.416639   
     64. A(C   9,C  10,C  16)          122.7811         0.416893   
     65. A(C  10,C  11,C  12)          120.6717         0.435391   
     66. A(C  10,C  11,H  27)          119.3740         0.353983   
     67. A(C  12,C  11,H  27)          119.9530         0.357387   
     68. A(C  11,C  12,C  13)          120.5417         0.440050   
     69. A(C  13,C  12,H  28)          119.5281         0.357554   
     70. A(C  11,C  12,H  28)          119.9303         0.357395   
     71. A(C  12,C  13,C  14)          119.5579         0.436630   
     72. A(C  14,C  13,H  29)          118.7998         0.355131   
     73. A(C  12,C  13,H  29)          121.6423         0.357909   
     74. A(O  15,C  14,C  16)          122.0023         0.434058   
     75. A(C  13,C  14,C  16)          120.0127         0.435349   
     76. A(C  13,C  14,O  15)          117.9847         0.431758   
     77. A(C  14,O  15,H  30)          110.0056         0.369782   
     78. A(C  14,C  16,H  31)          119.1591         0.356366   
     79. A(C  10,C  16,H  31)          120.0958         0.353999   
     80. A(C  10,C  16,C  14)          120.7451         0.434587   
     81. A(O  18,C  17,O  19)          116.6950         0.466429   
     82. A(C   5,C  17,O  19)          116.0309         0.408954   
     83. A(C   5,C  17,O  18)          127.2735         0.463382   
     84. A(C   1,O  19,C  17)          123.1044         0.428111   
     85. D(C   2,C   1,C   0,H  22)    121.5682         0.013646   
     86. D(O  19,C   1,C   0,H  21)     59.4058         0.013646   
     87. D(C   2,C   1,C   0,H  20)      0.2821         0.013646   
     88. D(C   2,C   1,C   0,H  21)   -120.8338         0.013646   
     89. D(O  19,C   1,C   0,H  20)   -179.4783         0.013646   
     90. D(O  19,C   1,C   0,H  22)    -58.1922         0.013646   
     91. D(C   3,C   2,C   1,C   0)    179.6174         0.036086   
     92. D(H  23,C   2,C   1,C   0)     -0.0048         0.036086   
     93. D(H  23,C   2,C   1,O  19)    179.7369         0.036086   
     94. D(C   3,C   2,C   1,O  19)     -0.6409         0.036086   
     95. D(C   5,C   3,C   2,H  23)   -179.6482         0.020366   
     96. D(C   5,C   3,C   2,C   1)      0.7274         0.020366   
     97. D(O   4,C   3,C   2,H  23)     -2.1039         0.020366   
     98. D(O   4,C   3,C   2,C   1)    178.2717         0.020366   
     99. D(H  24,O   4,C   3,C   2)      5.2963         0.033775   
    100. D(H  24,O   4,C   3,C   5)   -177.1713         0.033775   
    101. D(C  17,C   5,C   3,O   4)   -178.3527         0.031057   
    102. D(C  17,C   5,C   3,C   2)     -0.7905         0.031057   
    103. D(C   6,C   5,C   3,O   4)      7.5354         0.031057   
    104. D(C   6,C   5,C   3,C   2)   -174.9024         0.031057   
    105. D(C   8,C   6,C   5,C  17)     58.0333         0.011831   
    106. D(C   8,C   6,C   5,C   3)   -127.7252         0.011831   
    107. D(O   7,C   6,C   5,C  17)   -121.5065         0.011831   
    108. D(O   7,C   6,C   5,C   3)     52.7350         0.011831   
    109. D(H  25,C   8,C   6,O   7)     12.8971         0.015727   
    110. D(H  25,C   8,C   6,C   5)   -166.6341         0.015727   
    111. D(C   9,C   8,C   6,O   7)   -163.8956         0.015727   
    112. D(C   9,C   8,C   6,C   5)     16.5733         0.015727   
    113. D(C  10,C   9,C   8,H  25)      1.6337         0.040039   
    114. D(H  26,C   9,C   8,C   6)     -1.5823         0.040039   
    115. D(C  10,C   9,C   8,C   6)    178.1745         0.040039   
    116. D(H  26,C   9,C   8,H  25)   -178.1231         0.040039   
    117. D(C  16,C  10,C   9,H  26)    177.9355         0.017232   
    118. D(C  16,C  10,C   9,C   8)     -1.8298         0.017232   
    119. D(C  11,C  10,C   9,H  26)     -2.1455         0.017232   
    120. D(C  11,C  10,C   9,C   8)    178.0892         0.017232   
    121. D(H  27,C  11,C  10,C  16)    179.6941         0.025511   
    122. D(H  27,C  11,C  10,C   9)     -0.2284         0.025511   
    123. D(C  12,C  11,C  10,C  16)      0.1184         0.025511   
    124. D(C  12,C  11,C  10,C   9)   -179.8041         0.025511   
    125. D(H  28,C  12,C  11,H  27)      0.2488         0.028759   
    126. D(H  28,C  12,C  11,C  10)    179.8220         0.028759   
    127. D(C  13,C  12,C  11,H  27)   -179.7795         0.028759   
    128. D(C  13,C  12,C  11,C  10)     -0.2062         0.028759   
    129. D(H  29,C  13,C  12,H  28)      0.1016         0.028921   
    130. D(H  29,C  13,C  12,C  11)   -179.8703         0.028921   
    131. D(C  14,C  13,C  12,H  28)   -179.8180         0.028921   
    132. D(C  14,C  13,C  12,C  11)      0.2101         0.028921   
    133. D(C  16,C  14,C  13,H  29)    179.9480         0.026231   
    134. D(C  16,C  14,C  13,C  12)     -0.1301         0.026231   
    135. D(O  15,C  14,C  13,H  29)      0.1247         0.026231   
    136. D(O  15,C  14,C  13,C  12)   -179.9534         0.026231   
    137. D(H  30,O  15,C  14,C  16)      0.9904         0.029028   
    138. D(H  30,O  15,C  14,C  13)   -179.1901         0.029028   
    139. D(H  31,C  16,C  14,O  15)     -0.1418         0.027931   
    140. D(H  31,C  16,C  14,C  13)   -179.9578         0.027931   
    141. D(C  10,C  16,C  14,O  15)    179.8618         0.027931   
    142. D(C  10,C  16,C  14,C  13)      0.0459         0.027931   
    143. D(H  31,C  16,C  10,C  11)    179.9646         0.025696   
    144. D(H  31,C  16,C  10,C   9)     -0.1163         0.025696   
    145. D(C  14,C  16,C  10,C  11)     -0.0391         0.025696   
    146. D(C  14,C  16,C  10,C   9)    179.8800         0.025696   
    147. D(O  18,C  17,C   5,C   3)   -178.9771         0.018108   
    148. D(O  19,C  17,C   5,C   6)    174.9992         0.018108   
    149. D(O  19,C  17,C   5,C   3)      0.7348         0.018108   
    150. D(O  18,C  17,C   5,C   6)     -4.7127         0.018108   
    151. D(C   1,O  19,C  17,O  18)    179.0935         0.022216   
    152. D(C   1,O  19,C  17,C   5)     -0.6499         0.022216   
    153. D(C  17,O  19,C   1,C   2)      0.6329         0.035683   
    154. D(C  17,O  19,C   1,C   0)   -179.5991         0.035683   
    -----------------------------------------------------------------

Number of atoms                         .... 32
Number of degrees of freedom            .... 154

         *************************************************************
         *                GEOMETRY OPTIMIZATION CYCLE   1            *
         *************************************************************
---------------------------------
CARTESIAN COORDINATES (ANGSTROEM)
---------------------------------
  C      4.774200    1.637800    1.763300
  C      3.816300    0.773300    1.014600
  C      3.884500    0.520500   -0.313300
  C      2.908100   -0.332900   -0.908400
  O      2.926300   -0.576100   -2.225400
  C      1.913600   -0.866600   -0.127700
  C      0.937200   -1.856800   -0.692600
  O      1.327900   -2.850300   -1.268900
  C     -0.483200   -1.569000   -0.504500
  C     -0.972100   -0.368700   -0.162100
  C     -2.366700   -0.011600    0.003200
  C     -2.684500    1.288400    0.405600
  C     -4.001300    1.670600    0.579400
  C     -5.028000    0.774300    0.354000
  C     -4.729300   -0.526600   -0.047700
  O     -5.763500   -1.381100   -0.261300
  C     -3.409700   -0.912800   -0.221100
  C      1.860600   -0.584700    1.285900
  O      1.058500   -0.998800    2.082300
  O      2.854700    0.256900    1.779000
  H      5.531600    2.041900    1.099900
  H      5.250800    1.056100    2.550300
  H      4.235100    2.452800    2.242900
  H      4.667800    0.950900   -0.916500
  H      3.701400   -0.177600   -2.642100
  H     -1.128700   -2.407700   -0.720700
  H     -0.276900    0.443100    0.013200
  H     -1.889300    1.995700    0.587900
  H     -4.233100    2.677300    0.893400
  H     -6.061300    1.054000    0.482100
  H     -5.427500   -2.247700   -0.521100
  H     -3.193900   -1.924500   -0.533500

----------------------------
CARTESIAN COORDINATES (A.U.)
----------------------------
  NO LB      ZA    FRAG     MASS         X           Y           Z
   0 C     6.0000    0    12.011    9.021931    3.094993    3.332154
   1 C     6.0000    0    12.011    7.211762    1.461325    1.917316
   2 C     6.0000    0    12.011    7.340641    0.983602   -0.592051
   3 C     6.0000    0    12.011    5.495513   -0.629090   -1.716627
   4 O     8.0000    0    15.999    5.529906   -1.088671   -4.205397
   5 C     6.0000    0    12.011    3.616180   -1.637637   -0.241318
   6 C     6.0000    0    12.011    1.771051   -3.508843   -1.308824
   7 O     8.0000    0    15.999    2.509367   -5.386286   -2.397873
   8 C     6.0000    0    12.011   -0.913116   -2.964980   -0.953367
   9 C     6.0000    0    12.011   -1.837003   -0.696742   -0.306325
  10 C     6.0000    0    12.011   -4.472415   -0.021921    0.006047
  11 C     6.0000    0    12.011   -5.072970    2.434723    0.766473
  12 C     6.0000    0    12.011   -7.561361    3.156976    1.094907
  13 C     6.0000    0    12.011   -9.501543    1.463215    0.668963
  14 C     6.0000    0    12.011   -8.937082   -0.995130   -0.090140
  15 O     8.0000    0    15.999  -10.891437   -2.609901   -0.493785
  16 C     6.0000    0    12.011   -6.443399   -1.724942   -0.417818
  17 C     6.0000    0    12.011    3.516024   -1.104923    2.429999
  18 O     8.0000    0    15.999    2.000275   -1.887458    3.934977
  19 O     8.0000    0    15.999    5.394601    0.485471    3.361823
  20 H     1.0000    0     1.008   10.453209    3.858632    2.078510
  21 H     1.0000    0     1.008    9.922574    1.995740    4.819369
  22 H     1.0000    0     1.008    8.003179    4.635120    4.238467
  23 H     1.0000    0     1.008    8.820864    1.796941   -1.731934
  24 H     1.0000    0     1.008    6.994632   -0.335615   -4.992845
  25 H     1.0000    0     1.008   -2.132934   -4.549894   -1.361926
  26 H     1.0000    0     1.008   -0.523265    0.837338    0.024944
  27 H     1.0000    0     1.008   -3.570260    3.771326    1.110970
  28 H     1.0000    0     1.008   -7.999400    5.059364    1.688281
  29 H     1.0000    0     1.008  -11.454197    1.991771    0.911037
  30 H     1.0000    0     1.008  -10.256489   -4.247537   -0.984736
  31 H     1.0000    0     1.008   -6.035596   -3.636778   -1.008169

--------------------------------
INTERNAL COORDINATES (ANGSTROEM)
--------------------------------
 C      0   0   0     0.000000000000     0.00000000     0.00000000
 C      1   0   0     1.491805734672     0.00000000     0.00000000
 C      2   1   0     1.353468688223   124.63017811     0.00000000
 C      3   2   1     1.426812016350   119.10672350   179.61741877
 O      4   3   2     1.339390338923   120.62491883   178.27172915
 C      4   3   2     1.372355067029   119.42216122     0.72744251
 C      6   4   3     1.500988011278   120.92089077   185.09758599
 O      7   6   4     1.213181944310   120.63239869    52.73501362
 C      7   6   4     1.461419381971   116.99355148   232.27483770
 C      9   7   6     1.340515221846   124.31086448    16.57326699
 C     10   9   7     1.449052676751   126.92741810   178.17447459
 C     11  10   9     1.397470071236   118.74821266   178.08918395
 C     12  11  10     1.382116319273   120.67170686   180.19593077
 C     13  12  11     1.381402092079   120.54167488   359.79377180
 C     14  13  12     1.393888585935   119.55789214     0.21014891
 O     15  14  13     1.358442067223   117.98472663   180.04662855
 C     15  14  13     1.385843483226   120.01271319   359.86986224
 C      6   4   3     1.442408253581   120.53983896   359.20950418
 O     18   6   4     1.203784108551   127.27348612   181.02289514
 O      2   1   3     1.332535507970   113.58083633   180.23959108
 H      1   2   3     1.084919872617   110.93007408     0.28211789
 H      1   2   3     1.088527193046   109.53081098   239.16619126
 H      1   2   3     1.088517326458   109.69422263   121.56821256
 H      3   2   1     1.078264016834   120.72377430     0.00000000
 H      5   4   3     0.966033720944   111.10887630     5.29625232
 H      9   7   6     1.080199231624   113.71183934   193.36590795
 H     10   9   7     1.083075422120   118.57933879   358.41770918
 H     12  11  10     1.079745164379   119.37396650   359.77161473
 H     13  12  11     1.079709280316   119.93025424   179.82201435
 H     14  13  12     1.078123643188   121.64230466   180.12973803
 H     16  15  14     0.965084245027   110.00556236   180.80991205
 H     17  15  14     1.080601818433   119.15909730   180.04223658

---------------------------
INTERNAL COORDINATES (A.U.)
---------------------------
 C      0   0   0     0.000000000000     0.00000000     0.00000000
 C      1   0   0     2.819104283543     0.00000000     0.00000000
 C      2   1   0     2.557685151579   124.63017811     0.00000000
 C      3   2   1     2.696283955489   119.10672350   179.61741877
 O      4   3   2     2.531080926984   120.62491883   178.27172915
 C      4   3   2     2.593375235184   119.42216122     0.72744251
 C      6   4   3     2.836456271614   120.92089077   185.09758599
 O      7   6   4     2.292581625364   120.63239869    52.73501362
 C      7   6   4     2.761682398729   116.99355148   232.27483770
 C      9   7   6     2.533206647641   124.31086448    16.57326699
 C     10   9   7     2.738312712685   126.92741810   178.17447459
 C     11  10   9     2.640835714987   118.74821266   178.08918395
 C     12  11  10     2.611821328649   120.67170686   180.19593077
 C     13  12  11     2.610471634855   120.54167488   359.79377180
 C     14  13  12     2.634067688616   119.55789214     0.21014891
 O     15  14  13     2.567083475849   117.98472663   180.04662855
 C     15  14  13     2.618864647777   120.01271319   359.86986224
 C      6   4   3     2.725756572577   120.53983896   359.20950418
 O     18   6   4     2.274822289528   127.27348612   181.02289514
 O      2   1   3     2.518127173788   113.58083633   180.23959108
 H      1   2   3     2.050201436495   110.93007408     0.28211789
 H      1   2   3     2.057018284182   109.53081098   239.16619126
 H      1   2   3     2.056999639034   109.69422263   121.56821256
 H      3   2   1     2.037623691879   120.72377430     0.00000000
 H      5   4   3     1.825539168716   111.10887630     5.29625232
 H      9   7   6     2.041280717841   113.71183934   193.36590795
 H     10   9   7     2.046715930188   118.57933879   358.41770918
 H     12  11  10     2.040422655102   119.37396650   359.77161473
 H     13  12  11     2.040354844050   119.93025424   179.82201435
 H     14  13  12     2.037358424130   121.64230466   180.12973803
 H     16  15  14     1.823744919264   110.00556236   180.80991205
 H     17  15  14     2.042041496655   119.15909730   180.04223658

---------------------
BASIS SET INFORMATION
---------------------
There are 3 groups of distinct atoms

 Group   1 Type C   : 19s6p3d2f contracted to 5s4p3d2f pattern {88111/3111/111/11}
 Group   2 Type O   : 19s6p3d2f contracted to 5s4p3d2f pattern {88111/3111/111/11}
 Group   3 Type H   : 5s2p1d contracted to 3s2p1d pattern {311/11/1}

Atom   0C    basis set group =>   1
Atom   1C    basis set group =>   1
Atom   2C    basis set group =>   1
Atom   3C    basis set group =>   1
Atom   4O    basis set group =>   2
Atom   5C    basis set group =>   1
Atom   6C    basis set group =>   1
Atom   7O    basis set group =>   2
Atom   8C    basis set group =>   1
Atom   9C    basis set group =>   1
Atom  10C    basis set group =>   1
Atom  11C    basis set group =>   1
Atom  12C    basis set group =>   1
Atom  13C    basis set group =>   1
Atom  14C    basis set group =>   1
Atom  15O    basis set group =>   2
Atom  16C    basis set group =>   1
Atom  17C    basis set group =>   1
Atom  18O    basis set group =>   2
Atom  19O    basis set group =>   2
Atom  20H    basis set group =>   3
Atom  21H    basis set group =>   3
Atom  22H    basis set group =>   3
Atom  23H    basis set group =>   3
Atom  24H    basis set group =>   3
Atom  25H    basis set group =>   3
Atom  26H    basis set group =>   3
Atom  27H    basis set group =>   3
Atom  28H    basis set group =>   3
Atom  29H    basis set group =>   3
Atom  30H    basis set group =>   3
Atom  31H    basis set group =>   3
---------------------------------
AUXILIARY/J BASIS SET INFORMATION
---------------------------------
There are 3 groups of distinct atoms

 Group   1 Type C   : 10s7p5d2f1g contracted to 10s7p5d2f1g pattern {1111111111/1111111/11111/11/1}
 Group   2 Type O   : 10s7p5d2f1g contracted to 10s7p5d2f1g pattern {1111111111/1111111/11111/11/1}
 Group   3 Type H   : 4s3p2d1f contracted to 4s3p2d1f pattern {1111/111/11/1}

Atom   0C    basis set group =>   1
Atom   1C    basis set group =>   1
Atom   2C    basis set group =>   1
Atom   3C    basis set group =>   1
Atom   4O    basis set group =>   2
Atom   5C    basis set group =>   1
Atom   6C    basis set group =>   1
Atom   7O    basis set group =>   2
Atom   8C    basis set group =>   1
Atom   9C    basis set group =>   1
Atom  10C    basis set group =>   1
Atom  11C    basis set group =>   1
Atom  12C    basis set group =>   1
Atom  13C    basis set group =>   1
Atom  14C    basis set group =>   1
Atom  15O    basis set group =>   2
Atom  16C    basis set group =>   1
Atom  17C    basis set group =>   1
Atom  18O    basis set group =>   2
Atom  19O    basis set group =>   2
Atom  20H    basis set group =>   3
Atom  21H    basis set group =>   3
Atom  22H    basis set group =>   3
Atom  23H    basis set group =>   3
Atom  24H    basis set group =>   3
Atom  25H    basis set group =>   3
Atom  26H    basis set group =>   3
Atom  27H    basis set group =>   3
Atom  28H    basis set group =>   3
Atom  29H    basis set group =>   3
Atom  30H    basis set group =>   3
Atom  31H    basis set group =>   3
---------------------------------
AUXILIARY/C BASIS SET INFORMATION
---------------------------------
There are 3 groups of distinct atoms

 Group   1 Type C   : 9s7p6d4f2g contracted to 9s7p6d4f2g pattern {111111111/1111111/111111/1111/11}
 Group   2 Type O   : 9s7p6d4f2g contracted to 9s7p6d4f2g pattern {111111111/1111111/111111/1111/11}
 Group   3 Type H   : 4s3p2d1f contracted to 4s3p2d1f pattern {1111/111/11/1}

Atom   0C    basis set group =>   1
Atom   1C    basis set group =>   1
Atom   2C    basis set group =>   1
Atom   3C    basis set group =>   1
Atom   4O    basis set group =>   2
Atom   5C    basis set group =>   1
Atom   6C    basis set group =>   1
Atom   7O    basis set group =>   2
Atom   8C    basis set group =>   1
Atom   9C    basis set group =>   1
Atom  10C    basis set group =>   1
Atom  11C    basis set group =>   1
Atom  12C    basis set group =>   1
Atom  13C    basis set group =>   1
Atom  14C    basis set group =>   1
Atom  15O    basis set group =>   2
Atom  16C    basis set group =>   1
Atom  17C    basis set group =>   1
Atom  18O    basis set group =>   2
Atom  19O    basis set group =>   2
Atom  20H    basis set group =>   3
Atom  21H    basis set group =>   3
Atom  22H    basis set group =>   3
Atom  23H    basis set group =>   3
Atom  24H    basis set group =>   3
Atom  25H    basis set group =>   3
Atom  26H    basis set group =>   3
Atom  27H    basis set group =>   3
Atom  28H    basis set group =>   3
Atom  29H    basis set group =>   3
Atom  30H    basis set group =>   3
Atom  31H    basis set group =>   3


           ************************************************************
           *        Program running with 4 parallel MPI-processes     *
           *              working on a common directory               *
           ************************************************************
------------------------------------------------------------------------------
                           ORCA GTO INTEGRAL CALCULATION
                           -- RI-GTO INTEGRALS CHOSEN --
------------------------------------------------------------------------------
------------------------------------------------------------------------------
                   ___                                                        
                  /   \      - P O W E R E D   B Y -                         
                 /     \                                                     
                 |  |  |   _    _      __       _____    __    __             
                 |  |  |  | |  | |    /  \     |  _  \  |  |  /  |          
                  \  \/   | |  | |   /    \    | | | |  |  | /  /          
                 / \  \   | |__| |  /  /\  \   | |_| |  |  |/  /          
                |  |  |   |  __  | /  /__\  \  |    /   |      \           
                |  |  |   | |  | | |   __   |  |    \   |  |\   \          
                \     /   | |  | | |  |  |  |  | |\  \  |  | \   \       
                 \___/    |_|  |_| |__|  |__|  |_| \__\ |__|  \__/        
                                                                              
                      - O R C A' S   B I G   F R I E N D -                    
                                      &                                       
                       - I N T E G R A L  F E E D E R -                       
                                                                              
 v1 FN, 2020, v2 2021                                                         
------------------------------------------------------------------------------


Reading SHARK input file wb97x-d3-train-17.SHARKINP.tmp ... ok
----------------------
SHARK INTEGRAL PACKAGE
----------------------

Number of atoms                             ...     32
Number of basis functions                   ...   1208
Number of shells                            ...    472
Maximum angular momentum                    ...      3
Integral batch strategy                     ... SHARK/LIBINT Hybrid
RI-J (if used) integral strategy            ... SPLIT-RIJ (Revised 2003 algorithm where possible)
Printlevel                                  ...      1
Contraction scheme used                     ... PARTIAL GENERAL contraction
Coulomb Range Separation                    ... NOT USED
Exchange Range Separation                   ... Long Range
   Mu parameter                             ...  0.250000
   Scaling (regular/separated)              ...  0.195728  0.804272
Finite Nucleus Model                        ... NOT USED
Auxiliary Coulomb fitting basis             ... AVAILABLE
   # of basis functions in Aux-J            ...   1940
   # of shells in Aux-J                     ...    620
   Maximum angular momentum in Aux-J        ...      4
Auxiliary J/K fitting basis                 ... NOT available
Auxiliary Correlation fitting basis         ... AVAILABLE
   # of basis functions in Aux-C            ...   2480
   # of shells in Aux-C                     ...    680
   Maximum angular momentum in Aux-C        ...      4
Auxiliary 'external' fitting basis          ... NOT available
Integral threshold                          ...     2.500000e-11
Primitive cut-off                           ...     2.500000e-12
Primitive pair pre-selection threshold      ...     2.500000e-12

Calculating pre-screening integrals         ... done (  0.3 sec) Dimension = 472
Calculating pre-screening integrals (ORCA)  ... done (  0.7 sec) Dimension = 352
Organizing shell pair data                  ... done (  1.0 sec)
Shell pair information
Total number of shell pairs                 ...    111628
Shell pairs after pre-screening             ...     69883
Total number of primitive shell pairs       ...    144012
Primitive shell pairs kept                  ...     81639
          la=0 lb=0:  15794 shell pairs
          la=1 lb=0:  17865 shell pairs
          la=1 lb=1:   4342 shell pairs
          la=2 lb=0:  11705 shell pairs
          la=2 lb=1:   5785 shell pairs
          la=2 lb=2:   1974 shell pairs
          la=3 lb=0:   6414 shell pairs
          la=3 lb=1:   3211 shell pairs
          la=3 lb=2:   2170 shell pairs
          la=3 lb=3:    623 shell pairs

Calculating one electron integrals          ... done (  0.2 sec)
Calculating RI/J V-Matrix + Cholesky decomp.... done (  0.4 sec)
Calculating RI/C V-Matrix + Cholesky decomp.... done (  1.0 sec)
Calculating Nuclear repulsion               ... done (  0.0 sec) ENN=   1439.514730946674 Eh

SHARK setup successfully completed in   6.8 seconds

Maximum memory used throughout the entire GTOINT-calculation: 111.3 MB


           ************************************************************
           *        Program running with 4 parallel MPI-processes     *
           *              working on a common directory               *
           ************************************************************
-------------------------------------------------------------------------------
                                 ORCA SCF
-------------------------------------------------------------------------------

------------
SCF SETTINGS
------------
Hamiltonian:
 Density Functional     Method          .... DFT(GTOs)
 Exchange Functional    Exchange        .... WB97X-D3
 Correlation Functional Correlation     .... WB97X-D3
 Gradients option       PostSCFGGA      .... off
 Hybrid DFT is turned on
   Fraction HF Exchange ScalHFX         ....  0.195728
   Scaling of DF-GGA-X  ScalDFX         ....  0.000000
   Scaling of DF-GGA-C  ScalDFC         ....  1.000000
   Scaling of DF-LDA-C  ScalLDAC        ....  1.000000
   Perturbative correction              ....  0.000000
   Density functional embedding theory  .... OFF
 Long-range corrected/Screened/Range-Separated Hybrid DFT is turned on
   Amount of maximum screened exact exchange              ....  0.804272
   Range separation parameter mu (erf(mu*r12)/r12)        ....  0.250000
 RI-approximation to the Coulomb term is turned on
   Number of AuxJ basis functions       .... 1940
   RIJ-COSX (HFX calculated with COS-X)).... on


General Settings:
 Integral files         IntName         .... wb97x-d3-train-17
 Hartree-Fock type      HFTyp           .... RHF
 Total Charge           Charge          ....    0
 Multiplicity           Mult            ....    1
 Number of Electrons    NEL             ....  142
 Basis Dimension        Dim             .... 1088
 Nuclear Repulsion      ENuc            ....   1439.5147309467 Eh

Convergence Acceleration:
 DIIS                   CNVDIIS         .... on
   Start iteration      DIISMaxIt       ....    12
   Startup error        DIISStart       ....  0.200000
   # of expansion vecs  DIISMaxEq       ....     5
   Bias factor          DIISBfac        ....   1.050
   Max. coefficient     DIISMaxC        ....  10.000
 Trust-Rad. Augm. Hess. CNVTRAH         .... auto
   Auto Start mean grad. ratio tolernc. ....  1.125000
   Auto Start start iteration           ....    20
   Auto Start num. interpolation iter.  ....    10
   Max. Number of Micro iterations      ....    16
   Max. Number of Macro iterations      .... Maxiter - #DIIS iter
   Number of Davidson start vectors     ....     2
   Converg. threshold I  (grad. norm)   ....   1.000e-05
   Converg. threshold II (energy diff.) ....   1.000e-08
   Grad. Scal. Fac. for Micro threshold ....   0.100
   Minimum threshold for Micro iter.    ....   0.010
   NR start threshold (gradient norm)   ....   0.001
   Initial trust radius                 ....   0.400
   Minimum AH scaling param. (alpha)    ....   1.000
   Maximum AH scaling param. (alpha)    .... 1000.000
   Orbital update algorithm             .... Taylor
   White noise on init. David. guess    .... on
   Maximum white noise                  ....   0.010
   Quad. conv. algorithm                .... NR
 SOSCF                  CNVSOSCF        .... on
   Start iteration      SOSCFMaxIt      ....   150
   Startup grad/error   SOSCFStart      ....  0.003300
 Level Shifting         CNVShift        .... on
   Level shift para.    LevelShift      ....    0.2500
   Turn off err/grad.   ShiftErr        ....    0.0010
 Zerner damping         CNVZerner       .... off
 Static damping         CNVDamp         .... on
   Fraction old density DampFac         ....    0.7000
   Max. Damping (<1)    DampMax         ....    0.9800
   Min. Damping (>=0)   DampMin         ....    0.0000
   Turn off err/grad.   DampErr         ....    0.1000
 Fernandez-Rico         CNVRico         .... off

SCF Procedure:
 Maximum # iterations   MaxIter         ....   125
 SCF integral mode      SCFMode         .... Direct
   Integral package                     .... SHARK and LIBINT hybrid scheme
 Reset frequency        DirectResetFreq ....    20
 Integral Threshold     Thresh          ....  2.500e-11 Eh
 Primitive CutOff       TCut            ....  2.500e-12 Eh

Convergence Tolerance:
 Convergence Check Mode ConvCheckMode   .... Total+1el-Energy
 Convergence forced     ConvForced      .... 0
 Energy Change          TolE            ....  1.000e-08 Eh
 1-El. energy change                    ....  1.000e-05 Eh
 Orbital Gradient       TolG            ....  1.000e-05
 Orbital Rotation angle TolX            ....  1.000e-05
 DIIS Error             TolErr          ....  5.000e-07


Diagonalization of the overlap matrix:
Smallest eigenvalue                        ... 8.521e-07
Time for diagonalization                   ...    0.332 sec
Threshold for overlap eigenvalues          ... 1.000e-08
Number of eigenvalues below threshold      ... 0
Time for construction of square roots      ...    0.918 sec
Total time needed                          ...    1.256 sec

Time for model grid setup =    1.656 sec

------------------------------
INITIAL GUESS: MODEL POTENTIAL
------------------------------
Loading Hartree-Fock densities                     ... done
Calculating cut-offs                               ... done
Initializing the effective Hamiltonian             ... done
Setting up the integral package (SHARK)            ... done
Starting the Coulomb interaction                   ... done (   3.2 sec)
Reading the grid                                   ... done
Mapping shells                                     ... done
Starting the XC term evaluation                    ... done (   2.3 sec)
  promolecular density results
     # of electrons  =    141.988001684
     EX              =   -121.102024774
     EC              =     -4.787874072
     EX+EC           =   -125.889898846
Transforming the Hamiltonian                       ... done (   0.2 sec)
Diagonalizing the Hamiltonian                      ... done (   0.4 sec)
Back transforming the eigenvectors                 ... done (   0.1 sec)
Now organizing SCF variables                       ... done
                      ------------------
                      INITIAL GUESS DONE (   7.9 sec)
                      ------------------
-------------------
DFT GRID GENERATION
-------------------

General Integration Accuracy     IntAcc      ... 4.388
Radial Grid Type                 RadialGrid  ... OptM3 with GC (2021)
Angular Grid (max. ang.)         AngularGrid ... 4 (Lebedev-302)
Angular grid pruning method      GridPruning ... 4 (adaptive)
Weight generation scheme         WeightScheme... Becke
Basis function cutoff            BFCut       ... 1.0000e-11
Integration weight cutoff        WCut        ... 1.0000e-14
Angular grids for H and He will be reduced by one unit
Partially contracted basis set               ... off
Rotationally invariant grid construction     ... off

Total number of grid points                  ...   163616
Total number of batches                      ...     2572
Average number of points per batch           ...       63
Average number of grid points per atom       ...     5113
Time for grid setup =    3.692 sec

--------------------
COSX GRID GENERATION
--------------------

GRIDX 1
-------
General Integration Accuracy     IntAcc      ... 3.816
Radial Grid Type                 RadialGrid  ... OptM3 with GC (2021)
Angular Grid (max. ang.)         AngularGrid ... 1 (Lebedev-50)
Angular grid pruning method      GridPruning ... 4 (adaptive)
Weight generation scheme         WeightScheme... Becke
Basis function cutoff            BFCut       ... 1.0000e-11
Integration weight cutoff        WCut        ... 1.0000e-14
Angular grids for H and He will be reduced by one unit
Partially contracted basis set               ... on
Rotationally invariant grid construction     ... off

Total number of grid points                  ...    20829
Total number of batches                      ...      343
Average number of points per batch           ...       60
Average number of grid points per atom       ...      651
UseSFitting                                  ... on

GRIDX 2
-------
General Integration Accuracy     IntAcc      ... 4.020
Radial Grid Type                 RadialGrid  ... OptM3 with GC (2021)
Angular Grid (max. ang.)         AngularGrid ... 2 (Lebedev-110)
Angular grid pruning method      GridPruning ... 4 (adaptive)
Weight generation scheme         WeightScheme... Becke
Basis function cutoff            BFCut       ... 1.0000e-11
Integration weight cutoff        WCut        ... 1.0000e-14
Angular grids for H and He will be reduced by one unit
Partially contracted basis set               ... on
Rotationally invariant grid construction     ... off

Total number of grid points                  ...    50134
Total number of batches                      ...      799
Average number of points per batch           ...       62
Average number of grid points per atom       ...     1567
UseSFitting                                  ... on

GRIDX 3
-------
General Integration Accuracy     IntAcc      ... 4.338
Radial Grid Type                 RadialGrid  ... OptM3 with GC (2021)
Angular Grid (max. ang.)         AngularGrid ... 3 (Lebedev-194)
Angular grid pruning method      GridPruning ... 4 (adaptive)
Weight generation scheme         WeightScheme... Becke
Basis function cutoff            BFCut       ... 1.0000e-11
Integration weight cutoff        WCut        ... 1.0000e-14
Angular grids for H and He will be reduced by one unit
Partially contracted basis set               ... on
Rotationally invariant grid construction     ... off

Total number of grid points                  ...   108179
Total number of batches                      ...     1706
Average number of points per batch           ...       63
Average number of grid points per atom       ...     3381
UseSFitting                                  ... on

Time for X-Grid setup             =    7.650 sec


--------------------
CPCM SOLVATION MODEL
--------------------
CPCM parameters:
  Epsilon                                         ...       8.9300
  Refrac                                          ...       1.4242
  Rsolv                                           ...       1.3000
  Surface type                                    ... GAUSSIAN VDW
  Epsilon function type                           ...         CPCM
Solvent:                                     ... DICHLOROMETHANE
SMD-CDS solvent descriptors:
  Soln                                       ...    1.4242
  Soln25                                     ...    1.4212
  Sola                                       ...    0.1000
  Solb                                       ...    0.0500
  Solg                                       ...   39.1500
  Solc                                       ...    0.0000
  Solh                                       ...    0.6670
Radii:
 Radius for C  used is    3.4960 Bohr (=   1.8500 Ang.)
 Radius for O  used is    3.9949 Bohr (=   2.1140 Ang.)
 Radius for H  used is    2.2677 Bohr (=   1.2000 Ang.)
Calculating surface                               ...        done! (  0.0s)
GEPOL surface points                              ...         1723
GEPOL Volume                                      ...    2110.6121
GEPOL Surface-area                                ...    1138.7670
Calculating surface distance matrix               ...        done! (  0.0s)
Performing Cholesky decomposition & store         ...        done! (  0.3s)
Overall time for CPCM initialization              ...                 0.3s
 re-compute Schwartz prescreening matrix in partically contracted basis (1) ...done (   0.267 sec)
--------------
SCF ITERATIONS
--------------
ITER       Energy         Delta-E        Max-DP      RMS-DP      [F,P]     Damp
               ***  Starting incremental Fock matrix formation  ***
  0   -954.5346242703   0.000000000000 0.22937207  0.00116741  0.2991559 0.7000
  1   -954.7323058434  -0.197681573183 0.17736008  0.00083813  0.1380385 0.7000
                               ***Turning on DIIS***
  2   -954.8279613881  -0.095655544668 0.36274976  0.00176400  0.0499498 0.0000
  3   -954.9916460298  -0.163684641668 0.07872047  0.00070705  0.0658684 0.0000
  4   -955.0123482084  -0.020702178592 0.02559845  0.00019864  0.0166160 0.0000
  5   -955.0135514684  -0.001203260004 0.01016559  0.00008970  0.0052795 0.0000
                      *** Initiating the SOSCF procedure ***
                           *** Shutting down DIIS ***
                      *** Re-Reading the Fockian *** 
                      *** Removing any level shift *** 
ITER      Energy       Delta-E        Grad      Rot      Max-DP    RMS-DP
  6   -955.01372164  -0.0001701738  0.001352  0.001352  0.005112  0.000042
               *** Restarting incremental Fock matrix formation ***
  7   -955.01377159  -0.0000499512  0.000828  0.002684  0.065669  0.000769
  8   -955.01380043  -0.0000288325  0.000414  0.003066  0.032614  0.000414
  9   -955.01380729  -0.0000068658  0.000132  0.000246  0.028884  0.000333
 10   -955.01381047  -0.0000031757  0.000051  0.000116  0.007263  0.000071
 11   -955.01381065  -0.0000001867  0.000024  0.000047  0.006427  0.000039
 12   -955.01381073  -0.0000000714  0.000010  0.000043  0.022113  0.000056
 13   -955.01381075  -0.0000000253  0.000009  0.000031  0.012957  0.000033
                  ***Gradient check signals convergence***
              ***Rediagonalizing the Fockian in SOSCF/NRSCF***

               *****************************************************
               *                     SUCCESS                       *
               *           SCF CONVERGED AFTER  14 CYCLES          *
               *****************************************************

Old exchange energy                            =    -39.382549458 Eh
New exchange energy                            =    -39.382599373 Eh
Exchange energy change after final integration =     -0.000049915 Eh
Total energy after final integration           =   -955.013860706 Eh
Final COS-X integration done in                =   241.195 sec

SMD CDS free energy correction energy :                -4.72739     Kcal/mol
Total Energy after SMD CDS correction =              -955.021394283 Eh

----------------
TOTAL SCF ENERGY
----------------

Total Energy       :         -955.02139428 Eh          -25987.45332 eV

Components:
Nuclear Repulsion  :         1439.51473095 Eh           39171.18725 eV
Electronic Energy  :        -2394.53612523 Eh          -65158.64057 eV
One Electron Energy:        -4160.13743906 Eh         -113203.09485 eV
Two Electron Energy:         1765.60131383 Eh           48044.45428 eV
Max COSX asymmetry :            0.00003608 Eh               0.00098 eV
CPCM Dielectric    :           -0.03795985 Eh              -1.03294 eV
SMD CDS (Gcds)     :           -0.00753358 Eh              -0.20500 eV

Virial components:
Potential Energy   :        -1904.85442009 Eh          -51833.72395 eV
Kinetic Energy     :          949.83302581 Eh           25846.27063 eV
Virial Ratio       :            2.00546240


DFT components:
N(Alpha)           :       71.000148529440 electrons
N(Beta)            :       71.000148529440 electrons
N(Total)           :      142.000297058880 electrons
E(XC)              :      -89.353537994581 Eh       
DFET-embed. en.    :        0.000000000000 Eh       
CPCM Solvation Model Properties:
Surface-charge          :           -0.03428427
Charge-correction       :            0.00024457 Eh               0.00666 eV
Free-energy (cav+disp)  :           -0.00753358 Eh              -0.20500 eV

---------------
SCF CONVERGENCE
---------------

  Last Energy change         ...   -4.0321e-08  Tolerance :   1.0000e-08
  Last MAX-Density change    ...    5.3291e-15  Tolerance :   1.0000e-07
  Last RMS-Density change    ...    1.7078e-17  Tolerance :   5.0000e-09
  Last Orbital Gradient      ...    1.0626e-06  Tolerance :   1.0000e-05
  Last Orbital Rotation      ...    6.5715e-06  Tolerance :   1.0000e-05

             **** THE GBW FILE WAS UPDATED (wb97x-d3-train-17.gbw) ****
             **** DENSITY wb97x-d3-train-17.scfp WAS UPDATED ****
             **** ENERGY FILE WAS UPDATED (wb97x-d3-train-17.en.tmp) ****
             **** THE GBW FILE WAS UPDATED (wb97x-d3-train-17.gbw) ****
             **** DENSITY wb97x-d3-train-17.scfp WAS UPDATED ****
----------------
ORBITAL ENERGIES
----------------

  NO   OCC          E(Eh)            E(eV) 
   0   2.0000     -19.313843      -525.5564 
   1   2.0000     -19.294214      -525.0223 
   2   2.0000     -19.267809      -524.3037 
   3   2.0000     -19.226193      -523.1713 
   4   2.0000     -19.216002      -522.8940 
   5   2.0000     -10.420453      -283.5549 
   6   2.0000     -10.389543      -282.7138 
   7   2.0000     -10.381495      -282.4948 
   8   2.0000     -10.376900      -282.3698 
   9   2.0000     -10.349066      -281.6124 
  10   2.0000     -10.304208      -280.3917 
  11   2.0000     -10.300507      -280.2911 
  12   2.0000     -10.292966      -280.0858 
  13   2.0000     -10.291649      -280.0500 
  14   2.0000     -10.285733      -279.8890 
  15   2.0000     -10.283541      -279.8294 
  16   2.0000     -10.282931      -279.8128 
  17   2.0000     -10.282006      -279.7876 
  18   2.0000     -10.281606      -279.7767 
  19   2.0000     -10.279748      -279.7262 
  20   2.0000      -1.253257       -34.1029 
  21   2.0000      -1.213858       -33.0308 
  22   2.0000      -1.183775       -32.2122 
  23   2.0000      -1.165643       -31.7187 
  24   2.0000      -1.155407       -31.4402 
  25   2.0000      -0.989003       -26.9121 
  26   2.0000      -0.957251       -26.0481 
  27   2.0000      -0.931877       -25.3577 
  28   2.0000      -0.919645       -25.0248 
  29   2.0000      -0.869820       -23.6690 
  30   2.0000      -0.863162       -23.4878 
  31   2.0000      -0.837576       -22.7916 
  32   2.0000      -0.781393       -21.2628 
  33   2.0000      -0.777340       -21.1525 
  34   2.0000      -0.758584       -20.6421 
  35   2.0000      -0.733349       -19.9554 
  36   2.0000      -0.697265       -18.9736 
  37   2.0000      -0.680279       -18.5113 
  38   2.0000      -0.667834       -18.1727 
  39   2.0000      -0.652301       -17.7500 
  40   2.0000      -0.637052       -17.3351 
  41   2.0000      -0.616774       -16.7833 
  42   2.0000      -0.604355       -16.4453 
  43   2.0000      -0.595317       -16.1994 
  44   2.0000      -0.576988       -15.7006 
  45   2.0000      -0.566764       -15.4224 
  46   2.0000      -0.559267       -15.2184 
  47   2.0000      -0.548168       -14.9164 
  48   2.0000      -0.538937       -14.6652 
  49   2.0000      -0.532803       -14.4983 
  50   2.0000      -0.530346       -14.4314 
  51   2.0000      -0.527249       -14.3472 
  52   2.0000      -0.522524       -14.2186 
  53   2.0000      -0.521577       -14.1928 
  54   2.0000      -0.508908       -13.8481 
  55   2.0000      -0.505724       -13.7614 
  56   2.0000      -0.496783       -13.5181 
  57   2.0000      -0.483375       -13.1533 
  58   2.0000      -0.473417       -12.8823 
  59   2.0000      -0.464513       -12.6400 
  60   2.0000      -0.464096       -12.6287 
  61   2.0000      -0.457719       -12.4552 
  62   2.0000      -0.448603       -12.2071 
  63   2.0000      -0.440376       -11.9832 
  64   2.0000      -0.401706       -10.9310 
  65   2.0000      -0.385615       -10.4931 
  66   2.0000      -0.382583       -10.4106 
  67   2.0000      -0.356885        -9.7113 
  68   2.0000      -0.329854        -8.9758 
  69   2.0000      -0.318984        -8.6800 
  70   2.0000      -0.309806        -8.4302 
  71   0.0000      -0.010245        -0.2788 
  72   0.0000       0.023503         0.6396 
  73   0.0000       0.042555         1.1580 
  74   0.0000       0.049898         1.3578 
  75   0.0000       0.054379         1.4797 
  76   0.0000       0.058336         1.5874 
  77   0.0000       0.061681         1.6784 
  78   0.0000       0.063658         1.7322 
  79   0.0000       0.066179         1.8008 
  80   0.0000       0.073085         1.9887 
  81   0.0000       0.073945         2.0122 
  82   0.0000       0.078720         2.1421 
  83   0.0000       0.080712         2.1963 
  84   0.0000       0.082453         2.2437 
  85   0.0000       0.086312         2.3487 
  86   0.0000       0.091251         2.4831 
  87   0.0000       0.093477         2.5436 
  88   0.0000       0.099659         2.7119 
  89   0.0000       0.101641         2.7658 
  90   0.0000       0.104764         2.8508 
  91   0.0000       0.107564         2.9270 
  92   0.0000       0.113084         3.0772 
  93   0.0000       0.117646         3.2013 
  94   0.0000       0.122764         3.3406 
  95   0.0000       0.123225         3.3531 
  96   0.0000       0.126436         3.4405 
  97   0.0000       0.130538         3.5521 
  98   0.0000       0.133710         3.6384 
  99   0.0000       0.137279         3.7355 
 100   0.0000       0.139818         3.8046 
 101   0.0000       0.142943         3.8897 
 102   0.0000       0.147074         4.0021 
 103   0.0000       0.151890         4.1331 
 104   0.0000       0.152927         4.1614 
 105   0.0000       0.159912         4.3514 
 106   0.0000       0.161565         4.3964 
 107   0.0000       0.165313         4.4984 
 108   0.0000       0.168186         4.5766 
 109   0.0000       0.173016         4.7080 
 110   0.0000       0.175492         4.7754 
 111   0.0000       0.177777         4.8376 
 112   0.0000       0.178729         4.8635 
 113   0.0000       0.180920         4.9231 
 114   0.0000       0.185196         5.0394 
 115   0.0000       0.187143         5.0924 
 116   0.0000       0.188381         5.1261 
 117   0.0000       0.190152         5.1743 
 118   0.0000       0.195146         5.3102 
 119   0.0000       0.196800         5.3552 
 120   0.0000       0.202464         5.5093 
 121   0.0000       0.205198         5.5837 
 122   0.0000       0.208190         5.6651 
 123   0.0000       0.208331         5.6690 
 124   0.0000       0.210572         5.7299 
 125   0.0000       0.214205         5.8288 
 126   0.0000       0.219307         5.9676 
 127   0.0000       0.221273         6.0212 
 128   0.0000       0.224528         6.1097 
 129   0.0000       0.229499         6.2450 
 130   0.0000       0.231103         6.2886 
 131   0.0000       0.232522         6.3272 
 132   0.0000       0.233237         6.3467 
 133   0.0000       0.236770         6.4428 
 134   0.0000       0.242723         6.6048 
 135   0.0000       0.247624         6.7382 
 136   0.0000       0.248183         6.7534 
 137   0.0000       0.250226         6.8090 
 138   0.0000       0.253648         6.9021 
 139   0.0000       0.256613         6.9828 
 140   0.0000       0.260587         7.0909 
 141   0.0000       0.263294         7.1646 
 142   0.0000       0.265910         7.2358 
 143   0.0000       0.268001         7.2927 
 144   0.0000       0.272537         7.4161 
 145   0.0000       0.274022         7.4565 
 146   0.0000       0.278250         7.5716 
 147   0.0000       0.282027         7.6744 
 148   0.0000       0.283806         7.7228 
 149   0.0000       0.285763         7.7760 
 150   0.0000       0.289081         7.8663 
 151   0.0000       0.292761         7.9664 
 152   0.0000       0.299534         8.1507 
 153   0.0000       0.300387         8.1740 
 154   0.0000       0.303952         8.2709 
 155   0.0000       0.309106         8.4112 
 156   0.0000       0.311560         8.4780 
 157   0.0000       0.313136         8.5209 
 158   0.0000       0.317667         8.6442 
 159   0.0000       0.319523         8.6947 
 160   0.0000       0.325864         8.8672 
 161   0.0000       0.327622         8.9151 
 162   0.0000       0.330420         8.9912 
 163   0.0000       0.331770         9.0279 
 164   0.0000       0.335229         9.1221 
 165   0.0000       0.335971         9.1422 
 166   0.0000       0.339648         9.2423 
 167   0.0000       0.342313         9.3148 
 168   0.0000       0.343797         9.3552 
[...]
   Maximum residual norm  :     0.000181802990

                       ****Iteration    8****
   Time for densities:            0.313
   Time for RI-J (Direct):       12.918
   Time for K (COSX):            60.259
   Time for XC-Integration:      21.711
   Time for LR-CPCM terms:       10.952
   Time for Sigma-Completion:     0.225
   Size of expansion space: 50
   Lowest Energy          :     0.145888562115
   Maximum Energy change  :     0.001368456862 (vector 9)
   Maximum residual norm  :     0.000507678102

                       ****Iteration    9****
   Time for densities:            0.313
   Time for RI-J (Direct):       12.953
   Time for K (COSX):            60.072
   Time for XC-Integration:      21.562
   Time for LR-CPCM terms:       10.975
   Time for Sigma-Completion:     0.219
   Size of expansion space: 60
   Lowest Energy          :     0.145888560571
   Maximum Energy change  :     0.001024258549 (vector 9)
   Maximum residual norm  :     0.000203844940

                       ****Iteration   10****
   Time for densities:            0.307
   Time for RI-J (Direct):       12.915
   Time for K (COSX):            60.347
   Time for XC-Integration:      21.805
   Time for LR-CPCM terms:       10.875
   Time for Sigma-Completion:     0.272
   Size of expansion space: 70
   Lowest Energy          :     0.145888560377
   Maximum Energy change  :     0.000271308971 (vector 9)
   Maximum residual norm  :     0.000045464863
   Rebuilding the expansion space

                       ****Iteration   11****
   Time for densities:            0.585
   Time for RI-J (Direct):       17.241
   Time for K (COSX):           100.251
   Time for XC-Integration:      41.546
   Time for LR-CPCM terms:       17.303
   Time for Sigma-Completion:     0.409
   Size of expansion space: 20
   Lowest Energy          :     0.145888545490
   Maximum Energy change  :     0.000086738388 (vector 7)
   Maximum residual norm  :     0.000026189656

                       ****Iteration   12****
   Time for densities:            0.296
   Time for RI-J (Direct):       12.963
   Time for K (COSX):            60.070
   Time for XC-Integration:      22.103
   Time for LR-CPCM terms:       11.028
   Time for Sigma-Completion:     0.235
   Size of expansion space: 30
   Lowest Energy          :     0.145888545488
   Maximum Energy change  :     0.000044437391 (vector 7)
   Maximum residual norm  :     0.000007254975

                       ****Iteration   13****
   Time for densities:            0.302
   Time for RI-J (Direct):       13.011
   Time for K (COSX):            60.000
   Time for XC-Integration:      22.068
   Time for LR-CPCM terms:       10.967
   Time for Sigma-Completion:     0.217
   Size of expansion space: 40
   Lowest Energy          :     0.145888545488
   Maximum Energy change  :     0.000017101217 (vector 7)
   Maximum residual norm  :     0.000004629926

                       ****Iteration   14****
   Time for densities:            0.310
   Time for RI-J (Direct):       13.004
   Time for K (COSX):            60.032
   Time for XC-Integration:      21.935
   Time for LR-CPCM terms:       10.960
   Time for Sigma-Completion:     0.251
   Size of expansion space: 50
   Lowest Energy          :     0.145888545488
   Maximum Energy change  :     0.000008136598 (vector 7)
   Maximum residual norm  :     0.000002370018

                       ****Iteration   15****
   Time for densities:            0.270
   Time for RI-J (Direct):       13.263
   Time for K (COSX):            56.030
   Time for XC-Integration:      19.860
   Time for LR-CPCM terms:       10.319
   Time for Sigma-Completion:     0.190
   Size of expansion space: 59
   Lowest Energy          :     0.145888545488
   Maximum Energy change  :     0.000005921060 (vector 7)
   Maximum residual norm  :     0.000001901687

                       ****Iteration   16****
   Time for densities:            0.272
   Time for RI-J (Direct):       13.259
   Time for K (COSX):            55.820
   Time for XC-Integration:      19.859
   Time for LR-CPCM terms:       10.302
   Time for Sigma-Completion:     0.196
   Size of expansion space: 68
   Lowest Energy          :     0.145888545488
   Maximum Energy change  :     0.000005656437 (vector 7)
   Maximum residual norm  :     0.000001890189
   Rebuilding the expansion space

                       ****Iteration   17****
   Time for densities:            0.574
   Time for RI-J (Direct):       18.118
   Time for K (COSX):            97.555
   Time for XC-Integration:      39.171
   Time for LR-CPCM terms:       16.789
   Time for Sigma-Completion:     0.416
   Size of expansion space: 19
   Lowest Energy          :     0.145888545481
   Maximum Energy change  :     0.000002630288 (vector 7)
   Maximum residual norm  :     0.000000858608

      *** CONVERGENCE OF RESIDUAL NORM REACHED ***

Storing the converged CI vectors               ... wb97x-d3-train-17_job2.cis1

                 *** DAVIDSON DONE ***

Total time for solving the CIS problem:  2264.463sec

------------------------------------
TD-DFT/TDA EXCITED STATES (SINGLETS)
------------------------------------

the weight of the individual excitations are printed if larger than 1.0e-02

STATE  1:  E=   0.145889 au      3.970 eV    32018.8 cm**-1 <S**2> =   0.000000
    67a ->  71a  :     0.533593 (c= -0.73047458)
    67a ->  77a  :     0.027792 (c= -0.16670926)
    67a ->  78a  :     0.013170 (c= -0.11476015)
    67a ->  84a  :     0.051433 (c=  0.22678780)
    67a ->  85a  :     0.014377 (c= -0.11990429)
    69a ->  71a  :     0.231640 (c= -0.48129028)
    69a ->  84a  :     0.016489 (c=  0.12840990)
    70a ->  71a  :     0.013321 (c= -0.11541476)

STATE  2:  E=   0.162683 au      4.427 eV    35704.8 cm**-1 <S**2> =   0.000000
    65a ->  71a  :     0.016097 (c=  0.12687439)
    67a ->  71a  :     0.064962 (c=  0.25487737)
    69a ->  71a  :     0.056678 (c= -0.23807146)
    69a ->  72a  :     0.039374 (c= -0.19842830)
    70a ->  71a  :     0.706353 (c= -0.84044787)
    70a ->  77a  :     0.012462 (c=  0.11163309)

STATE  3:  E=   0.168140 au      4.575 eV    36902.5 cm**-1 <S**2> =   0.000000
    65a ->  71a  :     0.037845 (c= -0.19453785)
    67a ->  71a  :     0.133119 (c= -0.36485466)
    68a ->  71a  :     0.040016 (c= -0.20004118)
    68a ->  84a  :     0.010212 (c= -0.10105465)
    69a ->  71a  :     0.500679 (c=  0.70758702)
    69a ->  84a  :     0.010664 (c= -0.10326770)
    70a ->  71a  :     0.116878 (c= -0.34187411)
    70a ->  77a  :     0.025196 (c=  0.15873193)
    70a ->  78a  :     0.015857 (c=  0.12592518)

STATE  4:  E=   0.176628 au      4.806 eV    38765.4 cm**-1 <S**2> =   0.000000
    67a ->  71a  :     0.018115 (c= -0.13459293)
    68a ->  71a  :     0.740584 (c=  0.86057199)
    69a ->  71a  :     0.033673 (c=  0.18350096)
    69a ->  72a  :     0.040067 (c= -0.20016764)
    70a ->  71a  :     0.010483 (c= -0.10238445)
    70a ->  77a  :     0.028261 (c= -0.16810864)
    70a ->  78a  :     0.022666 (c= -0.15055157)

STATE  5:  E=   0.184780 au      5.028 eV    40554.6 cm**-1 <S**2> =   0.000000
    68a ->  71a  :     0.049378 (c=  0.22221088)
    69a ->  72a  :     0.786318 (c=  0.88674575)
    70a ->  71a  :     0.021970 (c= -0.14822444)
    70a ->  72a  :     0.030481 (c=  0.17458698)

STATE  6:  E=   0.216044 au      5.879 eV    47416.2 cm**-1 <S**2> =   0.000000
    65a ->  72a  :     0.122456 (c=  0.34993654)
    65a ->  81a  :     0.019322 (c= -0.13900302)
    66a ->  72a  :     0.324964 (c=  0.57005601)
    66a ->  79a  :     0.013231 (c= -0.11502809)
    66a ->  80a  :     0.019394 (c= -0.13926260)
    66a ->  81a  :     0.051383 (c= -0.22667840)
    66a ->  85a  :     0.010059 (c=  0.10029315)
    67a ->  72a  :     0.249488 (c= -0.49948768)
    68a ->  72a  :     0.010798 (c=  0.10391364)
    70a ->  72a  :     0.016080 (c= -0.12680692)

STATE  7:  E=   0.225622 au      6.139 eV    49518.4 cm**-1 <S**2> =   0.000000
    64a ->  71a  :     0.056445 (c=  0.23758209)
    66a ->  71a  :     0.015189 (c= -0.12324167)
    68a ->  71a  :     0.086172 (c= -0.29355049)
    68a ->  77a  :     0.014670 (c= -0.12111792)
    68a ->  84a  :     0.013273 (c=  0.11520727)
    70a ->  71a  :     0.040163 (c= -0.20040801)
    70a ->  77a  :     0.267661 (c= -0.51735993)
    70a ->  78a  :     0.244975 (c= -0.49494935)
    70a ->  80a  :     0.027809 (c=  0.16675999)
    70a ->  82a  :     0.039952 (c= -0.19987934)
    70a ->  84a  :     0.029815 (c= -0.17267055)
    70a ->  89a  :     0.011728 (c= -0.10829366)

STATE  8:  E=   0.229034 au      6.232 eV    50267.1 cm**-1 <S**2> =   0.000000
    65a ->  81a  :     0.010236 (c= -0.10117427)
    66a ->  72a  :     0.137847 (c=  0.37127778)
    66a ->  81a  :     0.016889 (c= -0.12995725)
    67a ->  72a  :     0.482094 (c=  0.69433008)
    68a ->  77a  :     0.024803 (c= -0.15748972)
    68a ->  78a  :     0.012206 (c= -0.11047854)
    69a ->  72a  :     0.014763 (c=  0.12150443)
    69a ->  73a  :     0.011433 (c= -0.10692707)
    69a ->  81a  :     0.036883 (c=  0.19205019)
    69a ->  85a  :     0.010591 (c= -0.10291175)
    70a ->  74a  :     0.012674 (c= -0.11257970)
    70a ->  78a  :     0.012426 (c=  0.11147167)

STATE  9:  E=   0.229379 au      6.242 eV    50342.9 cm**-1 <S**2> =   0.000000
    67a ->  72a  :     0.011356 (c=  0.10656292)
    68a ->  73a  :     0.011810 (c= -0.10867179)
    68a ->  74a  :     0.056314 (c=  0.23730549)
    69a ->  74a  :     0.020247 (c= -0.14229365)
    70a ->  73a  :     0.187229 (c= -0.43270007)
    70a ->  74a  :     0.453247 (c=  0.67323648)
    70a ->  75a  :     0.017768 (c=  0.13329607)
    70a ->  77a  :     0.014490 (c=  0.12037506)
    70a ->  80a  :     0.015469 (c= -0.12437593)
    70a ->  86a  :     0.014640 (c=  0.12099676)
    70a ->  87a  :     0.015982 (c= -0.12641863)
    70a -> 107a  :     0.019205 (c= -0.13858257)

STATE 10:  E=   0.230992 au      6.286 eV    50697.0 cm**-1 <S**2> =   0.000000
    64a ->  71a  :     0.030105 (c=  0.17350764)
    64a ->  72a  :     0.016933 (c=  0.13012869)
    65a ->  71a  :     0.010444 (c= -0.10219700)
    66a ->  71a  :     0.039764 (c= -0.19940804)
    67a ->  72a  :     0.062372 (c= -0.24974322)
    68a ->  72a  :     0.081336 (c= -0.28519410)
    68a ->  77a  :     0.141662 (c= -0.37638061)
    68a ->  78a  :     0.100740 (c= -0.31739559)
    70a ->  71a  :     0.022929 (c=  0.15142288)
    70a ->  72a  :     0.208964 (c=  0.45712552)
    70a ->  77a  :     0.029305 (c=  0.17118564)
    70a ->  78a  :     0.011404 (c=  0.10678857)
    70a ->  82a  :     0.010532 (c= -0.10262378)
    70a ->  84a  :     0.061962 (c= -0.24892080)
    70a ->  85a  :     0.015758 (c=  0.12552917)


-----------------------------
TD-DFT/TDA-EXCITATION SPECTRA
-----------------------------

Center of mass = (  0.0372, -0.6914,  0.3065)
Calculating the Dipole integrals                  ... done
Transforming integrals                            ... done
Calculating the Linear Momentum integrals         ... done
Transforming integrals                            ... done
Calculating angular momentum integrals            ... done
Transforming integrals                            ... done

-----------------------------------------------------------------------------
         ABSORPTION SPECTRUM VIA TRANSITION ELECTRIC DIPOLE MOMENTS
-----------------------------------------------------------------------------
State   Energy    Wavelength  fosc         T2        TX        TY        TZ  
        (cm-1)      (nm)                 (au**2)    (au)      (au)      (au) 
-----------------------------------------------------------------------------
   1   32018.8    312.3   0.005398152   0.05550  -0.23029  -0.02200  -0.04458
   2   35704.8    280.1   0.603387184   5.56345  -2.11684   1.00945   0.25190
   3   36902.5    271.0   0.094239582   0.84072  -0.27072   0.84281   0.23897
   4   38765.4    258.0   0.431401627   3.66364  -1.86994   0.38508   0.13674
   5   40554.6    246.6   0.251869636   2.04461   0.49446   1.34150  -0.02212
   6   47416.2    210.9   0.000608887   0.00423   0.05098   0.03975  -0.00695
   7   49518.4    201.9   0.220554002   1.46630   1.08825   0.47812   0.23109
   8   50267.1    198.9   0.017453121   0.11430   0.06601  -0.33124   0.01497
   9   50342.9    198.6   0.001637507   0.01071  -0.02844  -0.08309   0.05473
  10   50697.0    197.3   0.160246133   1.04059   0.56721  -0.84208  -0.09881

-----------------------------------------------------------------------------
         ABSORPTION SPECTRUM VIA TRANSITION VELOCITY DIPOLE MOMENTS
-----------------------------------------------------------------------------
State   Energy    Wavelength   fosc        P2         PX        PY        PZ  
        (cm-1)      (nm)                 (au**2)     (au)      (au)      (au) 
-----------------------------------------------------------------------------
   1   32018.8    312.3   0.004601396   0.00101   0.03132   0.00199  -0.00471
   2   35704.8    280.1   0.302018667   0.07370   0.26943  -0.03069   0.01281
   3   36902.5    271.0   0.006650395   0.00168   0.02878  -0.02432  -0.01605
   4   38765.4    258.0   0.269554787   0.07142   0.26482  -0.03588  -0.00105
   5   40554.6    246.6   0.040482748   0.01122  -0.03651  -0.09823  -0.01546
   6   47416.2    210.9   0.003191735   0.00103  -0.02503   0.01984   0.00377
   7   49518.4    201.9   0.059156783   0.02002  -0.13489  -0.03670  -0.02184
   8   50267.1    198.9   0.016277074   0.00559  -0.06231   0.03513  -0.02180
   9   50342.9    198.6   0.000223118   0.00008  -0.00667   0.00546   0.00155
  10   50697.0    197.3   0.051417224   0.01782  -0.12133   0.05534   0.00566

-------------------------------------------------------------------
                             CD SPECTRUM
-------------------------------------------------------------------
State  Energy     Wavelength     R         MX        MY        MZ   
       (cm-1)       (nm)     (1e40*cgs)   (au)      (au)      (au)  
-------------------------------------------------------------------
   1   32018.8    312.3     -6.86969   0.11901  -0.27178  -0.15378
   2   35704.8    280.1    159.04814  -0.05274   0.25360  -0.12025
   3   36902.5    271.0    -85.84485   0.04068  -0.21584   0.04534
   4   38765.4    258.0     44.50121  -0.04544   0.11907  -0.26638
   5   40554.6    246.6    -123.87567   0.34424  -0.31924   0.21312
   6   47416.2    210.9      9.15500   0.21264   0.17100  -0.25616
   7   49518.4    201.9    -16.12767   0.01219   0.13463  -0.48397
   8   50267.1    198.9      9.03809  -0.03390  -0.06181   0.06238
   9   50342.9    198.6      1.56401  -0.06559  -0.01119   0.00954
  10   50697.0    197.3     40.18529  -0.00737  -0.14876   0.36280

-------------------------------------------------------------------
         CD SPECTRUM VIA TRANSITION VELOCITY DIPOLE MOMENTS        
-------------------------------------------------------------------
State  Energy     Wavelength     R         MX        MY        MZ   
       (cm-1)       (nm)     (1e40*cgs)   (au)      (au)      (au)  
-------------------------------------------------------------------
   1   32018.8    312.3     12.63790   0.11901  -0.27178  -0.15378
   2   35704.8    280.1    -68.19953  -0.05274   0.25360  -0.12025
   3   36902.5    271.0     15.96156   0.04068  -0.21584   0.04534
   4   38765.4    258.0    -42.77430  -0.04544   0.11907  -0.26638
   5   40554.6    246.6     39.53516   0.34424  -0.31924   0.21312
   6   47416.2    210.9     -6.31564   0.21264   0.17100  -0.25616
   7   49518.4    201.9      8.32958   0.01219   0.13463  -0.48397
   8   50267.1    198.9     -2.92107  -0.03390  -0.06181   0.06238
   9   50342.9    198.6      0.80445  -0.06559  -0.01119   0.00954
  10   50697.0    197.3    -10.79065  -0.00737  -0.14876   0.36280

Total run time:     2272.494 sec

           *** ORCA-CIS/TD-DFT FINISHED WITHOUT ERROR ***

Maximum memory used throughout the entire CIS-calculation: 1765.1 MB

-----------------------
CIS/TD-DFT TOTAL ENERGY
-----------------------

    E(SCF)  =   -955.024168614 Eh
    DE(CIS) =      0.145888545 Eh (Root  1)
    ----------------------------- ---------
    E(tot)  =   -954.878280068 Eh



-------------------------------------------------------------------------------
                          DFT DISPERSION CORRECTION                            
                                                                               
                              DFTD3 V3.1  Rev 1                                
                              USING zero damping                               
-------------------------------------------------------------------------------
The omegaB97X-D3 functional is recognized. Fit by Chai et al.
Active option DFTDOPT                   ...         3   

molecular C6(AA) [au] = 12544.829992 


            DFT-D V3
 parameters
 s6 scaling factor         :     1.0000 
 rs6 scaling factor        :     1.2810 
 s8 scaling factor         :     1.0000 
 rs8 scaling factor        :     1.0940 
 Damping factor alpha6     :    14.0000 
 Damping factor alpha8     :    16.0000 
 ad hoc parameters k1-k3   :    16.0000     1.3333    -4.0000 

 Edisp/kcal,au: -8.119133032335  -0.012938660693 
 E6   /kcal   :  -3.734610905 
 E8   /kcal   :  -4.384522127 
 % E8         :  54.002343721 

-------------------------   ----------------
Dispersion correction           -0.012938661
-------------------------   ----------------


-------------------------   --------------------
FINAL SINGLE POINT ENERGY      -954.891218728935
-------------------------   --------------------


                            ***************************************
                            *     ORCA property calculations      *
                            ***************************************

                                    ---------------------
                                    Active property flags
                                    ---------------------
   (+) Dipole Moment


------------------------------------------------------------------------------
                       ORCA ELECTRIC PROPERTIES CALCULATION
------------------------------------------------------------------------------

Dipole Moment Calculation                       ... on
Quadrupole Moment Calculation                   ... off
Polarizability Calculation                      ... off
GBWName                                         ... wb97x-d3-train-17_job2.gbw
Electron density                                ... wb97x-d3-train-17_job2.scfp
The origin for moment calculation is the CENTER OF MASS  = ( 0.037234, -0.691376  0.306530)

-------------
DIPOLE MOMENT
-------------
                                X             Y             Z
Electronic contribution:      1.03887      -7.23442      -1.34486
Nuclear contribution   :      0.29046      10.47022      -0.18949
                        -----------------------------------------
Total Dipole Moment    :      1.32933       3.23580      -1.53435
                        -----------------------------------------
Magnitude (a.u.)       :      3.81991
Magnitude (Debye)      :      9.70944



--------------------
Rotational spectrum 
--------------------
 
Rotational constants in cm-1:     0.022016     0.005299     0.004899 
Rotational constants in MHz :   660.031842   158.860903   146.870948 

 Dipole components along the rotational axes: 
x,y,z [a.u.] :     1.238492    -1.977883    -3.024209 
x,y,z [Debye]:     3.147996    -5.027380    -7.686927 

 

Timings for individual modules:

Sum of individual times         ...     2799.787 sec (=  46.663 min)
GTO integral calculation        ...        5.889 sec (=   0.098 min)   0.2 %
SCF iterations                  ...      520.387 sec (=   8.673 min)  18.6 %
CIS module                      ...     2273.511 sec (=  37.892 min)  81.2 %



                             ****ORCA TERMINATED NORMALLY****
TOTAL RUN TIME: 0 days 9 hours 40 minutes 13 seconds 305 msec
