
                                 *****************
                                 * O   R   C   A *
                                 *****************

                                            #,                                       
                                            ###                                      
                                            ####                                     
                                            #####                                    
                                            ######                                   
                                           ########,                                 
                                     ,,################,,,,,                         
                               ,,#################################,,                 
                          ,,##########################################,,             
                       ,#########################################, ''#####,          
                    ,#############################################,,   '####,        
                  ,##################################################,,,,####,       
                ,###########''''           ''''###############################       
              ,#####''   ,,,,##########,,,,          '''####'''          '####       
            ,##' ,,,,###########################,,,                        '##       
           ' ,,###''''                  '''############,,,                           
         ,,##''                                '''############,,,,        ,,,,,,###''
      ,#''                                            '''#######################'''  
     '                                                          ''''####''''         
             ,#######,   #######,   ,#######,      ##                                
            ,#'     '#,  ##    ##  ,#'     '#,    #''#        ######   ,####,        
            ##       ##  ##   ,#'  ##            #'  '#       #        #'  '#        
            ##       ##  #######   ##           ,######,      #####,   #    #        
            '#,     ,#'  ##    ##  '#,     ,#' ,#      #,         ##   #,  ,#        
             '#######'   ##     ##  '#######'  #'      '#     #####' # '####'        



                  #######################################################
                  #                        -***-                        #
                  #          Department of theory and spectroscopy      #
                  #    Directorship and core code : Frank Neese         #
                  #        Max Planck Institute fuer Kohlenforschung    #
                  #                Kaiser Wilhelm Platz 1               #
                  #                 D-45470 Muelheim/Ruhr               #
                  #                      Germany                        #
                  #                                                     #
                  #                  All rights reserved                #
                  #                        -***-                        #
                  #######################################################


                         Program Version 5.0.2 -  RELEASE  -


 With contributions from (in alphabetic order):
   Daniel Aravena         : Magnetic Suceptibility
   Michael Atanasov       : Ab Initio Ligand Field Theory (pilot matlab implementation)
   Alexander A. Auer      : GIAO ZORA, VPT2 properties, NMR spectrum
   Ute Becker             : Parallelization
   Giovanni Bistoni       : ED, misc. LED, open-shell LED, HFLD
   Martin Brehm           : Molecular dynamics
   Dmytro Bykov           : SCF Hessian
   Vijay G. Chilkuri      : MRCI spin determinant printing, contributions to CSF-ICE
   Dipayan Datta          : RHF DLPNO-CCSD density
   Achintya Kumar Dutta   : EOM-CC, STEOM-CC
   Dmitry Ganyushin       : Spin-Orbit,Spin-Spin,Magnetic field MRCI
   Miquel Garcia          : C-PCM and meta-GGA Hessian, CC/C-PCM, Gaussian charge scheme
   Yang Guo               : DLPNO-NEVPT2, F12-NEVPT2, CIM, IAO-localization
   Andreas Hansen         : Spin unrestricted coupled pair/coupled cluster methods
   Benjamin Helmich-Paris : MC-RPA, TRAH-SCF, COSX integrals
   Lee Huntington         : MR-EOM, pCC
   Robert Izsak           : Overlap fitted RIJCOSX, COSX-SCS-MP3, EOM
   Marcus Kettner         : VPT2
   Christian Kollmar      : KDIIS, OOCD, Brueckner-CCSD(T), CCSD density, CASPT2, CASPT2-K
   Simone Kossmann        : Meta GGA functionals, TD-DFT gradient, OOMP2, MP2 Hessian
   Martin Krupicka        : Initial AUTO-CI
   Lucas Lang             : DCDCAS
   Marvin Lechner         : AUTO-CI (C++ implementation), FIC-MRCC
   Dagmar Lenk            : GEPOL surface, SMD
   Dimitrios Liakos       : Extrapolation schemes; Compound Job, initial MDCI parallelization
   Dimitrios Manganas     : Further ROCIS development; embedding schemes
   Dimitrios Pantazis     : SARC Basis sets
   Anastasios Papadopoulos: AUTO-CI, single reference methods and gradients
   Taras Petrenko         : DFT Hessian,TD-DFT gradient, ASA, ECA, R-Raman, ABS, FL, XAS/XES, NRVS
   Peter Pinski           : DLPNO-MP2, DLPNO-MP2 Gradient
   Christoph Reimann      : Effective Core Potentials
   Marius Retegan         : Local ZFS, SOC
   Christoph Riplinger    : Optimizer, TS searches, QM/MM, DLPNO-CCSD(T), (RO)-DLPNO pert. Triples
   Tobias Risthaus        : Range-separated hybrids, TD-DFT gradient, RPA, STAB
   Michael Roemelt        : Original ROCIS implementation
   Masaaki Saitow         : Open-shell DLPNO-CCSD energy and density
   Barbara Sandhoefer     : DKH picture change effects
   Avijit Sen             : IP-ROCIS
   Kantharuban Sivalingam : CASSCF convergence, NEVPT2, FIC-MRCI
   Bernardo de Souza      : ESD, SOC TD-DFT
   Georgi Stoychev        : AutoAux, RI-MP2 NMR, DLPNO-MP2 response
   Willem Van den Heuvel  : Paramagnetic NMR
   Boris Wezisla          : Elementary symmetry handling
   Frank Wennmohs         : Technical directorship


 We gratefully acknowledge several colleagues who have allowed us to
 interface, adapt or use parts of their codes:
   Stefan Grimme, W. Hujo, H. Kruse, P. Pracht,  : VdW corrections, initial TS optimization,
                  C. Bannwarth, S. Ehlert          DFT functionals, gCP, sTDA/sTD-DF
   Ed Valeev, F. Pavosevic, A. Kumar             : LibInt (2-el integral package), F12 methods
   Garnet Chan, S. Sharma, J. Yang, R. Olivares  : DMRG
   Ulf Ekstrom                                   : XCFun DFT Library
   Mihaly Kallay                                 : mrcc  (arbitrary order and MRCC methods)
   Jiri Pittner, Ondrej Demel                    : Mk-CCSD
   Frank Weinhold                                : gennbo (NPA and NBO analysis)
   Christopher J. Cramer and Donald G. Truhlar   : smd solvation model
   Lars Goerigk                                  : TD-DFT with DH, B97 family of functionals
   V. Asgeirsson, H. Jonsson                     : NEB implementation
   FAccTs GmbH                                   : IRC, NEB, NEB-TS, DLPNO-Multilevel, CI-OPT
                                                   MM, QMMM, 2- and 3-layer-ONIOM, Crystal-QMMM,
                                                   LR-CPCM, SF, NACMEs, symmetry and pop. for TD-DFT,
                                                   nearIR, NL-DFT gradient (VV10), updates on ESD,
                                                   ML-optimized integration grids
   S Lehtola, MJT Oliveira, MAL Marques          : LibXC Library
   Liviu Ungur et al                             : ANISO software


 Your calculation uses the libint2 library for the computation of 2-el integrals
 For citations please refer to: http://libint.valeyev.net

 Your ORCA version has been built with support for libXC version: 5.1.0
 For citations please refer to: https://tddft.org/programs/libxc/

 This ORCA versions uses:
   CBLAS   interface :  Fast vector & matrix operations
   LAPACKE interface :  Fast linear algebra routines
   SCALAPACK package :  Parallel linear algebra routines
   Shared memory     :  Shared parallel matrices
   BLAS/LAPACK       :  OpenBLAS 0.3.15  USE64BITINT DYNAMIC_ARCH NO_AFFINITY Haswell SINGLE_THREADED
        Core in use  :  Haswell
   Copyright (c) 2011-2014, The OpenBLAS Project


Your calculation utilizes the SMD solvation module
Please cite in your paper:
A.V. Marenich, C.J. Cramer, D.G. Truhlar J. Phys. Chem. B, 113, (2009), 6378 

================================================================================

----- Orbital basis set information -----
Your calculation utilizes the basis: aug-cc-pVTZ 
    H, B-Ne : Obtained from the ccRepo (grant-hill.group.shef.ac.uk/ccrepo) Feb. 2017
              R. A. Kendall, T. H. Dunning, Jr., R. J. Harrison, J. Chem. Phys. 96, 6796 (1992)
         He : Obtained from the ccRepo (grant-hill.group.shef.ac.uk/ccrepo) Feb. 2017
              D. E. Woon, T. H. Dunning, Jr., J. Chem. Phys. 100, 2975 (1994)
  Li-Be, Na : Obtained from the ccRepo (grant-hill.group.shef.ac.uk/ccrepo) Feb. 2017
              B. P. Prascher, D. E. Woon, K. A. Peterson, T. H. Dunning, Jr., A. K. Wilson, Theor. Chem. Acc. 128, 69 (2011)
         Mg : Obtained from the Peterson Research Group Website (tyr0.chem.wsu.edu/~kipeters) Feb. 2017
              B. P. Prascher, D. E. Woon, K. A. Peterson, T. H. Dunning, Jr., A. K. Wilson, Theor. Chem. Acc. 128, 69 (2011)
      Al-Ar : Obtained from the ccRepo (grant-hill.group.shef.ac.uk/ccrepo) Feb. 2017
              D. E. Woon, T. H. Dunning, Jr., J. Chem. Phys. 98, 1358 (1993)
      Sc-Zn : Obtained from the ccRepo (grant-hill.group.shef.ac.uk/ccrepo) Feb. 2017
              N. B. Balabanov, K. A. Peterson, J. Chem. Phys. 123, 064107 (2005)
              N. B. Balabanov, K. A. Peterson, J. Chem. Phys. 125, 074110 (2006)
      Ga-Kr : Obtained from the ccRepo (grant-hill.group.shef.ac.uk/ccrepo) Feb. 2017
              A. K. Wilson, D. E. Woon, K. A. Peterson, T. H. Dunning, Jr., J. Chem. Phys. 110, 7667 (1999)
     Ag, Au : Obtained from the Peterson Research Group Website (tyr0.chem.wsu.edu/~kipeters) Feb. 2017
              K. A. Peterson, C. Puzzarini, Theor. Chem. Acc. 114, 283 (2005)

The basis set includes element-specific modifications.

Your calculation utilizes the basis: cc-pVTZ 
       H, B-Ne : Obtained from the ccRepo (grant-hill.group.shef.ac.uk/ccrepo) Feb. 2017
                 T. H. Dunning, Jr., J. Chem. Phys. 90, 1007 (1989)
            He : Obtained from the ccRepo (grant-hill.group.shef.ac.uk/ccrepo) Feb. 2017
                 D. E. Woon, T. H. Dunning, Jr., J. Chem. Phys. 100, 2975 (1994)
  Li-Be, Na-Mg : Obtained from the ccRepo (grant-hill.group.shef.ac.uk/ccrepo) Feb. 2017
                 B. P. Prascher, D. E. Woon, K. A. Peterson, T. H. Dunning, Jr., A. K. Wilson, Theor. Chem. Acc. 128, 69 (2011)
         Al-Ar : Obtained from the ccRepo (grant-hill.group.shef.ac.uk/ccrepo) Feb. 2017
                 D. E. Woon, T. H. Dunning, Jr., J. Chem. Phys. 98, 1358 (1993)
            Ca : Obtained from the Peterson Research Group Website (tyr0.chem.wsu.edu/~kipeters) Feb. 2017
                 J. Koput, K. A. Peterson, J. Phys. Chem. 106, 9595 (2002)
         Sc-Zn : Obtained from the ccRepo (grant-hill.group.shef.ac.uk/ccrepo) Feb. 2017
                 N. B. Balabanov, K. A. Peterson, J. Chem. Phys. 123, 064107 (2005)
                 N. B. Balabanov, K. A. Peterson, J. Chem. Phys. 125, 074110 (2006)
         Ga-Kr : Obtained from the ccRepo (grant-hill.group.shef.ac.uk/ccrepo) Feb. 2017
                 A. K. Wilson, D. E. Woon, K. A. Peterson, T. H. Dunning, Jr., J. Chem. Phys. 110, 7667 (1999)
             Y : Obtained from the ccRepo (grant-hill.group.shef.ac.uk/ccrepo) Feb. 2017
                 K. A. Peterson, D. Figgen, M. Dolg, H. Stoll, J. Chem. Phys. 126, 124101 (2007)
        Ag, Au : Obtained from the Peterson Research Group Website (tyr0.chem.wsu.edu/~kipeters) Feb. 2017
                 K. A. Peterson, C. Puzzarini, Theor. Chem. Acc. 114, 283 (2005)

----- AuxJ basis set information -----
Your calculation utilizes the auxiliary basis: aug-cc-pVTZ/JK 
  H, B-F, Al-Cl, Ga-Br : Obtained from the TURBOMOLE 7.0 basis set library

The basis set includes element-specific modifications.

Your calculation utilizes the auxiliary basis: cc-pVTZ/JK 
  H, B-F, Al-Cl, Ga-Br : Obtained from the TURBOMOLE 7.0 basis set library

----- AuxC basis set information -----
Your calculation utilizes the auxiliary basis: aug-cc-pVTZ/C 
  H-He, B-F, Al-Ar, Ga-Kr : Obtained from the EMSL Basis Set Exchange (bse.pnl.gov) Feb. 2017
                            F. Weigend, A. Kohn, C. Hattig, J. Chem. Phys. 116, 3175 (2002)
                   Be, Mg : Obtained from the TURBOMOLE 7.0 basis set library
                            C. Haettig, Phys. Chem. Chem. Phys. 7, 59 (2005)
                       Ne : Obtained from the EMSL Basis Set Exchange (bse.pnl.gov) Feb. 2017
                            C. Haettig, Phys. Chem. Chem. Phys. 7, 59 (2005)
                            F. Weigend, A. Kohn, C. Hattig, J. Chem. Phys. 116, 3175 (2002)
                    Sc-Zn : Obtained from the EMSL Basis Set Exchange (bse.pnl.gov) Feb. 2017
                            J. G. Hill, J. A. Platts, J. Chem. Phys. 128, 044104 (2008)

The basis set includes element-specific modifications.

Your calculation utilizes the auxiliary basis: cc-pVTZ/C 
  Obtained from the EMSL Basis Set Exchange (bse.pnl.gov) Feb. 2017
  H-He, B-F, Al-Ar, Ga-Kr : F. Weigend, A. Kohn, C. Hattig, J. Chem. Phys. 116, 3175 (2002)
             Li-Be, Na-Mg : C. Haettig, Phys. Chem. Chem. Phys. 7, 59 (2005)
                       Ne : C. Haettig, Phys. Chem. Chem. Phys. 7, 59 (2005)
                            F. Weigend, A. Kohn, C. Hattig, J. Chem. Phys. 116, 3175 (2002)
                    Sc-Zn : J. G. Hill, J. A. Platts, J. Chem. Phys. 128, 044104 (2008)

================================================================================
                                        WARNINGS
                       Please study these warnings very carefully!
================================================================================


WARNING: Geometry Optimization
  ===> : Switching off AutoStart
         For restart on a previous wavefunction, please use MOREAD

INFO   : the flag for use of the SHARK integral package has been found!



***************************************
The coordinates will be read from file: 
***************************************


Your calculation utilizes the SMD solvation module
Please cite in your paper:
A.V. Marenich, C.J. Cramer, D.G. Truhlar J. Phys. Chem. B, 113, (2009), 6378 

================================================================================

----- Orbital basis set information -----
Your calculation utilizes the basis: aug-cc-pVTZ 
    H, B-Ne : Obtained from the ccRepo (grant-hill.group.shef.ac.uk/ccrepo) Feb. 2017
              R. A. Kendall, T. H. Dunning, Jr., R. J. Harrison, J. Chem. Phys. 96, 6796 (1992)
         He : Obtained from the ccRepo (grant-hill.group.shef.ac.uk/ccrepo) Feb. 2017
              D. E. Woon, T. H. Dunning, Jr., J. Chem. Phys. 100, 2975 (1994)
  Li-Be, Na : Obtained from the ccRepo (grant-hill.group.shef.ac.uk/ccrepo) Feb. 2017
              B. P. Prascher, D. E. Woon, K. A. Peterson, T. H. Dunning, Jr., A. K. Wilson, Theor. Chem. Acc. 128, 69 (2011)
         Mg : Obtained from the Peterson Research Group Website (tyr0.chem.wsu.edu/~kipeters) Feb. 2017
              B. P. Prascher, D. E. Woon, K. A. Peterson, T. H. Dunning, Jr., A. K. Wilson, Theor. Chem. Acc. 128, 69 (2011)
      Al-Ar : Obtained from the ccRepo (grant-hill.group.shef.ac.uk/ccrepo) Feb. 2017
              D. E. Woon, T. H. Dunning, Jr., J. Chem. Phys. 98, 1358 (1993)
      Sc-Zn : Obtained from the ccRepo (grant-hill.group.shef.ac.uk/ccrepo) Feb. 2017
              N. B. Balabanov, K. A. Peterson, J. Chem. Phys. 123, 064107 (2005)
              N. B. Balabanov, K. A. Peterson, J. Chem. Phys. 125, 074110 (2006)
      Ga-Kr : Obtained from the ccRepo (grant-hill.group.shef.ac.uk/ccrepo) Feb. 2017
              A. K. Wilson, D. E. Woon, K. A. Peterson, T. H. Dunning, Jr., J. Chem. Phys. 110, 7667 (1999)
     Ag, Au : Obtained from the Peterson Research Group Website (tyr0.chem.wsu.edu/~kipeters) Feb. 2017
              K. A. Peterson, C. Puzzarini, Theor. Chem. Acc. 114, 283 (2005)

The basis set includes element-specific modifications.

Your calculation utilizes the basis: cc-pVTZ 
       H, B-Ne : Obtained from the ccRepo (grant-hill.group.shef.ac.uk/ccrepo) Feb. 2017
                 T. H. Dunning, Jr., J. Chem. Phys. 90, 1007 (1989)
            He : Obtained from the ccRepo (grant-hill.group.shef.ac.uk/ccrepo) Feb. 2017
                 D. E. Woon, T. H. Dunning, Jr., J. Chem. Phys. 100, 2975 (1994)
  Li-Be, Na-Mg : Obtained from the ccRepo (grant-hill.group.shef.ac.uk/ccrepo) Feb. 2017
                 B. P. Prascher, D. E. Woon, K. A. Peterson, T. H. Dunning, Jr., A. K. Wilson, Theor. Chem. Acc. 128, 69 (2011)
         Al-Ar : Obtained from the ccRepo (grant-hill.group.shef.ac.uk/ccrepo) Feb. 2017
                 D. E. Woon, T. H. Dunning, Jr., J. Chem. Phys. 98, 1358 (1993)
            Ca : Obtained from the Peterson Research Group Website (tyr0.chem.wsu.edu/~kipeters) Feb. 2017
                 J. Koput, K. A. Peterson, J. Phys. Chem. 106, 9595 (2002)
         Sc-Zn : Obtained from the ccRepo (grant-hill.group.shef.ac.uk/ccrepo) Feb. 2017
                 N. B. Balabanov, K. A. Peterson, J. Chem. Phys. 123, 064107 (2005)
                 N. B. Balabanov, K. A. Peterson, J. Chem. Phys. 125, 074110 (2006)
         Ga-Kr : Obtained from the ccRepo (grant-hill.group.shef.ac.uk/ccrepo) Feb. 2017
                 A. K. Wilson, D. E. Woon, K. A. Peterson, T. H. Dunning, Jr., J. Chem. Phys. 110, 7667 (1999)
             Y : Obtained from the ccRepo (grant-hill.group.shef.ac.uk/ccrepo) Feb. 2017
                 K. A. Peterson, D. Figgen, M. Dolg, H. Stoll, J. Chem. Phys. 126, 124101 (2007)
        Ag, Au : Obtained from the Peterson Research Group Website (tyr0.chem.wsu.edu/~kipeters) Feb. 2017
                 K. A. Peterson, C. Puzzarini, Theor. Chem. Acc. 114, 283 (2005)

----- AuxJ basis set information -----
Your calculation utilizes the auxiliary basis: aug-cc-pVTZ/JK 
  H, B-F, Al-Cl, Ga-Br : Obtained from the TURBOMOLE 7.0 basis set library

The basis set includes element-specific modifications.

Your calculation utilizes the auxiliary basis: cc-pVTZ/JK 
  H, B-F, Al-Cl, Ga-Br : Obtained from the TURBOMOLE 7.0 basis set library

----- AuxC basis set information -----
Your calculation utilizes the auxiliary basis: aug-cc-pVTZ/C 
  H-He, B-F, Al-Ar, Ga-Kr : Obtained from the EMSL Basis Set Exchange (bse.pnl.gov) Feb. 2017
                            F. Weigend, A. Kohn, C. Hattig, J. Chem. Phys. 116, 3175 (2002)
                   Be, Mg : Obtained from the TURBOMOLE 7.0 basis set library
                            C. Haettig, Phys. Chem. Chem. Phys. 7, 59 (2005)
                       Ne : Obtained from the EMSL Basis Set Exchange (bse.pnl.gov) Feb. 2017
                            C. Haettig, Phys. Chem. Chem. Phys. 7, 59 (2005)
                            F. Weigend, A. Kohn, C. Hattig, J. Chem. Phys. 116, 3175 (2002)
                    Sc-Zn : Obtained from the EMSL Basis Set Exchange (bse.pnl.gov) Feb. 2017
                            J. G. Hill, J. A. Platts, J. Chem. Phys. 128, 044104 (2008)

The basis set includes element-specific modifications.

Your calculation utilizes the auxiliary basis: cc-pVTZ/C 
  Obtained from the EMSL Basis Set Exchange (bse.pnl.gov) Feb. 2017
  H-He, B-F, Al-Ar, Ga-Kr : F. Weigend, A. Kohn, C. Hattig, J. Chem. Phys. 116, 3175 (2002)
             Li-Be, Na-Mg : C. Haettig, Phys. Chem. Chem. Phys. 7, 59 (2005)
                       Ne : C. Haettig, Phys. Chem. Chem. Phys. 7, 59 (2005)
                            F. Weigend, A. Kohn, C. Hattig, J. Chem. Phys. 116, 3175 (2002)
                    Sc-Zn : J. G. Hill, J. A. Platts, J. Chem. Phys. 128, 044104 (2008)

================================================================================
                                        WARNINGS
                       Please study these warnings very carefully!
================================================================================

INFO   : Checking CIS options ...

INFO   : the flag for use of the SHARK integral package has been found!

================================================================================
                                       INPUT FILE
================================================================================
NAME = b3lyp-train-0.inp
|  1> ! b3lyp aug-cc-PVTZ RIJCOSX Opt
|  2> %maxcore 4000
|  3> %basis
|  4>  AuxJ "aug-cc-PVTZ/JK"
|  5>  AuxC "aug-cc-PVTZ/C"
|  6>  newGTO H "cc-PVTZ" end
|  7>  newAuxJGTO H "cc-PVTZ/JK" end
|  8>  newAuxCGTO H "cc-PVTZ/C" end
|  9> end
| 10> %cpcm
| 11>  SMD true
| 12>  SMDsolvent "benzene"
| 13> end
| 14> %pal nprocs 4 end
| 15> * xyz 0 1
| 16> C         -4.49800        0.16580        0.04130
| 17> C         -3.64810        1.25580        0.17290
| 18> C         -2.28180        1.07950        0.13650
| 19> C         -1.74760       -0.20460       -0.03390
| 20> N         -0.39610       -0.49050       -0.08470
| 21> N          0.39620        0.49240        0.06880
| 22> C          1.74770        0.20610        0.01640
| 23> C          2.61130        1.28860        0.21030
| 24> C          3.97790        1.09780        0.17750
| 25> C          4.49790       -0.16760       -0.04920
| 26> C          3.64700       -1.24720       -0.24490
| 27> C          2.28080       -1.06910       -0.21380
| 28> C         -2.61030       -1.29680       -0.16830
| 29> C         -3.97690       -1.10790       -0.12920
| 30> H         -5.56800        0.31100        0.07160
| 31> H         -4.06100        2.24580        0.30460
| 32> H         -1.60150        1.91160        0.23620
| 33> H          2.18550        2.26460        0.38580
| 34> H          4.64350        1.93500        0.32870
| 35> H          5.56780       -0.31440       -0.07400
| 36> H          4.05900       -2.23040       -0.42170
| 37> H          1.59970       -1.89300       -0.36320
| 38> H         -2.18350       -2.27940       -0.29950
| 39> H         -4.64170       -1.95310       -0.23180
| 40> *
| 41> 
| 42> 
| 43> $new_job
| 44> ! b3lyp aug-cc-PVTZ RIJCOSX SP
| 45> %maxcore 4000
| 46> %basis
| 47>  AuxJ "aug-cc-PVTZ/JK"
| 48>  AuxC "aug-cc-PVTZ/C"
| 49>  newGTO H "cc-PVTZ" end
| 50>  newAuxJGTO H "cc-PVTZ/JK" end
| 51>  newAuxCGTO H "cc-PVTZ/C" end
| 52> end
| 53> %cpcm
| 54>  SMD true
| 55>  SMDsolvent "benzene"
| 56> end
| 57> %pal nprocs 4 end
| 58> %tddft
| 59>  nroots 10
| 60>  maxdim 7
| 61> end
| 62> * xyzfile 0 1
| 63> 
| 64>                          ****END OF INPUT****
================================================================================


                 $$$$$$$$$$$$$$$$$$$$$$$$$$$$$$$$$$$$$$$$$$$$$$ 
                 $ THERE ARE  2 JOBS TO BE PROCESSED THIS RUN $
                 $$$$$$$$$$$$$$$$$$$$$$$$$$$$$$$$$$$$$$$$$$$$$$ 




                 $$$$$$$$$$$$$$$$  JOB NUMBER  1 $$$$$$$$$$$$$$


                       *****************************
                       * Geometry Optimization Run *
                       *****************************

Geometry optimization settings:
Update method            Update   .... BFGS
Choice of coordinates    CoordSys .... Z-matrix Internals
Initial Hessian          InHess   .... Almoef's Model

Convergence Tolerances:
Energy Change            TolE     ....  5.0000e-06 Eh
Max. Gradient            TolMAXG  ....  3.0000e-04 Eh/bohr
RMS Gradient             TolRMSG  ....  1.0000e-04 Eh/bohr
Max. Displacement        TolMAXD  ....  4.0000e-03 bohr
RMS Displacement         TolRMSD  ....  2.0000e-03 bohr
Strict Convergence                ....  False
------------------------------------------------------------------------------
                        ORCA OPTIMIZATION COORDINATE SETUP
------------------------------------------------------------------------------

The optimization will be done in new redundant internal coordinates
Making redundant internal coordinates   ...  (new redundants) done
Evaluating the initial hessian          ...  (Almloef) done
Evaluating the coordinates              ...  done
Calculating the B-matrix                .... done
Calculating the G-matrix                .... done
Diagonalizing the G-matrix              .... done
Small eigenvalue found = 3.794e-03
Small eigenvalue found = 1.454e-02
Small eigenvalue found = 2.593e-02
Small eigenvalue found = 2.847e-02
The first mode is                       ....   50
The number of degrees of freedom        ....   66

    -----------------------------------------------------------------
                    Redundant Internal Coordinates


    -----------------------------------------------------------------
         Definition                    Initial Value    Approx d2E/dq
    -----------------------------------------------------------------
      1. B(C   1,C   0)                  1.3884         0.628402   
      2. B(C   2,C   1)                  1.3781         0.652696   
      3. B(C   3,C   2)                  1.4012         0.599645   
      4. B(N   4,C   3)                  1.3823         0.575562   
      5. B(N   5,N   4)                  1.2718         0.773827   
      6. B(C   6,N   5)                  1.3825         0.575261   
      7. B(C   7,C   6)                  1.3983         0.606061   
      8. B(C   8,C   7)                  1.3802         0.647593   
      9. B(C   9,C   8)                  1.3867         0.632339   
     10. B(C  10,C   9)                  1.3885         0.628304   
     11. B(C  11,C  10)                  1.3781         0.652690   
     12. B(C  11,C   6)                  1.4012         0.599642   
     13. B(C  12,C   3)                  1.3983         0.606055   
     14. B(C  13,C  12)                  1.3801         0.647824   
     15. B(C  13,C   0)                  1.3867         0.632425   
     16. B(H  14,C   0)                  1.0802         0.373256   
     17. B(H  15,C   1)                  1.0807         0.372603   
     18. B(H  16,C   2)                  1.0794         0.374377   
     19. B(H  17,C   7)                  1.0792         0.374668   
     20. B(H  18,C   8)                  1.0802         0.373328   
     21. B(H  19,C   9)                  1.0802         0.373288   
     22. B(H  20,C  10)                  1.0806         0.372760   
     23. B(H  21,C  11)                  1.0794         0.374447   
     24. B(H  22,C  12)                  1.0793         0.374546   
     25. B(H  23,C  13)                  1.0802         0.373290   
     26. A(C   1,C   0,H  14)          119.8775         0.355873   
     27. A(C  13,C   0,H  14)          119.9429         0.356259   
     28. A(C   1,C   0,C  13)          120.1795         0.436677   
     29. A(C   0,C   1,H  15)          119.7913         0.355767   
     30. A(C   0,C   1,C   2)          120.2616         0.439168   
     31. A(C   2,C   1,H  15)          119.9471         0.358067   
     32. A(C   1,C   2,C   3)          119.8964         0.435476   
     33. A(C   3,C   2,H  16)          118.5167         0.353238   
     34. A(C   1,C   2,H  16)          121.5869         0.358357   
     35. A(N   4,C   3,C  12)          115.9841         0.423786   
     36. A(C   2,C   3,N   4)          124.5240         0.422981   
     37. A(C   2,C   3,C  12)          119.4917         0.429710   
     38. A(C   3,N   4,N   5)          116.4112         0.436968   
     39. A(N   4,N   5,C   6)          116.3850         0.436927   
     40. A(C   7,C   6,C  11)          119.4956         0.429710   
     41. A(N   5,C   6,C  11)          124.5158         0.422941   
     42. A(N   5,C   6,C   7)          115.9886         0.423747   
     43. A(C   8,C   7,H  17)          121.3008         0.357926   
     44. A(C   6,C   7,H  17)          118.6201         0.353922   
     45. A(C   6,C   7,C   8)          120.0791         0.435695   
     46. A(C   9,C   8,H  18)          119.9381         0.356262   
     47. A(C   7,C   8,H  18)          119.9758         0.357708   
     48. A(C   7,C   8,C   9)          120.0861         0.439041   
     49. A(C  10,C   9,H  19)          119.8729         0.355869   
     50. A(C   8,C   9,H  19)          119.9448         0.356256   
     51. A(C   8,C   9,C  10)          120.1823         0.436654   
     52. A(C   9,C  10,H  20)          119.7931         0.355783   
     53. A(C   9,C  10,C  11)          120.2562         0.439155   
     54. A(C  11,C  10,H  20)          119.9508         0.358092   
     55. A(C   6,C  11,C  10)          119.9006         0.435474   
     56. A(C  10,C  11,H  21)          121.5871         0.358368   
     57. A(C   6,C  11,H  21)          118.5122         0.353249   
     58. A(C  13,C  12,H  22)          121.3063         0.357928   
     59. A(C   3,C  12,H  22)          118.6088         0.353901   
     60. A(C   3,C  12,C  13)          120.0847         0.435722   
     61. A(C  12,C  13,H  23)          119.9744         0.357723   
     62. A(C   0,C  13,H  23)          119.9398         0.356264   
     63. A(C   0,C  13,C  12)          120.0858         0.439080   
     64. D(C   2,C   1,C   0,C  13)     -0.0712         0.027371   
     65. D(H  15,C   1,C   0,C  13)    179.9449         0.027371   
     66. D(C   2,C   1,C   0,H  14)    179.9468         0.027371   
     67. D(H  15,C   1,C   0,H  14)     -0.0372         0.027371   
     68. D(H  16,C   2,C   1,H  15)     -0.0436         0.029679   
     69. D(C   3,C   2,C   1,C   0)     -0.0032         0.029679   
     70. D(C   3,C   2,C   1,H  15)    179.9808         0.029679   
     71. D(H  16,C   2,C   1,C   0)    179.9724         0.029679   
     72. D(C  12,C   3,C   2,H  16)   -179.8497         0.024787   
     73. D(C  12,C   3,C   2,C   1)      0.1266         0.024787   
     74. D(N   4,C   3,C   2,C   1)    179.9769         0.024787   
     75. D(N   4,C   3,C   2,H  16)      0.0005         0.024787   
     76. D(N   5,N   4,C   3,C  12)   -178.3685         0.024072   
     77. D(N   5,N   4,C   3,C   2)      1.7765         0.024072   
     78. D(C   6,N   5,N   4,C   3)   -179.9298         0.047896   
     79. D(C  11,C   6,N   5,N   4)      1.1500         0.024045   
     80. D(C   7,C   6,N   5,N   4)   -178.8836         0.024045   
     81. D(H  17,C   7,C   6,C  11)    179.9578         0.025349   
     82. D(H  17,C   7,C   6,N   5)     -0.0104         0.025349   
     83. D(C   8,C   7,C   6,C  11)     -0.1475         0.025349   
     84. D(C   8,C   7,C   6,N   5)    179.8843         0.025349   
     85. D(H  18,C   8,C   7,H  17)     -0.0334         0.029185   
     86. D(H  18,C   8,C   7,C   6)   -179.9252         0.029185   
     87. D(C   9,C   8,C   7,H  17)    179.9588         0.029185   
     88. D(C   9,C   8,C   7,C   6)      0.0670         0.029185   
     89. D(H  19,C   9,C   8,H  18)      0.0173         0.027737   
     90. D(H  19,C   9,C   8,C   7)   -179.9749         0.027737   
     91. D(C  10,C   9,C   8,H  18)   -179.9657         0.027737   
     92. D(C  10,C   9,C   8,C   7)      0.0422         0.027737   
     93. D(C  11,C  10,C   9,H  19)    179.9471         0.027362   
     94. D(C  11,C  10,C   9,C   8)     -0.0700         0.027362   
     95. D(H  20,C  10,C   9,H  19)     -0.0233         0.027362   
     96. D(H  20,C  10,C   9,C   8)    179.9597         0.027362   
     97. D(H  21,C  11,C  10,H  20)     -0.0312         0.029679   
     98. D(H  21,C  11,C  10,C   9)    179.9984         0.029679   
     99. D(C   6,C  11,C  10,H  20)    179.9586         0.029679   
    100. D(C   6,C  11,C  10,C   9)     -0.0117         0.029679   
    101. D(H  21,C  11,C   6,C   7)   -179.8901         0.024786   
    102. D(H  21,C  11,C   6,N   5)      0.0753         0.024786   
    103. D(C  10,C  11,C   6,C   7)      0.1197         0.024786   
    104. D(C  10,C  11,C   6,N   5)   -179.9149         0.024786   
    105. D(H  22,C  12,C   3,N   4)      0.0974         0.025349   
    106. D(H  22,C  12,C   3,C   2)    179.9601         0.025349   
    107. D(C  13,C  12,C   3,N   4)    179.9598         0.025349   
    108. D(C  13,C  12,C   3,C   2)     -0.1775         0.025349   
    109. D(H  23,C  13,C  12,H  22)     -0.0543         0.029207   
    110. D(H  23,C  13,C  12,C   3)   -179.9129         0.029207   
    111. D(C   0,C  13,C  12,H  22)    179.9631         0.029207   
    112. D(C   0,C  13,C  12,C   3)      0.1045         0.029207   
    113. D(H  23,C  13,C   0,H  14)      0.0196         0.027745   
    114. D(H  23,C  13,C   0,C   1)   -179.9624         0.027745   
    115. D(C  12,C  13,C   0,H  14)   -179.9978         0.027745   
    116. D(C  12,C  13,C   0,C   1)      0.0202         0.027745   
    -----------------------------------------------------------------

Number of atoms                         .... 24
Number of degrees of freedom            .... 116

         *************************************************************
         *                GEOMETRY OPTIMIZATION CYCLE   1            *
         *************************************************************
---------------------------------
CARTESIAN COORDINATES (ANGSTROEM)
---------------------------------
  C     -4.498000    0.165800    0.041300
  C     -3.648100    1.255800    0.172900
  C     -2.281800    1.079500    0.136500
  C     -1.747600   -0.204600   -0.033900
  N     -0.396100   -0.490500   -0.084700
  N      0.396200    0.492400    0.068800
  C      1.747700    0.206100    0.016400
  C      2.611300    1.288600    0.210300
  C      3.977900    1.097800    0.177500
  C      4.497900   -0.167600   -0.049200
  C      3.647000   -1.247200   -0.244900
  C      2.280800   -1.069100   -0.213800
  C     -2.610300   -1.296800   -0.168300
  C     -3.976900   -1.107900   -0.129200
  H     -5.568000    0.311000    0.071600
  H     -4.061000    2.245800    0.304600
  H     -1.601500    1.911600    0.236200
  H      2.185500    2.264600    0.385800
  H      4.643500    1.935000    0.328700
  H      5.567800   -0.314400   -0.074000
  H      4.059000   -2.230400   -0.421700
  H      1.599700   -1.893000   -0.363200
  H     -2.183500   -2.279400   -0.299500
  H     -4.641700   -1.953100   -0.231800

----------------------------
CARTESIAN COORDINATES (A.U.)
----------------------------
  NO LB      ZA    FRAG     MASS         X           Y           Z
   0 C     6.0000    0    12.011   -8.499988    0.313317    0.078046
   1 C     6.0000    0    12.011   -6.893910    2.373118    0.326734
   2 C     6.0000    0    12.011   -4.311977    2.039959    0.257948
   3 C     6.0000    0    12.011   -3.302485   -0.386638   -0.064062
   4 N     7.0000    0    14.007   -0.748521   -0.926911   -0.160060
   5 N     7.0000    0    14.007    0.748709    0.930501    0.130013
   6 C     6.0000    0    12.011    3.302674    0.389473    0.030992
   7 C     6.0000    0    12.011    4.934642    2.435101    0.397409
   8 C     6.0000    0    12.011    7.517142    2.074541    0.335426
   9 C     6.0000    0    12.011    8.499799   -0.316718   -0.092975
  10 C     6.0000    0    12.011    6.891831   -2.356866   -0.462794
  11 C     6.0000    0    12.011    4.310087   -2.020306   -0.404023
  12 C     6.0000    0    12.011   -4.932752   -2.450597   -0.318041
  13 C     6.0000    0    12.011   -7.515252   -2.093628   -0.244153
  14 H     1.0000    0     1.008  -10.521995    0.587705    0.135304
  15 H     1.0000    0     1.008   -7.674178    4.243947    0.575611
  16 H     1.0000    0     1.008   -3.026396    3.612400    0.446353
  17 H     1.0000    0     1.008    4.129996    4.279474    0.729056
  18 H     1.0000    0     1.008    8.774943    3.656620    0.621153
  19 H     1.0000    0     1.008   10.521617   -0.594130   -0.139840
  20 H     1.0000    0     1.008    7.670398   -4.214845   -0.796898
  21 H     1.0000    0     1.008    3.022995   -3.577252   -0.686349
  22 H     1.0000    0     1.008   -4.126217   -4.307442   -0.565973
  23 H     1.0000    0     1.008   -8.771542   -3.690824   -0.438039

--------------------------------
INTERNAL COORDINATES (ANGSTROEM)
--------------------------------
 C      0   0   0     0.000000000000     0.00000000     0.00000000
 C      1   0   0     1.388433855104     0.00000000     0.00000000
 C      2   1   0     1.378108246837   120.26157454     0.00000000
 C      3   2   1     1.401184716588   119.89640254     0.00000000
 N      4   3   2     1.382342830126   124.52403695   179.97687066
 N      5   4   3     1.271768040957   116.41118021     1.77653303
 C      6   5   4     1.382485334461   116.38500841   180.07018789
 C      7   6   5     1.398287674264   115.98861298   181.11643585
 C      8   7   6     1.380244920295   120.07905042   179.88429380
 C      9   8   7     1.386733590132   120.08610835     0.06697544
 C     10   9   8     1.388475948657   120.18227578     0.04216527
 C     11  10   9     1.378110757523   120.25618147   359.93004310
 C      4   3   2     1.398290202354   119.49174315     0.12664993
 C     13   4   3     1.380147666013   120.08473803   359.82250539
 H      1   2   3     1.080231979715   119.87754285   179.94681108
 H      2   1   3     1.080708702658   119.79130019   180.01602508
 H      3   2   1     1.079415855915   121.58685731   179.97242509
 H      8   7   6     1.079204285573   118.62008240     0.00000000
 H      9   8   7     1.080179910941   119.97583724   180.07479857
 H     10   9   8     1.080208910350   119.94480258   180.02507930
 H     11  10   9     1.080594503040   119.79305369   179.95965072
 H     12  11  10     1.079364989241   121.58711090   179.99840511
 H     13   4   3     1.079293491132   118.60879550   179.96013143
 H     14  13   4     1.080207776310   119.97438081   180.08710608

---------------------------
INTERNAL COORDINATES (A.U.)
---------------------------
 C      0   0   0     0.000000000000     0.00000000     0.00000000
 C      1   0   0     2.623759741212     0.00000000     0.00000000
 C      2   1   0     2.604247169420   120.26157454     0.00000000
 C      3   2   1     2.647855377388   119.89640254     0.00000000
 N      4   3   2     2.612249372127   124.52403695   179.97687066
 N      5   4   3     2.403293303283   116.41118021     1.77653303
 C      6   5   4     2.612518666294   116.38500841   180.07018789
 C      7   6   5     2.642380760798   115.98861298   181.11643585
 C      8   7   6     2.608284897093   120.07905042   179.88429380
 C      9   8   7     2.620546706059   120.08610835     0.06697544
 C     10   9   8     2.623839286499   120.18227578     0.04216527
 C     11  10   9     2.604251913929   120.25618147   359.93004310
 C      4   3   2     2.642385538195   119.49174315     0.12664993
 C     13   4   3     2.608101113134   120.08473803   359.82250539
 H      1   2   3     2.041342602766   119.87754285   179.94681108
 H      2   1   3     2.042243478568   119.79130019   180.01602508
 H      3   2   1     2.039800352291   121.58685731   179.97242509
 H      8   7   6     2.039400542288   118.62008240     0.00000000
 H      9   8   7     2.041244207041   119.97583724   180.07479857
 H     10   9   8     2.041299007983   119.94480258   180.02507930
 H     11  10   9     2.042027672566   119.79305369   179.95965072
 H     12  11  10     2.039704228209   121.58711090   179.99840511
 H     13   4   3     2.039569116363   118.60879550   179.96013143
 H     14  13   4     2.041296864957   119.97438081   180.08710608

---------------------
BASIS SET INFORMATION
---------------------
There are 3 groups of distinct atoms

 Group   1 Type C   : 19s6p3d2f contracted to 5s4p3d2f pattern {88111/3111/111/11}
 Group   2 Type N   : 19s6p3d2f contracted to 5s4p3d2f pattern {88111/3111/111/11}
 Group   3 Type H   : 5s2p1d contracted to 3s2p1d pattern {311/11/1}

Atom   0C    basis set group =>   1
Atom   1C    basis set group =>   1
Atom   2C    basis set group =>   1
Atom   3C    basis set group =>   1
Atom   4N    basis set group =>   2
Atom   5N    basis set group =>   2
Atom   6C    basis set group =>   1
Atom   7C    basis set group =>   1
Atom   8C    basis set group =>   1
Atom   9C    basis set group =>   1
Atom  10C    basis set group =>   1
Atom  11C    basis set group =>   1
Atom  12C    basis set group =>   1
Atom  13C    basis set group =>   1
Atom  14H    basis set group =>   3
Atom  15H    basis set group =>   3
Atom  16H    basis set group =>   3
Atom  17H    basis set group =>   3
Atom  18H    basis set group =>   3
Atom  19H    basis set group =>   3
Atom  20H    basis set group =>   3
Atom  21H    basis set group =>   3
Atom  22H    basis set group =>   3
Atom  23H    basis set group =>   3
---------------------------------
AUXILIARY/J BASIS SET INFORMATION
---------------------------------
There are 3 groups of distinct atoms

 Group   1 Type C   : 10s7p5d2f1g contracted to 10s7p5d2f1g pattern {1111111111/1111111/11111/11/1}
 Group   2 Type N   : 10s7p5d2f1g contracted to 10s7p5d2f1g pattern {1111111111/1111111/11111/11/1}
 Group   3 Type H   : 4s3p2d1f contracted to 4s3p2d1f pattern {1111/111/11/1}

Atom   0C    basis set group =>   1
Atom   1C    basis set group =>   1
Atom   2C    basis set group =>   1
Atom   3C    basis set group =>   1
Atom   4N    basis set group =>   2
Atom   5N    basis set group =>   2
Atom   6C    basis set group =>   1
Atom   7C    basis set group =>   1
Atom   8C    basis set group =>   1
Atom   9C    basis set group =>   1
Atom  10C    basis set group =>   1
Atom  11C    basis set group =>   1
Atom  12C    basis set group =>   1
Atom  13C    basis set group =>   1
Atom  14H    basis set group =>   3
Atom  15H    basis set group =>   3
Atom  16H    basis set group =>   3
Atom  17H    basis set group =>   3
Atom  18H    basis set group =>   3
Atom  19H    basis set group =>   3
Atom  20H    basis set group =>   3
Atom  21H    basis set group =>   3
Atom  22H    basis set group =>   3
Atom  23H    basis set group =>   3
---------------------------------
AUXILIARY/C BASIS SET INFORMATION
---------------------------------
There are 3 groups of distinct atoms

 Group   1 Type C   : 9s7p6d4f2g contracted to 9s7p6d4f2g pattern {111111111/1111111/111111/1111/11}
 Group   2 Type N   : 9s7p6d4f2g contracted to 9s7p6d4f2g pattern {111111111/1111111/111111/1111/11}
 Group   3 Type H   : 4s3p2d1f contracted to 4s3p2d1f pattern {1111/111/11/1}

Atom   0C    basis set group =>   1
Atom   1C    basis set group =>   1
Atom   2C    basis set group =>   1
Atom   3C    basis set group =>   1
Atom   4N    basis set group =>   2
Atom   5N    basis set group =>   2
Atom   6C    basis set group =>   1
Atom   7C    basis set group =>   1
Atom   8C    basis set group =>   1
Atom   9C    basis set group =>   1
Atom  10C    basis set group =>   1
Atom  11C    basis set group =>   1
Atom  12C    basis set group =>   1
Atom  13C    basis set group =>   1
Atom  14H    basis set group =>   3
Atom  15H    basis set group =>   3
Atom  16H    basis set group =>   3
Atom  17H    basis set group =>   3
Atom  18H    basis set group =>   3
Atom  19H    basis set group =>   3
Atom  20H    basis set group =>   3
Atom  21H    basis set group =>   3
Atom  22H    basis set group =>   3
Atom  23H    basis set group =>   3


           ************************************************************
           *        Program running with 4 parallel MPI-processes     *
           *              working on a common directory               *
           ************************************************************
------------------------------------------------------------------------------
                           ORCA GTO INTEGRAL CALCULATION
                           -- RI-GTO INTEGRALS CHOSEN --
------------------------------------------------------------------------------
------------------------------------------------------------------------------
                   ___                                                        
                  /   \      - P O W E R E D   B Y -                         
                 /     \                                                     
                 |  |  |   _    _      __       _____    __    __             
                 |  |  |  | |  | |    /  \     |  _  \  |  |  /  |          
                  \  \/   | |  | |   /    \    | | | |  |  | /  /          
                 / \  \   | |__| |  /  /\  \   | |_| |  |  |/  /          
                |  |  |   |  __  | /  /__\  \  |    /   |      \           
                |  |  |   | |  | | |   __   |  |    \   |  |\   \          
                \     /   | |  | | |  |  |  |  | |\  \  |  | \   \       
                 \___/    |_|  |_| |__|  |__|  |_| \__\ |__|  \__/        
                                                                              
                      - O R C A' S   B I G   F R I E N D -                    
                                      &                                       
                       - I N T E G R A L  F E E D E R -                       
                                                                              
 v1 FN, 2020, v2 2021                                                         
------------------------------------------------------------------------------


Reading SHARK input file b3lyp-train-0.SHARKINP.tmp ... ok
----------------------
SHARK INTEGRAL PACKAGE
----------------------

Number of atoms                             ...     24
Number of basis functions                   ...    868
Number of shells                            ...    340
Maximum angular momentum                    ...      3
Integral batch strategy                     ... SHARK/LIBINT Hybrid
RI-J (if used) integral strategy            ... SPLIT-RIJ (Revised 2003 algorithm where possible)
Printlevel                                  ...      1
Contraction scheme used                     ... PARTIAL GENERAL contraction
Coulomb Range Separation                    ... NOT USED
Exchange Range Separation                   ... NOT USED
Finite Nucleus Model                        ... NOT USED
Auxiliary Coulomb fitting basis             ... AVAILABLE
   # of basis functions in Aux-J            ...   1406
   # of shells in Aux-J                     ...    450
   Maximum angular momentum in Aux-J        ...      4
Auxiliary J/K fitting basis                 ... NOT available
Auxiliary Correlation fitting basis         ... AVAILABLE
   # of basis functions in Aux-C            ...   1784
   # of shells in Aux-C                     ...    492
   Maximum angular momentum in Aux-C        ...      4
Auxiliary 'external' fitting basis          ... NOT available
Integral threshold                          ...     2.500000e-11
Primitive cut-off                           ...     2.500000e-12
Primitive pair pre-selection threshold      ...     2.500000e-12

Calculating pre-screening integrals         ... done (  0.2 sec) Dimension = 340
Calculating pre-screening integrals (ORCA)  ... done (  0.3 sec) Dimension = 256
Organizing shell pair data                  ... done (  0.9 sec)
Shell pair information
Total number of shell pairs                 ...     57970
Shell pairs after pre-screening             ...     40430
Total number of primitive shell pairs       ...     75538
Primitive shell pairs kept                  ...     47956
          la=0 lb=0:   9392 shell pairs
          la=1 lb=0:  10268 shell pairs
          la=1 lb=1:   2452 shell pairs
          la=2 lb=0:   6858 shell pairs
          la=2 lb=1:   3264 shell pairs
          la=2 lb=2:   1129 shell pairs
          la=3 lb=0:   3724 shell pairs
          la=3 lb=1:   1778 shell pairs
          la=3 lb=2:   1212 shell pairs
          la=3 lb=3:    353 shell pairs

Calculating one electron integrals          ... done (  0.1 sec)
Calculating RI/J V-Matrix + Cholesky decomp.... done (  0.4 sec)
Calculating RI/C V-Matrix + Cholesky decomp.... done (  0.3 sec)
Calculating Nuclear repulsion               ... done (  0.0 sec) ENN=    754.763724847319 Eh

SHARK setup successfully completed in   3.7 seconds

Maximum memory used throughout the entire GTOINT-calculation: 62.7 MB


           ************************************************************
           *        Program running with 4 parallel MPI-processes     *
           *              working on a common directory               *
           ************************************************************
-------------------------------------------------------------------------------
                                 ORCA SCF
-------------------------------------------------------------------------------

------------
SCF SETTINGS
------------
Hamiltonian:
 Density Functional     Method          .... DFT(GTOs)
 Exchange Functional    Exchange        .... B88
   X-Alpha parameter    XAlpha          ....  0.666667
   Becke's b parameter  XBeta           ....  0.004200
 Correlation Functional Correlation     .... LYP
 LDA part of GGA corr.  LDAOpt          .... VWN-5
 Gradients option       PostSCFGGA      .... off
 Hybrid DFT is turned on
   Fraction HF Exchange ScalHFX         ....  0.200000
   Scaling of DF-GGA-X  ScalDFX         ....  0.720000
   Scaling of DF-GGA-C  ScalDFC         ....  0.810000
   Scaling of DF-LDA-C  ScalLDAC        ....  1.000000
   Perturbative correction              ....  0.000000
   Density functional embedding theory  .... OFF
   NL short-range parameter             ....  4.800000
 RI-approximation to the Coulomb term is turned on
   Number of AuxJ basis functions       .... 1406
   RIJ-COSX (HFX calculated with COS-X)).... on


General Settings:
 Integral files         IntName         .... b3lyp-train-0
 Hartree-Fock type      HFTyp           .... RHF
 Total Charge           Charge          ....    0
 Multiplicity           Mult            ....    1
 Number of Electrons    NEL             ....   96
 Basis Dimension        Dim             ....  784
 Nuclear Repulsion      ENuc            ....    754.7637248473 Eh

Convergence Acceleration:
 DIIS                   CNVDIIS         .... on
   Start iteration      DIISMaxIt       ....    12
   Startup error        DIISStart       ....  0.200000
   # of expansion vecs  DIISMaxEq       ....     5
   Bias factor          DIISBfac        ....   1.050
   Max. coefficient     DIISMaxC        ....  10.000
 Trust-Rad. Augm. Hess. CNVTRAH         .... auto
   Auto Start mean grad. ratio tolernc. ....  1.125000
   Auto Start start iteration           ....    20
   Auto Start num. interpolation iter.  ....    10
   Max. Number of Micro iterations      ....    16
   Max. Number of Macro iterations      .... Maxiter - #DIIS iter
   Number of Davidson start vectors     ....     2
   Converg. threshold I  (grad. norm)   ....   1.000e-05
   Converg. threshold II (energy diff.) ....   1.000e-08
   Grad. Scal. Fac. for Micro threshold ....   0.100
   Minimum threshold for Micro iter.    ....   0.010
   NR start threshold (gradient norm)   ....   0.001
   Initial trust radius                 ....   0.400
   Minimum AH scaling param. (alpha)    ....   1.000
   Maximum AH scaling param. (alpha)    .... 1000.000
   Orbital update algorithm             .... Taylor
   White noise on init. David. guess    .... on
   Maximum white noise                  ....   0.010
   Quad. conv. algorithm                .... NR
 SOSCF                  CNVSOSCF        .... on
   Start iteration      SOSCFMaxIt      ....   150
   Startup grad/error   SOSCFStart      ....  0.003300
 Level Shifting         CNVShift        .... on
   Level shift para.    LevelShift      ....    0.2500
   Turn off err/grad.   ShiftErr        ....    0.0010
 Zerner damping         CNVZerner       .... off
 Static damping         CNVDamp         .... on
   Fraction old density DampFac         ....    0.7000
   Max. Damping (<1)    DampMax         ....    0.9800
   Min. Damping (>=0)   DampMin         ....    0.0000
   Turn off err/grad.   DampErr         ....    0.1000
 Fernandez-Rico         CNVRico         .... off

SCF Procedure:
 Maximum # iterations   MaxIter         ....   125
 SCF integral mode      SCFMode         .... Direct
   Integral package                     .... SHARK and LIBINT hybrid scheme
 Reset frequency        DirectResetFreq ....    20
 Integral Threshold     Thresh          ....  2.500e-11 Eh
 Primitive CutOff       TCut            ....  2.500e-12 Eh

Convergence Tolerance:
 Convergence Check Mode ConvCheckMode   .... Total+1el-Energy
 Convergence forced     ConvForced      .... 0
 Energy Change          TolE            ....  1.000e-08 Eh
 1-El. energy change                    ....  1.000e-05 Eh
 Orbital Gradient       TolG            ....  1.000e-05
 Orbital Rotation angle TolX            ....  1.000e-05
 DIIS Error             TolErr          ....  5.000e-07


Diagonalization of the overlap matrix:
Smallest eigenvalue                        ... 1.183e-06
Time for diagonalization                   ...    0.233 sec
Threshold for overlap eigenvalues          ... 1.000e-08
Number of eigenvalues below threshold      ... 0
Time for construction of square roots      ...    0.084 sec
Total time needed                          ...    0.322 sec

Time for model grid setup =    0.392 sec

------------------------------
INITIAL GUESS: MODEL POTENTIAL
------------------------------
Loading Hartree-Fock densities                     ... done
Calculating cut-offs                               ... done
Initializing the effective Hamiltonian             ... done
Setting up the integral package (SHARK)            ... done
Starting the Coulomb interaction                   ... done (   1.3 sec)
Reading the grid                                   ... done
Mapping shells                                     ... done
Starting the XC term evaluation                    ... done (   1.2 sec)
  promolecular density results
     # of electrons  =     95.993679595
     EX              =    -77.823475786
     EC              =     -3.234782821
     EX+EC           =    -81.058258607
Transforming the Hamiltonian                       ... done (   0.1 sec)
Diagonalizing the Hamiltonian                      ... done (   0.2 sec)
Back transforming the eigenvectors                 ... done (   0.0 sec)
Now organizing SCF variables                       ... done
                      ------------------
                      INITIAL GUESS DONE (   3.3 sec)
                      ------------------
-------------------
DFT GRID GENERATION
-------------------

General Integration Accuracy     IntAcc      ... 4.388
Radial Grid Type                 RadialGrid  ... OptM3 with GC (2021)
Angular Grid (max. ang.)         AngularGrid ... 4 (Lebedev-302)
Angular grid pruning method      GridPruning ... 4 (adaptive)
Weight generation scheme         WeightScheme... Becke
Basis function cutoff            BFCut       ... 1.0000e-11
Integration weight cutoff        WCut        ... 1.0000e-14
Angular grids for H and He will be reduced by one unit
Partially contracted basis set               ... off
Rotationally invariant grid construction     ... off

Total number of grid points                  ...   119759
Total number of batches                      ...     1886
Average number of points per batch           ...       63
Average number of grid points per atom       ...     4990
Time for grid setup =    1.600 sec

--------------------
COSX GRID GENERATION
--------------------

GRIDX 1
-------
General Integration Accuracy     IntAcc      ... 3.816
Radial Grid Type                 RadialGrid  ... OptM3 with GC (2021)
Angular Grid (max. ang.)         AngularGrid ... 1 (Lebedev-50)
Angular grid pruning method      GridPruning ... 4 (adaptive)
Weight generation scheme         WeightScheme... Becke
Basis function cutoff            BFCut       ... 1.0000e-11
Integration weight cutoff        WCut        ... 1.0000e-14
Angular grids for H and He will be reduced by one unit
Partially contracted basis set               ... on
Rotationally invariant grid construction     ... off

Total number of grid points                  ...    15306
Total number of batches                      ...      256
Average number of points per batch           ...       59
Average number of grid points per atom       ...      638
UseSFitting                                  ... on

GRIDX 2
-------
General Integration Accuracy     IntAcc      ... 4.020
Radial Grid Type                 RadialGrid  ... OptM3 with GC (2021)
Angular Grid (max. ang.)         AngularGrid ... 2 (Lebedev-110)
Angular grid pruning method      GridPruning ... 4 (adaptive)
Weight generation scheme         WeightScheme... Becke
Basis function cutoff            BFCut       ... 1.0000e-11
Integration weight cutoff        WCut        ... 1.0000e-14
Angular grids for H and He will be reduced by one unit
Partially contracted basis set               ... on
Rotationally invariant grid construction     ... off

Total number of grid points                  ...    36690
Total number of batches                      ...      583
Average number of points per batch           ...       62
Average number of grid points per atom       ...     1529
UseSFitting                                  ... on

GRIDX 3
-------
General Integration Accuracy     IntAcc      ... 4.338
Radial Grid Type                 RadialGrid  ... OptM3 with GC (2021)
Angular Grid (max. ang.)         AngularGrid ... 3 (Lebedev-194)
Angular grid pruning method      GridPruning ... 4 (adaptive)
Weight generation scheme         WeightScheme... Becke
Basis function cutoff            BFCut       ... 1.0000e-11
Integration weight cutoff        WCut        ... 1.0000e-14
Angular grids for H and He will be reduced by one unit
Partially contracted basis set               ... on
Rotationally invariant grid construction     ... off

Total number of grid points                  ...    79133
Total number of batches                      ...     1248
Average number of points per batch           ...       63
Average number of grid points per atom       ...     3297
UseSFitting                                  ... on

Time for X-Grid setup             =    3.481 sec


--------------------
CPCM SOLVATION MODEL
--------------------
CPCM parameters:
  Epsilon                                         ...       2.2706
  Refrac                                          ...       1.5011
  Rsolv                                           ...       1.3000
  Surface type                                    ... GAUSSIAN VDW
  Epsilon function type                           ...         CPCM
Solvent:                                     ... BENZENE
SMD-CDS solvent descriptors:
  Soln                                       ...    1.5011
  Soln25                                     ...    1.4972
  Sola                                       ...    0.0000
  Solb                                       ...    0.1400
  Solg                                       ...   40.6200
  Solc                                       ...    1.0000
  Solh                                       ...    0.0000
Radii:
 Radius for C  used is    3.4960 Bohr (=   1.8500 Ang.)
 Radius for N  used is    3.5716 Bohr (=   1.8900 Ang.)
 Radius for H  used is    2.2677 Bohr (=   1.2000 Ang.)
Calculating surface                               ...        done! (  0.0s)
GEPOL surface points                              ...         1407
GEPOL Volume                                      ...    1324.4442
GEPOL Surface-area                                ...     771.4012
Calculating surface distance matrix               ...        done! (  0.0s)
Performing Cholesky decomposition & store         ...        done! (  0.1s)
Overall time for CPCM initialization              ...                 0.1s
 re-compute Schwartz prescreening matrix in partically contracted basis (1) ...done (   0.185 sec)
--------------
SCF ITERATIONS
--------------
ITER       Energy         Delta-E        Max-DP      RMS-DP      [F,P]     Damp
               ***  Starting incremental Fock matrix formation  ***
  0   -572.3162791261   0.000000000000 0.09401457  0.00088762  0.1445368 0.7000
  1   -572.4460863025  -0.129807176368 0.06231429  0.00063561  0.0765767 0.7000
                               ***Turning on DIIS***
  2   -572.5058505219  -0.059764219385 0.11786789  0.00133129  0.0357400 0.0000
  3   -572.5919915686  -0.086141046683 0.02869626  0.00028459  0.0409098 0.0000
  4   -572.6129089475  -0.020917378976 0.01996062  0.00011869  0.0079422 0.0000
                      *** Initiating the SOSCF procedure ***
                           *** Shutting down DIIS ***
                      *** Re-Reading the Fockian *** 
                      *** Removing any level shift *** 
ITER      Energy       Delta-E        Grad      Rot      Max-DP    RMS-DP
  5   -572.61377915  -0.0008701980  0.000997  0.000997  0.003111  0.000034
               *** Restarting incremental Fock matrix formation ***
  6   -572.61384917  -0.0000700285  0.000343  0.001506  0.012924  0.000224
  7   -572.61385159  -0.0000024163  0.000557  0.001685  0.002755  0.000048
  8   -572.61385717  -0.0000055829  0.000188  0.000615  0.003216  0.000054
  9   -572.61385731  -0.0000001366  0.000076  0.000103  0.000444  0.000005
 10   -572.61385788  -0.0000005733  0.000015  0.000067  0.001929  0.000015
 11   -572.61385788   0.0000000002  0.000017  0.000026  0.000917  0.000008
 12   -572.61385791  -0.0000000270  0.000003  0.000017  0.002840  0.000021
                  ***Gradient check signals convergence***
              ***Rediagonalizing the Fockian in SOSCF/NRSCF***

               *****************************************************
               *                     SUCCESS                       *
               *           SCF CONVERGED AFTER  13 CYCLES          *
               *****************************************************

Old exchange energy                            =    -15.797991888 Eh
New exchange energy                            =    -15.797972780 Eh
Exchange energy change after final integration =      0.000019108 Eh
Total energy after final integration           =   -572.613838805 Eh
Final COS-X integration done in                =    62.026 sec

SMD CDS free energy correction energy :                -5.78691     Kcal/mol
Total Energy after SMD CDS correction =              -572.623060827 Eh

----------------
TOTAL SCF ENERGY
----------------

Total Energy       :         -572.62306083 Eh          -15581.86565 eV

Components:
Nuclear Repulsion  :          754.76372485 Eh           20538.16509 eV
Electronic Energy  :        -1327.38678567 Eh          -36120.03075 eV
One Electron Energy:        -2270.41632593 Eh          -61781.16912 eV
Two Electron Energy:          943.02954026 Eh           25661.13838 eV
Max COSX asymmetry :            0.00000867 Eh               0.00024 eV
CPCM Dielectric    :           -0.00586730 Eh              -0.15966 eV
SMD CDS (Gcds)     :           -0.00922202 Eh              -0.25094 eV

Virial components:
Potential Energy   :        -1142.19153384 Eh          -31080.61174 eV
Kinetic Energy     :          569.56847301 Eh           15498.74609 eV
Virial Ratio       :            2.00536299


DFT components:
N(Alpha)           :       48.000023673295 electrons
N(Beta)            :       48.000023673295 electrons
N(Total)           :       96.000047346590 electrons
E(X)               :      -62.792108990190 Eh       
E(C)               :       -3.821814054967 Eh       
E(XC)              :      -66.613923045158 Eh       
DFET-embed. en.    :        0.000000000000 Eh       
CPCM Solvation Model Properties:
Surface-charge          :           -0.05978885
Charge-correction       :            0.00009366 Eh               0.00255 eV
Free-energy (cav+disp)  :           -0.00922202 Eh              -0.25094 eV

---------------
SCF CONVERGENCE
---------------

  Last Energy change         ...   -3.1067e-09  Tolerance :   1.0000e-08
  Last MAX-Density change    ...    2.6645e-15  Tolerance :   1.0000e-07
  Last RMS-Density change    ...    1.4806e-17  Tolerance :   5.0000e-09
  Last Orbital Gradient      ...    1.9515e-06  Tolerance :   1.0000e-05
  Last Orbital Rotation      ...    4.6594e-06  Tolerance :   1.0000e-05

             **** THE GBW FILE WAS UPDATED (b3lyp-train-0.gbw) ****
             **** DENSITY b3lyp-train-0.scfp WAS UPDATED ****
             **** ENERGY FILE WAS UPDATED (b3lyp-train-0.en.tmp) ****
             **** THE GBW FILE WAS UPDATED (b3lyp-train-0.gbw) ****
             **** DENSITY b3lyp-train-0.scfp WAS UPDATED ****
----------------
ORBITAL ENERGIES
----------------

  NO   OCC          E(Eh)            E(eV) 
   0   2.0000     -14.361061      -390.7843 
   1   2.0000     -14.360608      -390.7720 
   2   2.0000     -10.206340      -277.7286 
   3   2.0000     -10.206327      -277.7283 
   4   2.0000     -10.181512      -277.0530 
   5   2.0000     -10.181504      -277.0528 
   6   2.0000     -10.180414      -277.0232 
   7   2.0000     -10.180406      -277.0229 
   8   2.0000     -10.179296      -276.9927 
   9   2.0000     -10.179274      -276.9921 
  10   2.0000     -10.178494      -276.9709 
  11   2.0000     -10.178492      -276.9709 
  12   2.0000     -10.178117      -276.9606 
  13   2.0000     -10.178083      -276.9597 
  14   2.0000      -1.031602       -28.0713 
  15   2.0000      -0.881239       -23.9797 
  16   2.0000      -0.860122       -23.4051 
  17   2.0000      -0.807965       -21.9858 
  18   2.0000      -0.757146       -20.6030 
  19   2.0000      -0.756075       -20.5739 
  20   2.0000      -0.743946       -20.2438 
  21   2.0000      -0.686138       -18.6708 
  22   2.0000      -0.624418       -16.9913 
  23   2.0000      -0.616922       -16.7873 
  24   2.0000      -0.601441       -16.3661 
  25   2.0000      -0.568982       -15.4828 
  26   2.0000      -0.536076       -14.5874 
  27   2.0000      -0.508335       -13.8325 
  28   2.0000      -0.488081       -13.2814 
  29   2.0000      -0.476896       -12.9770 
  30   2.0000      -0.455361       -12.3910 
  31   2.0000      -0.442953       -12.0534 
  32   2.0000      -0.437638       -11.9087 
  33   2.0000      -0.432790       -11.7768 
  34   2.0000      -0.429486       -11.6869 
  35   2.0000      -0.427361       -11.6291 
  36   2.0000      -0.397277       -10.8105 
  37   2.0000      -0.385844       -10.4993 
  38   2.0000      -0.366344        -9.9687 
  39   2.0000      -0.362876        -9.8744 
  40   2.0000      -0.356966        -9.7135 
  41   2.0000      -0.347717        -9.4619 
  42   2.0000      -0.344996        -9.3878 
  43   2.0000      -0.284896        -7.7524 
  44   2.0000      -0.264839        -7.2066 
  45   2.0000      -0.264586        -7.1997 
  46   2.0000      -0.234945        -6.3932 
  47   2.0000      -0.231542        -6.3006 
  48   0.0000      -0.095966        -2.6114 
  49   0.0000      -0.018401        -0.5007 
  50   0.0000      -0.015211        -0.4139 
  51   0.0000      -0.003544        -0.0964 
  52   0.0000       0.002064         0.0562 
  53   0.0000       0.004294         0.1168 
  54   0.0000       0.014024         0.3816 
  55   0.0000       0.022587         0.6146 
  56   0.0000       0.024030         0.6539 
  57   0.0000       0.032840         0.8936 
  58   0.0000       0.039290         1.0691 
  59   0.0000       0.040326         1.0973 
  60   0.0000       0.040425         1.1000 
  61   0.0000       0.041828         1.1382 
  62   0.0000       0.049424         1.3449 
  63   0.0000       0.055185         1.5017 
  64   0.0000       0.061735         1.6799 
  65   0.0000       0.064286         1.7493 
  66   0.0000       0.066371         1.8060 
  67   0.0000       0.067477         1.8361 
  68   0.0000       0.076603         2.0845 
  69   0.0000       0.086329         2.3491 
  70   0.0000       0.086768         2.3611 
  71   0.0000       0.097702         2.6586 
  72   0.0000       0.098901         2.6912 
  73   0.0000       0.100238         2.7276 
  74   0.0000       0.107028         2.9124 
  75   0.0000       0.109976         2.9926 
  76   0.0000       0.113449         3.0871 
  77   0.0000       0.118706         3.2302 
  78   0.0000       0.119132         3.2417 
  79   0.0000       0.123451         3.3593 
  80   0.0000       0.126215         3.4345 
  81   0.0000       0.128413         3.4943 
  82   0.0000       0.129034         3.5112 
  83   0.0000       0.135672         3.6918 
  84   0.0000       0.136935         3.7262 
  85   0.0000       0.141754         3.8573 
  86   0.0000       0.144396         3.9292 
  87   0.0000       0.146170         3.9775 
  88   0.0000       0.147708         4.0194 
  89   0.0000       0.148347         4.0367 
  90   0.0000       0.149420         4.0659 
  91   0.0000       0.159262         4.3337 
  92   0.0000       0.160906         4.3785 
  93   0.0000       0.165775         4.5110 
  94   0.0000       0.166139         4.5209 
  95   0.0000       0.169600         4.6151 
  96   0.0000       0.172219         4.6863 
  97   0.0000       0.175738         4.7821 
  98   0.0000       0.180880         4.9220 
  99   0.0000       0.180956         4.9241 
 100   0.0000       0.189334         5.1520 
 101   0.0000       0.192851         5.2477 
 102   0.0000       0.199523         5.4293 
 103   0.0000       0.200352         5.4519 
 104   0.0000       0.210967         5.7407 
 105   0.0000       0.213951         5.8219 
 106   0.0000       0.214735         5.8432 
 107   0.0000       0.221188         6.0188 
 108   0.0000       0.225252         6.1294 
 109   0.0000       0.228491         6.2176 
 110   0.0000       0.230667         6.2768 
 111   0.0000       0.230825         6.2811 
 112   0.0000       0.238173         6.4810 
 113   0.0000       0.239633         6.5207 
 114   0.0000       0.244489         6.6529 
 115   0.0000       0.245225         6.6729 
 116   0.0000       0.248495         6.7619 
 117   0.0000       0.252410         6.8684 
 118   0.0000       0.258903         7.0451 
 119   0.0000       0.260131         7.0785 
 120   0.0000       0.268002         7.2927 
 121   0.0000       0.272087         7.4039 
 122   0.0000       0.273358         7.4385 
 123   0.0000       0.283575         7.7165 
 124   0.0000       0.285327         7.7641 
 125   0.0000       0.289060         7.8657 
 126   0.0000       0.292580         7.9615 
 127   0.0000       0.299750         8.1566 
 128   0.0000       0.299837         8.1590 
 129   0.0000       0.303336         8.2542 
 130   0.0000       0.305351         8.3090 
 131   0.0000       0.311925         8.4879 
 132   0.0000       0.314474         8.5573 
 133   0.0000       0.315928         8.5968 
 134   0.0000       0.324990         8.8434 
 135   0.0000       0.336181         9.1479 
 136   0.0000       0.339447         9.2368 
 137   0.0000       0.340206         9.2575 
 138   0.0000       0.342089         9.3087 
 139   0.0000       0.344049         9.3620 
 140   0.0000       0.352862         9.6019 
 141   0.0000       0.362368         9.8605 
 142   0.0000       0.362841         9.8734 
 143   0.0000       0.371442        10.1075 
 144   0.0000       0.372681        10.1412 
 145   0.0000       0.375238        10.2107 
 146   0.0000       0.376147        10.2355 
 147   0.0000       0.378052        10.2873 
 148   0.0000       0.382710        10.4141 
 149   0.0000       0.387612        10.5475 
 150   0.0000       0.391853        10.6629 
 151   0.0000       0.395541        10.7632 
 152   0.0000       0.396220        10.7817 
 153   0.0000       0.396978        10.8023 
 154   0.0000       0.400284        10.8923 
 155   0.0000       0.404102        10.9962 
 156   0.0000       0.405921        11.0457 
 157   0.0000       0.411304        11.1921 
 158   0.0000       0.411842        11.2068 
 159   0.0000       0.412854        11.2343 
 160   0.0000       0.420385        11.4393 
 161   0.0000       0.421840        11.4789 
 162   0.0000       0.424914        11.5625 
 163   0.0000       0.430362        11.7108 
 164   0.0000       0.430448        11.7131 
 165   0.0000       0.432818        11.7776 
 166   0.0000       0.433734        11.8025 
 167   0.0000       0.439474        11.9587 
 168   0.0000       0.450533        12.2596 
 169   0.0000       0.450572        12.2607 
 170   0.0000       0.463825        12.6213 
 171   0.0000       0.466596        12.6967 
 172   0.0000       0.472358        12.8535 
 173   0.0000       0.477391        12.9905 
 174   0.0000       0.480033        13.0624 
 175   0.0000       0.480865        13.0850 
 176   0.0000       0.485541        13.2122 
 177   0.0000       0.493627        13.4323 
 178   0.0000       0.494244        13.4491 
 179   0.0000       0.500652        13.6234 
 180   0.0000       0.502318        13.6688 
 181   0.0000       0.511505        13.9188 
 182   0.0000       0.511541        13.9197 
 183   0.0000       0.515185        14.0189 
 184   0.0000       0.528853        14.3908 
 185   0.0000       0.530106        14.4249 
 186   0.0000       0.534651        14.5486 
 187   0.0000       0.543202        14.7813 
 188   0.0000       0.557711        15.1761 
 189   0.0000       0.560908        15.2631 
 190   0.0000       0.581103        15.8126 
 191   0.0000       0.584299        15.8996 
 192   0.0000       0.584899        15.9159 
 193   0.0000       0.592328        16.1181 
 194   0.0000       0.596760        16.2387 
 195   0.0000       0.598588        16.2884 
 196   0.0000       0.601843        16.3770 
 197   0.0000       0.623131        16.9562 
 198   0.0000       0.627310        17.0700 
 199   0.0000       0.630285        17.1509 
 200   0.0000       0.637812        17.3557 
 201   0.0000       0.642206        17.4753 
 202   0.0000       0.642528        17.4841 
 203   0.0000       0.643837        17.5197 
 204   0.0000       0.652146        17.7458 
 205   0.0000       0.652856        17.7651 
 206   0.0000       0.665049        18.0969 
 207   0.0000       0.666540        18.1375 
 208   0.0000       0.668801        18.1990 
 209   0.0000       0.677170        18.4267 
 210   0.0000       0.679120        18.4798 
 211   0.0000       0.682829        18.5807 
 212   0.0000       0.686021        18.6676 
 213   0.0000       0.689709        18.7679 
 214   0.0000       0.697392        18.9770 
 215   0.0000       0.702431        19.1141 
 216   0.0000       0.704808        19.1788 
 217   0.0000       0.707465        19.2511 
 218   0.0000       0.710222        19.3261 
 219   0.0000       0.713364        19.4116 
 220   0.0000       0.722200        19.6521 
 221   0.0000       0.732455        19.9311 
 222   0.0000       0.741662        20.1816 
 223   0.0000       0.742955        20.2168 
 224   0.0000       0.743702        20.2372 
 225   0.0000       0.743853        20.2413 
 226   0.0000       0.752615        20.4797 
 227   0.0000       0.755609        20.5612 
 228   0.0000       0.756455        20.5842 
 229   0.0000       0.762042        20.7362 
 230   0.0000       0.763634        20.7795 
 231   0.0000       0.770384        20.9632 
 232   0.0000       0.773168        21.0390 
 233   0.0000       0.773199        21.0398 
 234   0.0000       0.779139        21.2014 
 235   0.0000       0.781448        21.2643 
 236   0.0000       0.786541        21.4029 
 237   0.0000       0.805192        21.9104 
 238   0.0000       0.810561        22.0565 
 239   0.0000       0.814754        22.1706 
 240   0.0000       0.828488        22.5443 
 241   0.0000       0.829295        22.5663 
 242   0.0000       0.831636        22.6300 
 243   0.0000       0.836155        22.7529 
 244   0.0000       0.841369        22.8948 
 245   0.0000       0.841949        22.9106 
 246   0.0000       0.862362        23.4661 
 247   0.0000       0.865715        23.5573 
 248   0.0000       0.866806        23.5870 
 249   0.0000       0.868277        23.6270 
 250   0.0000       0.876000        23.8372 
 251   0.0000       0.882721        24.0201 
 252   0.0000       0.887624        24.1535 
 253   0.0000       0.892083        24.2748 
 254   0.0000       0.897002        24.4087 
 255   0.0000       0.899939        24.4886 
 256   0.0000       0.907057        24.6823 
 257   0.0000       0.908989        24.7348 
 258   0.0000       0.909605        24.7516 
 259   0.0000       0.911036        24.7905 
 260   0.0000       0.921476        25.0746 
 261   0.0000       0.922515        25.1029 
 262   0.0000       0.927255        25.2319 
 263   0.0000       0.937232        25.5034 
 264   0.0000       0.938914        25.5491 
 265   0.0000       0.950253        25.8577 
 266   0.0000       0.953814        25.9546 
 267   0.0000       0.963262        26.2117 
 268   0.0000       0.968658        26.3585 
 269   0.0000       0.969715        26.3873 
 270   0.0000       0.982531        26.7360 
 271   0.0000       0.984002        26.7761 
 272   0.0000       0.988945        26.9106 
 273   0.0000       0.993146        27.0249 
 274   0.0000       1.004242        27.3268 
 275   0.0000       1.004384        27.3307 
 276   0.0000       1.008557        27.4442 
 277   0.0000       1.019519        27.7425 
 278   0.0000       1.044233        28.4150 
 279   0.0000       1.048843        28.5405 
 280   0.0000       1.059998        28.8440 
 281   0.0000       1.071731        29.1633 
 282   0.0000       1.076724        29.2992 
 283   0.0000       1.080609        29.4049 
 284   0.0000       1.091988        29.7145 
 285   0.0000       1.110343        30.2140 
 286   0.0000       1.114855        30.3367 
 287   0.0000       1.117019        30.3956 
 288   0.0000       1.122267        30.5384 
 289   0.0000       1.139785        31.0151 
 290   0.0000       1.149365        31.2758 
 291   0.0000       1.157238        31.4901 
 292   0.0000       1.168242        31.7895 
 293   0.0000       1.171435        31.8764 
 294   0.0000       1.193310        32.4716 
 295   0.0000       1.207411        32.8553 
 296   0.0000       1.216699        33.1081 
 297   0.0000       1.219280        33.1783 
 298   0.0000       1.227593        33.4045 
 299   0.0000       1.235933        33.6314 
 300   0.0000       1.236331        33.6423 
 301   0.0000       1.237578        33.6762 
 302   0.0000       1.238716        33.7072 
 303   0.0000       1.246394        33.9161 
 304   0.0000       1.260989        34.3133 
 305   0.0000       1.270690        34.5772 
 306   0.0000       1.283688        34.9309 
 307   0.0000       1.286795        35.0155 
 308   0.0000       1.293857        35.2076 
 309   0.0000       1.300358        35.3845 
 310   0.0000       1.303387        35.4670 
 311   0.0000       1.317208        35.8430 
 312   0.0000       1.319150        35.8959 
 313   0.0000       1.322816        35.9956 
 314   0.0000       1.327334        36.1186 
 315   0.0000       1.336572        36.3700 
 316   0.0000       1.347724        36.6734 
 317   0.0000       1.350053        36.7368 
 318   0.0000       1.351170        36.7672 
 319   0.0000       1.358097        36.9557 
 320   0.0000       1.361801        37.0565 
 321   0.0000       1.366032        37.1716 
 322   0.0000       1.367530        37.2124 
 323   0.0000       1.367827        37.2205 
 324   0.0000       1.374153        37.3926 
 325   0.0000       1.376061        37.4445 
 326   0.0000       1.380340        37.5610 
 327   0.0000       1.387059        37.7438 
 328   0.0000       1.392327        37.8871 
 329   0.0000       1.395013        37.9602 
 330   0.0000       1.403135        38.1812 
 331   0.0000       1.405913        38.2568 
 332   0.0000       1.412433        38.4343 
 333   0.0000       1.415426        38.5157 
[...]
B(  0-C ,  1-C ) :   1.2490 B(  0-C , 13-C ) :   1.2024 B(  0-C , 14-H ) :   0.9477 
B(  1-C ,  2-C ) :   1.0718 B(  1-C , 15-H ) :   0.9633 B(  2-C ,  3-C ) :   1.1176 
B(  2-C ,  4-N ) :  -0.2441 B(  2-C , 16-H ) :   1.0189 B(  3-C ,  4-N ) :   0.1151 
B(  3-C ,  5-N ) :   0.4829 B(  3-C , 12-C ) :   0.9738 B(  4-N ,  6-C ) :   0.4880 
B(  4-N ,  7-C ) :   0.1143 B(  5-N ,  6-C ) :   0.1200 B(  5-N , 11-C ) :  -0.2442 
B(  5-N , 12-C ) :   0.1173 B(  6-C ,  7-C ) :   0.9763 B(  6-C , 11-C ) :   1.1142 
B(  7-C ,  8-C ) :   1.1519 B(  7-C , 17-H ) :   0.9777 B(  8-C ,  9-C ) :   1.2010 
B(  8-C , 18-H ) :   0.9721 B(  9-C , 10-C ) :   1.2454 B(  9-C , 19-H ) :   0.9480 
B( 10-C , 11-C ) :   1.0747 B( 10-C , 20-H ) :   0.9649 B( 11-C , 21-H ) :   1.0184 
B( 12-C , 13-C ) :   1.1512 B( 12-C , 22-H ) :   0.9758 B( 13-C , 23-H ) :   0.9695 


-------
TIMINGS
-------

Total SCF time: 0 days 0 hours 2 min 15 sec 

Total time                  ....     135.894 sec
Sum of individual times     ....     133.909 sec  ( 98.5%)

Fock matrix formation       ....     129.057 sec  ( 95.0%)
  Split-RI-J                ....       6.885 sec  (  5.3% of F)
  Chain of spheres X        ....     112.189 sec  ( 86.9% of F)
  XC integration            ....       5.780 sec  (  4.5% of F)
    Basis function eval.    ....       1.097 sec  ( 19.0% of XC)
    Density eval.           ....       1.983 sec  ( 34.3% of XC)
    XC-Functional eval.     ....       0.069 sec  (  1.2% of XC)
    XC-Potential eval.      ....       2.518 sec  ( 43.6% of XC)
Diagonalization             ....       0.264 sec  (  0.2%)
Density matrix formation    ....       0.023 sec  (  0.0%)
Population analysis         ....       0.184 sec  (  0.1%)
Initial guess               ....       0.303 sec  (  0.2%)
Orbital Transformation      ....       0.000 sec  (  0.0%)
Orbital Orthonormalization  ....       0.255 sec  (  0.2%)
DIIS solution               ....       0.097 sec  (  0.1%)
SOSCF solution              ....       0.179 sec  (  0.1%)
Grid generation             ....       3.802 sec  (  2.8%)

Maximum memory used throughout the entire SCF-calculation: 181.4 MB


           ************************************************************
           *        Program running with 4 parallel MPI-processes     *
           *              working on a common directory               *
           ************************************************************
------------------------------------------------------------------------------
                        ORCA TD-DFT/TDA CALCULATION
------------------------------------------------------------------------------

Input orbitals are from        ... b3lyp-train-0_job2.gbw
CI-vector output               ... b3lyp-train-0_job2.cis
Tamm-Dancoff approximation     ... operative
CIS-Integral strategy          ... AO-integrals
Integral handling              ... AO integral Direct
Max. core memory used          ... 4000 MB
Reference state                ... RHF
Generation of triplets         ... off
Follow IRoot                   ... off
Number of operators            ... 1
Orbital ranges used for CIS calculation:
 Operator 0:  Orbitals  14... 47  to  48...783
XAS localization array:
 Operator 0:  Orbitals  -1... -1

-------------------
XC-INTEGRATION GRID
-------------------

General Integration Accuracy     IntAcc      ... 3.467
Radial Grid Type                 RadialGrid  ... OptM3 with GC (2021)
Angular Grid (max. ang.)         AngularGrid ... 1 (Lebedev-50)
Angular grid pruning method      GridPruning ... 4 (adaptive)
Weight generation scheme         WeightScheme... Becke
Basis function cutoff            BFCut       ... 1.0000e-11
Integration weight cutoff        WCut        ... 1.0000e-14
Angular grids for H and He will be reduced by one unit
Partially contracted basis set               ... off
Rotationally invariant grid construction     ... off

Total number of grid points                  ...    17921
Total number of batches                      ...      294
Average number of points per batch           ...       60
Average number of grid points per atom       ...      747

---------------------
COSX-INTEGRATION GRID
---------------------

General Integration Accuracy     IntAcc      ... 3.067
Radial Grid Type                 RadialGrid  ... OptM3 with GC (2021)
Angular Grid (max. ang.)         AngularGrid ... 1 (Lebedev-50)
Angular grid pruning method      GridPruning ... 4 (adaptive)
Weight generation scheme         WeightScheme... Becke
Basis function cutoff            BFCut       ... 1.0000e-11
Integration weight cutoff        WCut        ... 1.0000e-14
Angular grids for H and He will be reduced by one unit
Partially contracted basis set               ... on
Rotationally invariant grid construction     ... off

Total number of grid points                  ...     8122
Total number of batches                      ...      138
Average number of points per batch           ...       58
Average number of grid points per atom       ...      338

---------------
TD-DFT XC SETUP
---------------

DFT calculation                         ... on
Name of the grid file                   ... b3lyp-train-0_job2.grid_cis.tmp
Exchange functional (TD-DFT)            ... B88
   X-Alpha parameter    XAlpha (TD-DFT) ...  0.666667
   Becke's b parameter  XBeta (TD-DFT)  ...  0.004200
Correlation functional (TD-DFT)         ... LYP
 LDA part of GGA corr.  LDAOpt (TD-DFT) ... VWN-5
Hybrid DFT                              ... on
   Exchange mixing (TD-DFT)             ...  0.200
   GGA exch. scaling (TD-DFT)           ...  0.720
   GGA corr. scaling (TD-DFT)           ...  0.810

Building densities             ... done
Calculating rho(r) on the grid ... done
Building xc-kernel on the grid ... done
                    *** TD-DFT CALCULATION INITIALIZED ***

---------------------------------
    LR-CPCM (non-equilibrium)
---------------------------------

Setting up LR-CPCM             ... done

------------------------
DAVIDSON-DIAGONALIZATION
------------------------

Dimension of the eigenvalue problem            ...  25024
Number of roots to be determined               ...     10
Maximum size of the expansion space            ...     70
Maximum number of iterations                   ...    100
Convergence tolerance for the residual         ...    1.000e-06
Convergence tolerance for the energies         ...    1.000e-06
Orthogonality tolerance                        ...    1.000e-14
Level Shift                                    ...    0.000e+00
Constructing the preconditioner                ... o.k.
Building the initial guess                     ... o.k.
Number of trial vectors determined             ...     70


                       ****Iteration    0****

   Memory handling for direct AO based CIS:
   Memory per vector needed      ...    28 MB
   Memory needed                 ...   844 MB
   Memory available              ...  4000 MB
   Number of vectors per batch   ...   142
   Number of batches             ...     1
   Time for densities:            0.278
   Time for RI-J (Direct):        8.440
   Time for K (COSX):            48.751
   Time for XC-Integration:      23.652
   Time for LR-CPCM terms:       10.987
   Time for Sigma-Completion:     0.253
   Size of expansion space: 30
   Lowest Energy          :     0.097825508536
   Maximum Energy change  :     0.206943637780 (vector 9)
   Maximum residual norm  :     0.019067253469

                       ****Iteration    1****
   Time for densities:            0.143
   Time for RI-J (Direct):        4.975
   Time for K (COSX):            17.010
   Time for XC-Integration:       8.124
   Time for LR-CPCM terms:        5.006
   Time for Sigma-Completion:     0.070
   Size of expansion space: 40
   Lowest Energy          :     0.095131697317
   Maximum Energy change  :     0.015547712770 (vector 1)
   Maximum residual norm  :     0.000592075545

                       ****Iteration    2****
   Time for densities:            0.093
   Time for RI-J (Direct):        4.907
   Time for K (COSX):            15.887
   Time for XC-Integration:       7.525
   Time for LR-CPCM terms:        4.985
   Time for Sigma-Completion:     0.063
   Size of expansion space: 50
   Lowest Energy          :     0.095041117070
   Maximum Energy change  :     0.000727713196 (vector 4)
   Maximum residual norm  :     0.000069213825

                       ****Iteration    3****
   Time for densities:            0.089
   Time for RI-J (Direct):        4.795
   Time for K (COSX):            15.753
   Time for XC-Integration:       7.792
   Time for LR-CPCM terms:        4.893
   Time for Sigma-Completion:     0.063
   Size of expansion space: 60
   Lowest Energy          :     0.095040117816
   Maximum Energy change  :     0.000097287979 (vector 8)
   Maximum residual norm  :     0.000002081281

                       ****Iteration    4****
   Time for densities:            0.093
   Time for RI-J (Direct):        4.794
   Time for K (COSX):            15.805
   Time for XC-Integration:       7.619
   Time for LR-CPCM terms:        5.005
   Time for Sigma-Completion:     0.065
   Size of expansion space: 70
   Lowest Energy          :     0.095040087040
   Maximum Energy change  :     0.000002803975 (vector 8)
   Maximum residual norm  :     0.000000129288

      *** CONVERGENCE OF RESIDUAL NORM REACHED ***

Storing the converged CI vectors               ... b3lyp-train-0_job2.cis1

                 *** DAVIDSON DONE ***

Total time for solving the CIS problem:   228.963sec

------------------------------------
TD-DFT/TDA EXCITED STATES (SINGLETS)
------------------------------------

the weight of the individual excitations are printed if larger than 1.0e-02

STATE  1:  E=   0.095040 au      2.586 eV    20858.9 cm**-1 <S**2> =   0.000000
    46a ->  48a  :     0.099419 (c=  0.31530808)
    47a ->  48a  :     0.888572 (c=  0.94264121)

STATE  2:  E=   0.134258 au      3.653 eV    29466.3 cm**-1 <S**2> =   0.000000
    46a ->  48a  :     0.874655 (c= -0.93523011)
    47a ->  48a  :     0.097627 (c=  0.31245397)

STATE  3:  E=   0.149350 au      4.064 eV    32778.6 cm**-1 <S**2> =   0.000000
    43a ->  50a  :     0.010192 (c=  0.10095496)
    45a ->  48a  :     0.924805 (c= -0.96166778)
    46a ->  49a  :     0.049536 (c= -0.22256629)

STATE  4:  E=   0.149588 au      4.070 eV    32830.8 cm**-1 <S**2> =   0.000000
    44a ->  48a  :     0.933486 (c= -0.96617102)
    46a ->  50a  :     0.042762 (c=  0.20679071)

STATE  5:  E=   0.176112 au      4.792 eV    38652.1 cm**-1 <S**2> =   0.000000
    43a ->  48a  :     0.864085 (c= -0.92956183)
    46a ->  51a  :     0.076589 (c= -0.27674648)
    47a ->  51a  :     0.011125 (c=  0.10547570)

STATE  6:  E=   0.182648 au      4.970 eV    40086.7 cm**-1 <S**2> =   0.000000
    46a ->  49a  :     0.093998 (c= -0.30659069)
    47a ->  49a  :     0.903109 (c= -0.95032056)

STATE  7:  E=   0.185826 au      5.057 eV    40784.1 cm**-1 <S**2> =   0.000000
    46a ->  50a  :     0.091598 (c=  0.30265085)
    47a ->  50a  :     0.901275 (c=  0.94935481)

STATE  8:  E=   0.193809 au      5.274 eV    42536.1 cm**-1 <S**2> =   0.000000
    46a ->  51a  :     0.098832 (c= -0.31437621)
    47a ->  51a  :     0.883582 (c= -0.93999031)

STATE  9:  E=   0.197434 au      5.372 eV    43331.8 cm**-1 <S**2> =   0.000000
    44a ->  51a  :     0.084675 (c= -0.29098977)
    45a ->  48a  :     0.046311 (c= -0.21520078)
    45a ->  57a  :     0.016563 (c=  0.12869787)
    46a ->  49a  :     0.741515 (c=  0.86111292)
    47a ->  49a  :     0.074471 (c= -0.27289433)

STATE 10:  E=   0.199300 au      5.423 eV    43741.3 cm**-1 <S**2> =   0.000000
    44a ->  48a  :     0.040570 (c= -0.20141986)
    44a ->  49a  :     0.016081 (c= -0.12680896)
    44a ->  57a  :     0.018348 (c=  0.13545351)
    45a ->  51a  :     0.105886 (c= -0.32540171)
    46a ->  50a  :     0.725286 (c= -0.85163751)
    47a ->  50a  :     0.071232 (c=  0.26689315)


-----------------------------
TD-DFT/TDA-EXCITATION SPECTRA
-----------------------------

Center of mass = ( -0.0000, -0.0004, -0.0121)
Calculating the Dipole integrals                  ... done
Transforming integrals                            ... done
Calculating the Linear Momentum integrals         ... done
Transforming integrals                            ... done
Calculating angular momentum integrals            ... done
Transforming integrals                            ... done

-----------------------------------------------------------------------------
         ABSORPTION SPECTRUM VIA TRANSITION ELECTRIC DIPOLE MOMENTS
-----------------------------------------------------------------------------
State   Energy    Wavelength  fosc         T2        TX        TY        TZ  
        (cm-1)      (nm)                 (au**2)    (au)      (au)      (au) 
-----------------------------------------------------------------------------
   1   20858.9    479.4   0.000160517   0.00253  -0.05031   0.00133   0.00042
   2   29466.3    339.4   1.201394606  13.42258  -3.66090   0.13734   0.03876
   3   32778.6    305.1   0.070085887   0.70391  -0.56206  -0.61593  -0.09286
   4   32830.8    304.6   0.000022909   0.00023  -0.00426  -0.00466  -0.01378
   5   38652.1    258.7   0.000005670   0.00005   0.00042  -0.00159   0.00675
   6   40086.7    249.5   0.000140605   0.00115  -0.01065  -0.03186  -0.00510
   7   40784.1    245.2   0.000049195   0.00040   0.01660  -0.00885   0.00657
   8   42536.1    235.1   0.001702690   0.01318   0.00140   0.02475  -0.11209
   9   43331.8    230.8   0.280620193   2.13200  -1.13368  -0.90988  -0.13741
  10   43741.3    228.6   0.000060679   0.00046   0.00090   0.00366  -0.02103

-----------------------------------------------------------------------------
         ABSORPTION SPECTRUM VIA TRANSITION VELOCITY DIPOLE MOMENTS
-----------------------------------------------------------------------------
State   Energy    Wavelength   fosc        P2         PX        PY        PZ  
        (cm-1)      (nm)                 (au**2)     (au)      (au)      (au) 
-----------------------------------------------------------------------------
   1   20858.9    479.4   0.000033053   0.00000   0.00216  -0.00018  -0.00004
   2   29466.3    339.4   0.499545410   0.10060   0.31518  -0.03505  -0.00603
   3   32778.6    305.1   0.008674533   0.00194   0.04212  -0.01280  -0.00226
   4   32830.8    304.6   0.000001512   0.00000   0.00032  -0.00005  -0.00049
   5   38652.1    258.7   0.000002233   0.00000  -0.00005  -0.00006   0.00076
   6   40086.7    249.5   0.000005765   0.00000   0.00093   0.00084   0.00012
   7   40784.1    245.2   0.001377871   0.00038  -0.00233  -0.00266   0.01928
   8   42536.1    235.1   0.000592376   0.00017  -0.00023   0.00211  -0.01295
   9   43331.8    230.8   0.075291898   0.02230   0.14694   0.02638   0.00301
  10   43741.3    228.6   0.000000057   0.00000  -0.00011  -0.00005  -0.00004

-------------------------------------------------------------------
                             CD SPECTRUM
-------------------------------------------------------------------
State  Energy     Wavelength     R         MX        MY        MZ   
       (cm-1)       (nm)     (1e40*cgs)   (au)      (au)      (au)  
-------------------------------------------------------------------
   1   20858.9    479.4     -7.89746   0.33695   0.14642   0.01622
   2   29466.3    339.4      1.77273  -0.00122  -0.00486  -0.00133
   3   32778.6    305.1      0.25415  -0.00178   0.00045   0.00201
   4   32830.8    304.6      1.06528  -0.00130   0.02587  -0.17234
   5   38652.1    258.7      0.59370  -0.00018  -0.02715   0.18013
   6   40086.7    249.5     -1.02286   0.01647   0.06129   0.00813
   7   40784.1    245.2     -0.05110   0.00005   0.00234  -0.01349
   8   42536.1    235.1     -0.30228   0.00006  -0.00054   0.00560
   9   43331.8    230.8     -2.42818  -0.00038   0.00598   0.00103
  10   43741.3    228.6      4.56386  -0.00150   0.06842  -0.44836

-------------------------------------------------------------------
         CD SPECTRUM VIA TRANSITION VELOCITY DIPOLE MOMENTS        
-------------------------------------------------------------------
State  Energy     Wavelength     R         MX        MY        MZ   
       (cm-1)       (nm)     (1e40*cgs)   (au)      (au)      (au)  
-------------------------------------------------------------------
   1   20858.9    479.4      3.48430   0.33695   0.14642   0.01622
   2   29466.3    339.4     -0.72806  -0.00122  -0.00486  -0.00133
   3   32778.6    305.1     -0.26973  -0.00178   0.00045   0.00201
   4   32830.8    304.6      0.25804  -0.00130   0.02587  -0.17234
   5   38652.1    258.7      0.37293  -0.00018  -0.02715   0.18013
   6   40086.7    249.5      0.17450   0.01647   0.06129   0.00813
   7   40784.1    245.2     -0.67571   0.00005   0.00234  -0.01349
   8   42536.1    235.1     -0.17927   0.00006  -0.00054   0.00560
   9   43331.8    230.8      0.24976  -0.00038   0.00598   0.00103
  10   43741.3    228.6      0.03570  -0.00150   0.06842  -0.44836

Total run time:      231.915 sec

           *** ORCA-CIS/TD-DFT FINISHED WITHOUT ERROR ***

Maximum memory used throughout the entire CIS-calculation: 794.2 MB

-----------------------
CIS/TD-DFT TOTAL ENERGY
-----------------------

    E(SCF)  =   -572.625077486 Eh
    DE(CIS) =      0.095040087 Eh (Root  1)
    ----------------------------- ---------
    E(tot)  =   -572.530037399 Eh


-------------------------   --------------------
FINAL SINGLE POINT ENERGY      -572.530037399264
-------------------------   --------------------


                            ***************************************
                            *     ORCA property calculations      *
                            ***************************************

                                    ---------------------
                                    Active property flags
                                    ---------------------
   (+) Dipole Moment


------------------------------------------------------------------------------
                       ORCA ELECTRIC PROPERTIES CALCULATION
------------------------------------------------------------------------------

Dipole Moment Calculation                       ... on
Quadrupole Moment Calculation                   ... off
Polarizability Calculation                      ... off
GBWName                                         ... b3lyp-train-0_job2.gbw
Electron density                                ... b3lyp-train-0_job2.scfp
The origin for moment calculation is the CENTER OF MASS  = (-0.000046, -0.000399 -0.012064)

-------------
DIPOLE MOMENT
-------------
                                X             Y             Z
Electronic contribution:      0.00014      -0.00366       0.00549
Nuclear contribution   :      0.00037       0.00478      -0.00988
                        -----------------------------------------
Total Dipole Moment    :      0.00051       0.00112      -0.00439
                        -----------------------------------------
Magnitude (a.u.)       :      0.00456
Magnitude (Debye)      :      0.01159



--------------------
Rotational spectrum 
--------------------
 
Rotational constants in cm-1:     0.091800     0.009745     0.008810 
Rotational constants in MHz :  2752.091709   292.137284   264.120906 

 Dipole components along the rotational axes: 
x,y,z [a.u.] :     0.000532     0.000436    -0.004506 
x,y,z [Debye]:     0.001353     0.001107    -0.011454 

 

Timings for individual modules:

Sum of individual times         ...      371.877 sec (=   6.198 min)
GTO integral calculation        ...        2.817 sec (=   0.047 min)   0.8 %
SCF iterations                  ...      136.520 sec (=   2.275 min)  36.7 %
CIS module                      ...      232.540 sec (=   3.876 min)  62.5 %



                             ****ORCA TERMINATED NORMALLY****
TOTAL RUN TIME: 0 days 1 hours 1 minutes 53 seconds 291 msec
