
                                 *****************
                                 * O   R   C   A *
                                 *****************

                                            #,                                       
                                            ###                                      
                                            ####                                     
                                            #####                                    
                                            ######                                   
                                           ########,                                 
                                     ,,################,,,,,                         
                               ,,#################################,,                 
                          ,,##########################################,,             
                       ,#########################################, ''#####,          
                    ,#############################################,,   '####,        
                  ,##################################################,,,,####,       
                ,###########''''           ''''###############################       
              ,#####''   ,,,,##########,,,,          '''####'''          '####       
            ,##' ,,,,###########################,,,                        '##       
           ' ,,###''''                  '''############,,,                           
         ,,##''                                '''############,,,,        ,,,,,,###''
      ,#''                                            '''#######################'''  
     '                                                          ''''####''''         
             ,#######,   #######,   ,#######,      ##                                
            ,#'     '#,  ##    ##  ,#'     '#,    #''#        ######   ,####,        
            ##       ##  ##   ,#'  ##            #'  '#       #        #'  '#        
            ##       ##  #######   ##           ,######,      #####,   #    #        
            '#,     ,#'  ##    ##  '#,     ,#' ,#      #,         ##   #,  ,#        
             '#######'   ##     ##  '#######'  #'      '#     #####' # '####'        



                  #######################################################
                  #                        -***-                        #
                  #          Department of theory and spectroscopy      #
                  #    Directorship and core code : Frank Neese         #
                  #        Max Planck Institute fuer Kohlenforschung    #
                  #                Kaiser Wilhelm Platz 1               #
                  #                 D-45470 Muelheim/Ruhr               #
                  #                      Germany                        #
                  #                                                     #
                  #                  All rights reserved                #
                  #                        -***-                        #
                  #######################################################


                         Program Version 5.0.2 -  RELEASE  -


 With contributions from (in alphabetic order):
   Daniel Aravena         : Magnetic Suceptibility
   Michael Atanasov       : Ab Initio Ligand Field Theory (pilot matlab implementation)
   Alexander A. Auer      : GIAO ZORA, VPT2 properties, NMR spectrum
   Ute Becker             : Parallelization
   Giovanni Bistoni       : ED, misc. LED, open-shell LED, HFLD
   Martin Brehm           : Molecular dynamics
   Dmytro Bykov           : SCF Hessian
   Vijay G. Chilkuri      : MRCI spin determinant printing, contributions to CSF-ICE
   Dipayan Datta          : RHF DLPNO-CCSD density
   Achintya Kumar Dutta   : EOM-CC, STEOM-CC
   Dmitry Ganyushin       : Spin-Orbit,Spin-Spin,Magnetic field MRCI
   Miquel Garcia          : C-PCM and meta-GGA Hessian, CC/C-PCM, Gaussian charge scheme
   Yang Guo               : DLPNO-NEVPT2, F12-NEVPT2, CIM, IAO-localization
   Andreas Hansen         : Spin unrestricted coupled pair/coupled cluster methods
   Benjamin Helmich-Paris : MC-RPA, TRAH-SCF, COSX integrals
   Lee Huntington         : MR-EOM, pCC
   Robert Izsak           : Overlap fitted RIJCOSX, COSX-SCS-MP3, EOM
   Marcus Kettner         : VPT2
   Christian Kollmar      : KDIIS, OOCD, Brueckner-CCSD(T), CCSD density, CASPT2, CASPT2-K
   Simone Kossmann        : Meta GGA functionals, TD-DFT gradient, OOMP2, MP2 Hessian
   Martin Krupicka        : Initial AUTO-CI
   Lucas Lang             : DCDCAS
   Marvin Lechner         : AUTO-CI (C++ implementation), FIC-MRCC
   Dagmar Lenk            : GEPOL surface, SMD
   Dimitrios Liakos       : Extrapolation schemes; Compound Job, initial MDCI parallelization
   Dimitrios Manganas     : Further ROCIS development; embedding schemes
   Dimitrios Pantazis     : SARC Basis sets
   Anastasios Papadopoulos: AUTO-CI, single reference methods and gradients
   Taras Petrenko         : DFT Hessian,TD-DFT gradient, ASA, ECA, R-Raman, ABS, FL, XAS/XES, NRVS
   Peter Pinski           : DLPNO-MP2, DLPNO-MP2 Gradient
   Christoph Reimann      : Effective Core Potentials
   Marius Retegan         : Local ZFS, SOC
   Christoph Riplinger    : Optimizer, TS searches, QM/MM, DLPNO-CCSD(T), (RO)-DLPNO pert. Triples
   Tobias Risthaus        : Range-separated hybrids, TD-DFT gradient, RPA, STAB
   Michael Roemelt        : Original ROCIS implementation
   Masaaki Saitow         : Open-shell DLPNO-CCSD energy and density
   Barbara Sandhoefer     : DKH picture change effects
   Avijit Sen             : IP-ROCIS
   Kantharuban Sivalingam : CASSCF convergence, NEVPT2, FIC-MRCI
   Bernardo de Souza      : ESD, SOC TD-DFT
   Georgi Stoychev        : AutoAux, RI-MP2 NMR, DLPNO-MP2 response
   Willem Van den Heuvel  : Paramagnetic NMR
   Boris Wezisla          : Elementary symmetry handling
   Frank Wennmohs         : Technical directorship


 We gratefully acknowledge several colleagues who have allowed us to
 interface, adapt or use parts of their codes:
   Stefan Grimme, W. Hujo, H. Kruse, P. Pracht,  : VdW corrections, initial TS optimization,
                  C. Bannwarth, S. Ehlert          DFT functionals, gCP, sTDA/sTD-DF
   Ed Valeev, F. Pavosevic, A. Kumar             : LibInt (2-el integral package), F12 methods
   Garnet Chan, S. Sharma, J. Yang, R. Olivares  : DMRG
   Ulf Ekstrom                                   : XCFun DFT Library
   Mihaly Kallay                                 : mrcc  (arbitrary order and MRCC methods)
   Jiri Pittner, Ondrej Demel                    : Mk-CCSD
   Frank Weinhold                                : gennbo (NPA and NBO analysis)
   Christopher J. Cramer and Donald G. Truhlar   : smd solvation model
   Lars Goerigk                                  : TD-DFT with DH, B97 family of functionals
   V. Asgeirsson, H. Jonsson                     : NEB implementation
   FAccTs GmbH                                   : IRC, NEB, NEB-TS, DLPNO-Multilevel, CI-OPT
                                                   MM, QMMM, 2- and 3-layer-ONIOM, Crystal-QMMM,
                                                   LR-CPCM, SF, NACMEs, symmetry and pop. for TD-DFT,
                                                   nearIR, NL-DFT gradient (VV10), updates on ESD,
                                                   ML-optimized integration grids
   S Lehtola, MJT Oliveira, MAL Marques          : LibXC Library
   Liviu Ungur et al                             : ANISO software


 Your calculation uses the libint2 library for the computation of 2-el integrals
 For citations please refer to: http://libint.valeyev.net

 Your ORCA version has been built with support for libXC version: 5.1.0
 For citations please refer to: https://tddft.org/programs/libxc/

 This ORCA versions uses:
   CBLAS   interface :  Fast vector & matrix operations
   LAPACKE interface :  Fast linear algebra routines
   SCALAPACK package :  Parallel linear algebra routines
   Shared memory     :  Shared parallel matrices
   BLAS/LAPACK       :  OpenBLAS 0.3.15  USE64BITINT DYNAMIC_ARCH NO_AFFINITY SkylakeX SINGLE_THREADED
        Core in use  :  SkylakeX
   Copyright (c) 2011-2014, The OpenBLAS Project


Your calculation utilizes the SMD solvation module
Please cite in your paper:
A.V. Marenich, C.J. Cramer, D.G. Truhlar J. Phys. Chem. B, 113, (2009), 6378 

XCFun DFT library Copyright 2009-2010 Ulf Ekstrom and contributors.
See http://admol.org/xcfun for more information.
This is free software; see the source code for copying conditions.
There is ABSOLUTELY NO WARRANTY; not even for MERCHANTABILITY or FITNESS FOR A PARTICULAR PURPOSE.
For details see the documentation.
Scientific users of this library should cite U. Ekstrom, L. Visscher, R. Bast, A. J. Thorvaldsen and K. Ruud;
J.Chem.Theor.Comp. 2010, DOI: 10.1021/ct100117s
XCFun Version 0.99 

================================================================================

----- Orbital basis set information -----
Your calculation utilizes the basis: aug-cc-pVTZ 
    H, B-Ne : Obtained from the ccRepo (grant-hill.group.shef.ac.uk/ccrepo) Feb. 2017
              R. A. Kendall, T. H. Dunning, Jr., R. J. Harrison, J. Chem. Phys. 96, 6796 (1992)
         He : Obtained from the ccRepo (grant-hill.group.shef.ac.uk/ccrepo) Feb. 2017
              D. E. Woon, T. H. Dunning, Jr., J. Chem. Phys. 100, 2975 (1994)
  Li-Be, Na : Obtained from the ccRepo (grant-hill.group.shef.ac.uk/ccrepo) Feb. 2017
              B. P. Prascher, D. E. Woon, K. A. Peterson, T. H. Dunning, Jr., A. K. Wilson, Theor. Chem. Acc. 128, 69 (2011)
         Mg : Obtained from the Peterson Research Group Website (tyr0.chem.wsu.edu/~kipeters) Feb. 2017
              B. P. Prascher, D. E. Woon, K. A. Peterson, T. H. Dunning, Jr., A. K. Wilson, Theor. Chem. Acc. 128, 69 (2011)
      Al-Ar : Obtained from the ccRepo (grant-hill.group.shef.ac.uk/ccrepo) Feb. 2017
              D. E. Woon, T. H. Dunning, Jr., J. Chem. Phys. 98, 1358 (1993)
      Sc-Zn : Obtained from the ccRepo (grant-hill.group.shef.ac.uk/ccrepo) Feb. 2017
              N. B. Balabanov, K. A. Peterson, J. Chem. Phys. 123, 064107 (2005)
              N. B. Balabanov, K. A. Peterson, J. Chem. Phys. 125, 074110 (2006)
      Ga-Kr : Obtained from the ccRepo (grant-hill.group.shef.ac.uk/ccrepo) Feb. 2017
              A. K. Wilson, D. E. Woon, K. A. Peterson, T. H. Dunning, Jr., J. Chem. Phys. 110, 7667 (1999)
     Ag, Au : Obtained from the Peterson Research Group Website (tyr0.chem.wsu.edu/~kipeters) Feb. 2017
              K. A. Peterson, C. Puzzarini, Theor. Chem. Acc. 114, 283 (2005)

The basis set includes element-specific modifications.

Your calculation utilizes the basis: cc-pVTZ 
       H, B-Ne : Obtained from the ccRepo (grant-hill.group.shef.ac.uk/ccrepo) Feb. 2017
                 T. H. Dunning, Jr., J. Chem. Phys. 90, 1007 (1989)
            He : Obtained from the ccRepo (grant-hill.group.shef.ac.uk/ccrepo) Feb. 2017
                 D. E. Woon, T. H. Dunning, Jr., J. Chem. Phys. 100, 2975 (1994)
  Li-Be, Na-Mg : Obtained from the ccRepo (grant-hill.group.shef.ac.uk/ccrepo) Feb. 2017
                 B. P. Prascher, D. E. Woon, K. A. Peterson, T. H. Dunning, Jr., A. K. Wilson, Theor. Chem. Acc. 128, 69 (2011)
         Al-Ar : Obtained from the ccRepo (grant-hill.group.shef.ac.uk/ccrepo) Feb. 2017
                 D. E. Woon, T. H. Dunning, Jr., J. Chem. Phys. 98, 1358 (1993)
            Ca : Obtained from the Peterson Research Group Website (tyr0.chem.wsu.edu/~kipeters) Feb. 2017
                 J. Koput, K. A. Peterson, J. Phys. Chem. 106, 9595 (2002)
         Sc-Zn : Obtained from the ccRepo (grant-hill.group.shef.ac.uk/ccrepo) Feb. 2017
                 N. B. Balabanov, K. A. Peterson, J. Chem. Phys. 123, 064107 (2005)
                 N. B. Balabanov, K. A. Peterson, J. Chem. Phys. 125, 074110 (2006)
         Ga-Kr : Obtained from the ccRepo (grant-hill.group.shef.ac.uk/ccrepo) Feb. 2017
                 A. K. Wilson, D. E. Woon, K. A. Peterson, T. H. Dunning, Jr., J. Chem. Phys. 110, 7667 (1999)
             Y : Obtained from the ccRepo (grant-hill.group.shef.ac.uk/ccrepo) Feb. 2017
                 K. A. Peterson, D. Figgen, M. Dolg, H. Stoll, J. Chem. Phys. 126, 124101 (2007)
        Ag, Au : Obtained from the Peterson Research Group Website (tyr0.chem.wsu.edu/~kipeters) Feb. 2017
                 K. A. Peterson, C. Puzzarini, Theor. Chem. Acc. 114, 283 (2005)

----- AuxJ basis set information -----
Your calculation utilizes the auxiliary basis: aug-cc-pVTZ/JK 
  H, B-F, Al-Cl, Ga-Br : Obtained from the TURBOMOLE 7.0 basis set library

The basis set includes element-specific modifications.

Your calculation utilizes the auxiliary basis: cc-pVTZ/JK 
  H, B-F, Al-Cl, Ga-Br : Obtained from the TURBOMOLE 7.0 basis set library

----- AuxC basis set information -----
Your calculation utilizes the auxiliary basis: aug-cc-pVTZ/C 
  H-He, B-F, Al-Ar, Ga-Kr : Obtained from the EMSL Basis Set Exchange (bse.pnl.gov) Feb. 2017
                            F. Weigend, A. Kohn, C. Hattig, J. Chem. Phys. 116, 3175 (2002)
                   Be, Mg : Obtained from the TURBOMOLE 7.0 basis set library
                            C. Haettig, Phys. Chem. Chem. Phys. 7, 59 (2005)
                       Ne : Obtained from the EMSL Basis Set Exchange (bse.pnl.gov) Feb. 2017
                            C. Haettig, Phys. Chem. Chem. Phys. 7, 59 (2005)
                            F. Weigend, A. Kohn, C. Hattig, J. Chem. Phys. 116, 3175 (2002)
                    Sc-Zn : Obtained from the EMSL Basis Set Exchange (bse.pnl.gov) Feb. 2017
                            J. G. Hill, J. A. Platts, J. Chem. Phys. 128, 044104 (2008)

The basis set includes element-specific modifications.

Your calculation utilizes the auxiliary basis: cc-pVTZ/C 
  Obtained from the EMSL Basis Set Exchange (bse.pnl.gov) Feb. 2017
  H-He, B-F, Al-Ar, Ga-Kr : F. Weigend, A. Kohn, C. Hattig, J. Chem. Phys. 116, 3175 (2002)
             Li-Be, Na-Mg : C. Haettig, Phys. Chem. Chem. Phys. 7, 59 (2005)
                       Ne : C. Haettig, Phys. Chem. Chem. Phys. 7, 59 (2005)
                            F. Weigend, A. Kohn, C. Hattig, J. Chem. Phys. 116, 3175 (2002)
                    Sc-Zn : J. G. Hill, J. A. Platts, J. Chem. Phys. 128, 044104 (2008)

================================================================================
                                        WARNINGS
                       Please study these warnings very carefully!
================================================================================


WARNING: Geometry Optimization
  ===> : Switching off AutoStart
         For restart on a previous wavefunction, please use MOREAD

INFO   : the flag for use of the SHARK integral package has been found!



***************************************
The coordinates will be read from file: 
***************************************


Your calculation utilizes the SMD solvation module
Please cite in your paper:
A.V. Marenich, C.J. Cramer, D.G. Truhlar J. Phys. Chem. B, 113, (2009), 6378 

XCFun DFT library Copyright 2009-2010 Ulf Ekstrom and contributors.
See http://admol.org/xcfun for more information.
This is free software; see the source code for copying conditions.
There is ABSOLUTELY NO WARRANTY; not even for MERCHANTABILITY or FITNESS FOR A PARTICULAR PURPOSE.
For details see the documentation.
Scientific users of this library should cite U. Ekstrom, L. Visscher, R. Bast, A. J. Thorvaldsen and K. Ruud;
J.Chem.Theor.Comp. 2010, DOI: 10.1021/ct100117s
XCFun Version 0.99 

================================================================================

----- Orbital basis set information -----
Your calculation utilizes the basis: aug-cc-pVTZ 
    H, B-Ne : Obtained from the ccRepo (grant-hill.group.shef.ac.uk/ccrepo) Feb. 2017
              R. A. Kendall, T. H. Dunning, Jr., R. J. Harrison, J. Chem. Phys. 96, 6796 (1992)
         He : Obtained from the ccRepo (grant-hill.group.shef.ac.uk/ccrepo) Feb. 2017
              D. E. Woon, T. H. Dunning, Jr., J. Chem. Phys. 100, 2975 (1994)
  Li-Be, Na : Obtained from the ccRepo (grant-hill.group.shef.ac.uk/ccrepo) Feb. 2017
              B. P. Prascher, D. E. Woon, K. A. Peterson, T. H. Dunning, Jr., A. K. Wilson, Theor. Chem. Acc. 128, 69 (2011)
         Mg : Obtained from the Peterson Research Group Website (tyr0.chem.wsu.edu/~kipeters) Feb. 2017
              B. P. Prascher, D. E. Woon, K. A. Peterson, T. H. Dunning, Jr., A. K. Wilson, Theor. Chem. Acc. 128, 69 (2011)
      Al-Ar : Obtained from the ccRepo (grant-hill.group.shef.ac.uk/ccrepo) Feb. 2017
              D. E. Woon, T. H. Dunning, Jr., J. Chem. Phys. 98, 1358 (1993)
      Sc-Zn : Obtained from the ccRepo (grant-hill.group.shef.ac.uk/ccrepo) Feb. 2017
              N. B. Balabanov, K. A. Peterson, J. Chem. Phys. 123, 064107 (2005)
              N. B. Balabanov, K. A. Peterson, J. Chem. Phys. 125, 074110 (2006)
      Ga-Kr : Obtained from the ccRepo (grant-hill.group.shef.ac.uk/ccrepo) Feb. 2017
              A. K. Wilson, D. E. Woon, K. A. Peterson, T. H. Dunning, Jr., J. Chem. Phys. 110, 7667 (1999)
     Ag, Au : Obtained from the Peterson Research Group Website (tyr0.chem.wsu.edu/~kipeters) Feb. 2017
              K. A. Peterson, C. Puzzarini, Theor. Chem. Acc. 114, 283 (2005)

The basis set includes element-specific modifications.

Your calculation utilizes the basis: cc-pVTZ 
       H, B-Ne : Obtained from the ccRepo (grant-hill.group.shef.ac.uk/ccrepo) Feb. 2017
                 T. H. Dunning, Jr., J. Chem. Phys. 90, 1007 (1989)
            He : Obtained from the ccRepo (grant-hill.group.shef.ac.uk/ccrepo) Feb. 2017
                 D. E. Woon, T. H. Dunning, Jr., J. Chem. Phys. 100, 2975 (1994)
  Li-Be, Na-Mg : Obtained from the ccRepo (grant-hill.group.shef.ac.uk/ccrepo) Feb. 2017
                 B. P. Prascher, D. E. Woon, K. A. Peterson, T. H. Dunning, Jr., A. K. Wilson, Theor. Chem. Acc. 128, 69 (2011)
         Al-Ar : Obtained from the ccRepo (grant-hill.group.shef.ac.uk/ccrepo) Feb. 2017
                 D. E. Woon, T. H. Dunning, Jr., J. Chem. Phys. 98, 1358 (1993)
            Ca : Obtained from the Peterson Research Group Website (tyr0.chem.wsu.edu/~kipeters) Feb. 2017
                 J. Koput, K. A. Peterson, J. Phys. Chem. 106, 9595 (2002)
         Sc-Zn : Obtained from the ccRepo (grant-hill.group.shef.ac.uk/ccrepo) Feb. 2017
                 N. B. Balabanov, K. A. Peterson, J. Chem. Phys. 123, 064107 (2005)
                 N. B. Balabanov, K. A. Peterson, J. Chem. Phys. 125, 074110 (2006)
         Ga-Kr : Obtained from the ccRepo (grant-hill.group.shef.ac.uk/ccrepo) Feb. 2017
                 A. K. Wilson, D. E. Woon, K. A. Peterson, T. H. Dunning, Jr., J. Chem. Phys. 110, 7667 (1999)
             Y : Obtained from the ccRepo (grant-hill.group.shef.ac.uk/ccrepo) Feb. 2017
                 K. A. Peterson, D. Figgen, M. Dolg, H. Stoll, J. Chem. Phys. 126, 124101 (2007)
        Ag, Au : Obtained from the Peterson Research Group Website (tyr0.chem.wsu.edu/~kipeters) Feb. 2017
                 K. A. Peterson, C. Puzzarini, Theor. Chem. Acc. 114, 283 (2005)

----- AuxJ basis set information -----
Your calculation utilizes the auxiliary basis: aug-cc-pVTZ/JK 
  H, B-F, Al-Cl, Ga-Br : Obtained from the TURBOMOLE 7.0 basis set library

The basis set includes element-specific modifications.

Your calculation utilizes the auxiliary basis: cc-pVTZ/JK 
  H, B-F, Al-Cl, Ga-Br : Obtained from the TURBOMOLE 7.0 basis set library

----- AuxC basis set information -----
Your calculation utilizes the auxiliary basis: aug-cc-pVTZ/C 
  H-He, B-F, Al-Ar, Ga-Kr : Obtained from the EMSL Basis Set Exchange (bse.pnl.gov) Feb. 2017
                            F. Weigend, A. Kohn, C. Hattig, J. Chem. Phys. 116, 3175 (2002)
                   Be, Mg : Obtained from the TURBOMOLE 7.0 basis set library
                            C. Haettig, Phys. Chem. Chem. Phys. 7, 59 (2005)
                       Ne : Obtained from the EMSL Basis Set Exchange (bse.pnl.gov) Feb. 2017
                            C. Haettig, Phys. Chem. Chem. Phys. 7, 59 (2005)
                            F. Weigend, A. Kohn, C. Hattig, J. Chem. Phys. 116, 3175 (2002)
                    Sc-Zn : Obtained from the EMSL Basis Set Exchange (bse.pnl.gov) Feb. 2017
                            J. G. Hill, J. A. Platts, J. Chem. Phys. 128, 044104 (2008)

The basis set includes element-specific modifications.

Your calculation utilizes the auxiliary basis: cc-pVTZ/C 
  Obtained from the EMSL Basis Set Exchange (bse.pnl.gov) Feb. 2017
  H-He, B-F, Al-Ar, Ga-Kr : F. Weigend, A. Kohn, C. Hattig, J. Chem. Phys. 116, 3175 (2002)
             Li-Be, Na-Mg : C. Haettig, Phys. Chem. Chem. Phys. 7, 59 (2005)
                       Ne : C. Haettig, Phys. Chem. Chem. Phys. 7, 59 (2005)
                            F. Weigend, A. Kohn, C. Hattig, J. Chem. Phys. 116, 3175 (2002)
                    Sc-Zn : J. G. Hill, J. A. Platts, J. Chem. Phys. 128, 044104 (2008)

================================================================================
                                        WARNINGS
                       Please study these warnings very carefully!
================================================================================

INFO   : Checking CIS options ...

INFO   : the flag for use of the SHARK integral package has been found!

================================================================================
                                       INPUT FILE
================================================================================
NAME = m062x-train-0.inp
|  1> ! m062x defgrid3 aug-cc-PVTZ RIJCOSX Opt
|  2> %maxcore 4000
|  3> %basis
|  4>  AuxJ "aug-cc-PVTZ/JK"
|  5>  AuxC "aug-cc-PVTZ/C"
|  6>  newGTO H "cc-PVTZ" end
|  7>  newAuxJGTO H "cc-PVTZ/JK" end
|  8>  newAuxCGTO H "cc-PVTZ/C" end
|  9> end
| 10> %cpcm
| 11>  SMD true
| 12>  SMDsolvent "benzene"
| 13> end
| 14> %pal nprocs 4 end
| 15> * xyz 0 1
| 16> C         -4.49800        0.16580        0.04130
| 17> C         -3.64810        1.25580        0.17290
| 18> C         -2.28180        1.07950        0.13650
| 19> C         -1.74760       -0.20460       -0.03390
| 20> N         -0.39610       -0.49050       -0.08470
| 21> N          0.39620        0.49240        0.06880
| 22> C          1.74770        0.20610        0.01640
| 23> C          2.61130        1.28860        0.21030
| 24> C          3.97790        1.09780        0.17750
| 25> C          4.49790       -0.16760       -0.04920
| 26> C          3.64700       -1.24720       -0.24490
| 27> C          2.28080       -1.06910       -0.21380
| 28> C         -2.61030       -1.29680       -0.16830
| 29> C         -3.97690       -1.10790       -0.12920
| 30> H         -5.56800        0.31100        0.07160
| 31> H         -4.06100        2.24580        0.30460
| 32> H         -1.60150        1.91160        0.23620
| 33> H          2.18550        2.26460        0.38580
| 34> H          4.64350        1.93500        0.32870
| 35> H          5.56780       -0.31440       -0.07400
| 36> H          4.05900       -2.23040       -0.42170
| 37> H          1.59970       -1.89300       -0.36320
| 38> H         -2.18350       -2.27940       -0.29950
| 39> H         -4.64170       -1.95310       -0.23180
| 40> *
| 41> 
| 42> 
| 43> $new_job
| 44> ! m062x defgrid3 aug-cc-PVTZ RIJCOSX SP
| 45> %maxcore 4000
| 46> %basis
| 47>  AuxJ "aug-cc-PVTZ/JK"
| 48>  AuxC "aug-cc-PVTZ/C"
| 49>  newGTO H "cc-PVTZ" end
| 50>  newAuxJGTO H "cc-PVTZ/JK" end
| 51>  newAuxCGTO H "cc-PVTZ/C" end
| 52> end
| 53> %cpcm
| 54>  SMD true
| 55>  SMDsolvent "benzene"
| 56> end
| 57> %pal nprocs 4 end
| 58> %tddft
| 59>  nroots 10
| 60>  maxdim 7
| 61> end
| 62> * xyzfile 0 1
| 63> 
| 64>                          ****END OF INPUT****
================================================================================


                 $$$$$$$$$$$$$$$$$$$$$$$$$$$$$$$$$$$$$$$$$$$$$$ 
                 $ THERE ARE  2 JOBS TO BE PROCESSED THIS RUN $
                 $$$$$$$$$$$$$$$$$$$$$$$$$$$$$$$$$$$$$$$$$$$$$$ 




                 $$$$$$$$$$$$$$$$  JOB NUMBER  1 $$$$$$$$$$$$$$


                       *****************************
                       * Geometry Optimization Run *
                       *****************************

Geometry optimization settings:
Update method            Update   .... BFGS
Choice of coordinates    CoordSys .... Z-matrix Internals
Initial Hessian          InHess   .... Almoef's Model

Convergence Tolerances:
Energy Change            TolE     ....  5.0000e-06 Eh
Max. Gradient            TolMAXG  ....  3.0000e-04 Eh/bohr
RMS Gradient             TolRMSG  ....  1.0000e-04 Eh/bohr
Max. Displacement        TolMAXD  ....  4.0000e-03 bohr
RMS Displacement         TolRMSD  ....  2.0000e-03 bohr
Strict Convergence                ....  False
------------------------------------------------------------------------------
                        ORCA OPTIMIZATION COORDINATE SETUP
------------------------------------------------------------------------------

The optimization will be done in new redundant internal coordinates
Making redundant internal coordinates   ...  (new redundants) done
Evaluating the initial hessian          ...  (Almloef) done
Evaluating the coordinates              ...  done
Calculating the B-matrix                .... done
Calculating the G-matrix                .... done
Diagonalizing the G-matrix              .... done
Small eigenvalue found = 3.794e-03
Small eigenvalue found = 1.454e-02
Small eigenvalue found = 2.593e-02
Small eigenvalue found = 2.847e-02
The first mode is                       ....   50
The number of degrees of freedom        ....   66

    -----------------------------------------------------------------
                    Redundant Internal Coordinates


    -----------------------------------------------------------------
         Definition                    Initial Value    Approx d2E/dq
    -----------------------------------------------------------------
      1. B(C   1,C   0)                  1.3884         0.628402   
      2. B(C   2,C   1)                  1.3781         0.652696   
      3. B(C   3,C   2)                  1.4012         0.599645   
      4. B(N   4,C   3)                  1.3823         0.575562   
      5. B(N   5,N   4)                  1.2718         0.773827   
      6. B(C   6,N   5)                  1.3825         0.575261   
      7. B(C   7,C   6)                  1.3983         0.606061   
      8. B(C   8,C   7)                  1.3802         0.647593   
      9. B(C   9,C   8)                  1.3867         0.632339   
     10. B(C  10,C   9)                  1.3885         0.628304   
     11. B(C  11,C  10)                  1.3781         0.652690   
     12. B(C  11,C   6)                  1.4012         0.599642   
     13. B(C  12,C   3)                  1.3983         0.606055   
     14. B(C  13,C  12)                  1.3801         0.647824   
     15. B(C  13,C   0)                  1.3867         0.632425   
     16. B(H  14,C   0)                  1.0802         0.373256   
     17. B(H  15,C   1)                  1.0807         0.372603   
     18. B(H  16,C   2)                  1.0794         0.374377   
     19. B(H  17,C   7)                  1.0792         0.374668   
     20. B(H  18,C   8)                  1.0802         0.373328   
     21. B(H  19,C   9)                  1.0802         0.373288   
     22. B(H  20,C  10)                  1.0806         0.372760   
     23. B(H  21,C  11)                  1.0794         0.374447   
     24. B(H  22,C  12)                  1.0793         0.374546   
     25. B(H  23,C  13)                  1.0802         0.373290   
     26. A(C   1,C   0,H  14)          119.8775         0.355873   
     27. A(C  13,C   0,H  14)          119.9429         0.356259   
     28. A(C   1,C   0,C  13)          120.1795         0.436677   
     29. A(C   0,C   1,H  15)          119.7913         0.355767   
     30. A(C   0,C   1,C   2)          120.2616         0.439168   
     31. A(C   2,C   1,H  15)          119.9471         0.358067   
     32. A(C   1,C   2,C   3)          119.8964         0.435476   
     33. A(C   3,C   2,H  16)          118.5167         0.353238   
     34. A(C   1,C   2,H  16)          121.5869         0.358357   
     35. A(N   4,C   3,C  12)          115.9841         0.423786   
     36. A(C   2,C   3,N   4)          124.5240         0.422981   
     37. A(C   2,C   3,C  12)          119.4917         0.429710   
     38. A(C   3,N   4,N   5)          116.4112         0.436968   
     39. A(N   4,N   5,C   6)          116.3850         0.436927   
     40. A(C   7,C   6,C  11)          119.4956         0.429710   
     41. A(N   5,C   6,C  11)          124.5158         0.422941   
     42. A(N   5,C   6,C   7)          115.9886         0.423747   
     43. A(C   8,C   7,H  17)          121.3008         0.357926   
     44. A(C   6,C   7,H  17)          118.6201         0.353922   
     45. A(C   6,C   7,C   8)          120.0791         0.435695   
     46. A(C   9,C   8,H  18)          119.9381         0.356262   
     47. A(C   7,C   8,H  18)          119.9758         0.357708   
     48. A(C   7,C   8,C   9)          120.0861         0.439041   
     49. A(C  10,C   9,H  19)          119.8729         0.355869   
     50. A(C   8,C   9,H  19)          119.9448         0.356256   
     51. A(C   8,C   9,C  10)          120.1823         0.436654   
     52. A(C   9,C  10,H  20)          119.7931         0.355783   
     53. A(C   9,C  10,C  11)          120.2562         0.439155   
     54. A(C  11,C  10,H  20)          119.9508         0.358092   
     55. A(C   6,C  11,C  10)          119.9006         0.435474   
     56. A(C  10,C  11,H  21)          121.5871         0.358368   
     57. A(C   6,C  11,H  21)          118.5122         0.353249   
     58. A(C  13,C  12,H  22)          121.3063         0.357928   
     59. A(C   3,C  12,H  22)          118.6088         0.353901   
     60. A(C   3,C  12,C  13)          120.0847         0.435722   
     61. A(C  12,C  13,H  23)          119.9744         0.357723   
     62. A(C   0,C  13,H  23)          119.9398         0.356264   
     63. A(C   0,C  13,C  12)          120.0858         0.439080   
     64. D(C   2,C   1,C   0,C  13)     -0.0712         0.027371   
     65. D(H  15,C   1,C   0,C  13)    179.9449         0.027371   
     66. D(C   2,C   1,C   0,H  14)    179.9468         0.027371   
     67. D(H  15,C   1,C   0,H  14)     -0.0372         0.027371   
     68. D(H  16,C   2,C   1,H  15)     -0.0436         0.029679   
     69. D(C   3,C   2,C   1,C   0)     -0.0032         0.029679   
     70. D(C   3,C   2,C   1,H  15)    179.9808         0.029679   
     71. D(H  16,C   2,C   1,C   0)    179.9724         0.029679   
     72. D(C  12,C   3,C   2,H  16)   -179.8497         0.024787   
     73. D(C  12,C   3,C   2,C   1)      0.1266         0.024787   
     74. D(N   4,C   3,C   2,C   1)    179.9769         0.024787   
     75. D(N   4,C   3,C   2,H  16)      0.0005         0.024787   
     76. D(N   5,N   4,C   3,C  12)   -178.3685         0.024072   
     77. D(N   5,N   4,C   3,C   2)      1.7765         0.024072   
     78. D(C   6,N   5,N   4,C   3)   -179.9298         0.047896   
     79. D(C  11,C   6,N   5,N   4)      1.1500         0.024045   
     80. D(C   7,C   6,N   5,N   4)   -178.8836         0.024045   
     81. D(H  17,C   7,C   6,C  11)    179.9578         0.025349   
     82. D(H  17,C   7,C   6,N   5)     -0.0104         0.025349   
     83. D(C   8,C   7,C   6,C  11)     -0.1475         0.025349   
     84. D(C   8,C   7,C   6,N   5)    179.8843         0.025349   
     85. D(H  18,C   8,C   7,H  17)     -0.0334         0.029185   
     86. D(H  18,C   8,C   7,C   6)   -179.9252         0.029185   
     87. D(C   9,C   8,C   7,H  17)    179.9588         0.029185   
     88. D(C   9,C   8,C   7,C   6)      0.0670         0.029185   
     89. D(H  19,C   9,C   8,H  18)      0.0173         0.027737   
     90. D(H  19,C   9,C   8,C   7)   -179.9749         0.027737   
     91. D(C  10,C   9,C   8,H  18)   -179.9657         0.027737   
     92. D(C  10,C   9,C   8,C   7)      0.0422         0.027737   
     93. D(C  11,C  10,C   9,H  19)    179.9471         0.027362   
     94. D(C  11,C  10,C   9,C   8)     -0.0700         0.027362   
     95. D(H  20,C  10,C   9,H  19)     -0.0233         0.027362   
     96. D(H  20,C  10,C   9,C   8)    179.9597         0.027362   
     97. D(H  21,C  11,C  10,H  20)     -0.0312         0.029679   
     98. D(H  21,C  11,C  10,C   9)    179.9984         0.029679   
     99. D(C   6,C  11,C  10,H  20)    179.9586         0.029679   
    100. D(C   6,C  11,C  10,C   9)     -0.0117         0.029679   
    101. D(H  21,C  11,C   6,C   7)   -179.8901         0.024786   
    102. D(H  21,C  11,C   6,N   5)      0.0753         0.024786   
    103. D(C  10,C  11,C   6,C   7)      0.1197         0.024786   
    104. D(C  10,C  11,C   6,N   5)   -179.9149         0.024786   
    105. D(H  22,C  12,C   3,N   4)      0.0974         0.025349   
    106. D(H  22,C  12,C   3,C   2)    179.9601         0.025349   
    107. D(C  13,C  12,C   3,N   4)    179.9598         0.025349   
    108. D(C  13,C  12,C   3,C   2)     -0.1775         0.025349   
    109. D(H  23,C  13,C  12,H  22)     -0.0543         0.029207   
    110. D(H  23,C  13,C  12,C   3)   -179.9129         0.029207   
    111. D(C   0,C  13,C  12,H  22)    179.9631         0.029207   
    112. D(C   0,C  13,C  12,C   3)      0.1045         0.029207   
    113. D(H  23,C  13,C   0,H  14)      0.0196         0.027745   
    114. D(H  23,C  13,C   0,C   1)   -179.9624         0.027745   
    115. D(C  12,C  13,C   0,H  14)   -179.9978         0.027745   
    116. D(C  12,C  13,C   0,C   1)      0.0202         0.027745   
    -----------------------------------------------------------------

Number of atoms                         .... 24
Number of degrees of freedom            .... 116

         *************************************************************
         *                GEOMETRY OPTIMIZATION CYCLE   1            *
         *************************************************************
---------------------------------
CARTESIAN COORDINATES (ANGSTROEM)
---------------------------------
  C     -4.498000    0.165800    0.041300
  C     -3.648100    1.255800    0.172900
  C     -2.281800    1.079500    0.136500
  C     -1.747600   -0.204600   -0.033900
  N     -0.396100   -0.490500   -0.084700
  N      0.396200    0.492400    0.068800
  C      1.747700    0.206100    0.016400
  C      2.611300    1.288600    0.210300
  C      3.977900    1.097800    0.177500
  C      4.497900   -0.167600   -0.049200
  C      3.647000   -1.247200   -0.244900
  C      2.280800   -1.069100   -0.213800
  C     -2.610300   -1.296800   -0.168300
  C     -3.976900   -1.107900   -0.129200
  H     -5.568000    0.311000    0.071600
  H     -4.061000    2.245800    0.304600
  H     -1.601500    1.911600    0.236200
  H      2.185500    2.264600    0.385800
  H      4.643500    1.935000    0.328700
  H      5.567800   -0.314400   -0.074000
  H      4.059000   -2.230400   -0.421700
  H      1.599700   -1.893000   -0.363200
  H     -2.183500   -2.279400   -0.299500
  H     -4.641700   -1.953100   -0.231800

----------------------------
CARTESIAN COORDINATES (A.U.)
----------------------------
  NO LB      ZA    FRAG     MASS         X           Y           Z
   0 C     6.0000    0    12.011   -8.499988    0.313317    0.078046
   1 C     6.0000    0    12.011   -6.893910    2.373118    0.326734
   2 C     6.0000    0    12.011   -4.311977    2.039959    0.257948
   3 C     6.0000    0    12.011   -3.302485   -0.386638   -0.064062
   4 N     7.0000    0    14.007   -0.748521   -0.926911   -0.160060
   5 N     7.0000    0    14.007    0.748709    0.930501    0.130013
   6 C     6.0000    0    12.011    3.302674    0.389473    0.030992
   7 C     6.0000    0    12.011    4.934642    2.435101    0.397409
   8 C     6.0000    0    12.011    7.517142    2.074541    0.335426
   9 C     6.0000    0    12.011    8.499799   -0.316718   -0.092975
  10 C     6.0000    0    12.011    6.891831   -2.356866   -0.462794
  11 C     6.0000    0    12.011    4.310087   -2.020306   -0.404023
  12 C     6.0000    0    12.011   -4.932752   -2.450597   -0.318041
  13 C     6.0000    0    12.011   -7.515252   -2.093628   -0.244153
  14 H     1.0000    0     1.008  -10.521995    0.587705    0.135304
  15 H     1.0000    0     1.008   -7.674178    4.243947    0.575611
  16 H     1.0000    0     1.008   -3.026396    3.612400    0.446353
  17 H     1.0000    0     1.008    4.129996    4.279474    0.729056
  18 H     1.0000    0     1.008    8.774943    3.656620    0.621153
  19 H     1.0000    0     1.008   10.521617   -0.594130   -0.139840
  20 H     1.0000    0     1.008    7.670398   -4.214845   -0.796898
  21 H     1.0000    0     1.008    3.022995   -3.577252   -0.686349
  22 H     1.0000    0     1.008   -4.126217   -4.307442   -0.565973
  23 H     1.0000    0     1.008   -8.771542   -3.690824   -0.438039

--------------------------------
INTERNAL COORDINATES (ANGSTROEM)
--------------------------------
 C      0   0   0     0.000000000000     0.00000000     0.00000000
 C      1   0   0     1.388433855104     0.00000000     0.00000000
 C      2   1   0     1.378108246837   120.26157454     0.00000000
 C      3   2   1     1.401184716588   119.89640254     0.00000000
 N      4   3   2     1.382342830126   124.52403695   179.97687066
 N      5   4   3     1.271768040957   116.41118021     1.77653303
 C      6   5   4     1.382485334461   116.38500841   180.07018789
 C      7   6   5     1.398287674264   115.98861298   181.11643585
 C      8   7   6     1.380244920295   120.07905042   179.88429380
 C      9   8   7     1.386733590132   120.08610835     0.06697544
 C     10   9   8     1.388475948657   120.18227578     0.04216527
 C     11  10   9     1.378110757523   120.25618147   359.93004310
 C      4   3   2     1.398290202354   119.49174315     0.12664993
 C     13   4   3     1.380147666013   120.08473803   359.82250539
 H      1   2   3     1.080231979715   119.87754285   179.94681108
 H      2   1   3     1.080708702658   119.79130019   180.01602508
 H      3   2   1     1.079415855915   121.58685731   179.97242509
 H      8   7   6     1.079204285573   118.62008240     0.00000000
 H      9   8   7     1.080179910941   119.97583724   180.07479857
 H     10   9   8     1.080208910350   119.94480258   180.02507930
 H     11  10   9     1.080594503040   119.79305369   179.95965072
 H     12  11  10     1.079364989241   121.58711090   179.99840511
 H     13   4   3     1.079293491132   118.60879550   179.96013143
 H     14  13   4     1.080207776310   119.97438081   180.08710608

---------------------------
INTERNAL COORDINATES (A.U.)
---------------------------
 C      0   0   0     0.000000000000     0.00000000     0.00000000
 C      1   0   0     2.623759741212     0.00000000     0.00000000
 C      2   1   0     2.604247169420   120.26157454     0.00000000
 C      3   2   1     2.647855377388   119.89640254     0.00000000
 N      4   3   2     2.612249372127   124.52403695   179.97687066
 N      5   4   3     2.403293303283   116.41118021     1.77653303
 C      6   5   4     2.612518666294   116.38500841   180.07018789
 C      7   6   5     2.642380760798   115.98861298   181.11643585
 C      8   7   6     2.608284897093   120.07905042   179.88429380
 C      9   8   7     2.620546706059   120.08610835     0.06697544
 C     10   9   8     2.623839286499   120.18227578     0.04216527
 C     11  10   9     2.604251913929   120.25618147   359.93004310
 C      4   3   2     2.642385538195   119.49174315     0.12664993
 C     13   4   3     2.608101113134   120.08473803   359.82250539
 H      1   2   3     2.041342602766   119.87754285   179.94681108
 H      2   1   3     2.042243478568   119.79130019   180.01602508
 H      3   2   1     2.039800352291   121.58685731   179.97242509
 H      8   7   6     2.039400542288   118.62008240     0.00000000
 H      9   8   7     2.041244207041   119.97583724   180.07479857
 H     10   9   8     2.041299007983   119.94480258   180.02507930
 H     11  10   9     2.042027672566   119.79305369   179.95965072
 H     12  11  10     2.039704228209   121.58711090   179.99840511
 H     13   4   3     2.039569116363   118.60879550   179.96013143
 H     14  13   4     2.041296864957   119.97438081   180.08710608

---------------------
BASIS SET INFORMATION
---------------------
There are 3 groups of distinct atoms

 Group   1 Type C   : 19s6p3d2f contracted to 5s4p3d2f pattern {88111/3111/111/11}
 Group   2 Type N   : 19s6p3d2f contracted to 5s4p3d2f pattern {88111/3111/111/11}
 Group   3 Type H   : 5s2p1d contracted to 3s2p1d pattern {311/11/1}

Atom   0C    basis set group =>   1
Atom   1C    basis set group =>   1
Atom   2C    basis set group =>   1
Atom   3C    basis set group =>   1
Atom   4N    basis set group =>   2
Atom   5N    basis set group =>   2
Atom   6C    basis set group =>   1
Atom   7C    basis set group =>   1
Atom   8C    basis set group =>   1
Atom   9C    basis set group =>   1
Atom  10C    basis set group =>   1
Atom  11C    basis set group =>   1
Atom  12C    basis set group =>   1
Atom  13C    basis set group =>   1
Atom  14H    basis set group =>   3
Atom  15H    basis set group =>   3
Atom  16H    basis set group =>   3
Atom  17H    basis set group =>   3
Atom  18H    basis set group =>   3
Atom  19H    basis set group =>   3
Atom  20H    basis set group =>   3
Atom  21H    basis set group =>   3
Atom  22H    basis set group =>   3
Atom  23H    basis set group =>   3
---------------------------------
AUXILIARY/J BASIS SET INFORMATION
---------------------------------
There are 3 groups of distinct atoms

 Group   1 Type C   : 10s7p5d2f1g contracted to 10s7p5d2f1g pattern {1111111111/1111111/11111/11/1}
 Group   2 Type N   : 10s7p5d2f1g contracted to 10s7p5d2f1g pattern {1111111111/1111111/11111/11/1}
 Group   3 Type H   : 4s3p2d1f contracted to 4s3p2d1f pattern {1111/111/11/1}

Atom   0C    basis set group =>   1
Atom   1C    basis set group =>   1
Atom   2C    basis set group =>   1
Atom   3C    basis set group =>   1
Atom   4N    basis set group =>   2
Atom   5N    basis set group =>   2
Atom   6C    basis set group =>   1
Atom   7C    basis set group =>   1
Atom   8C    basis set group =>   1
Atom   9C    basis set group =>   1
Atom  10C    basis set group =>   1
Atom  11C    basis set group =>   1
Atom  12C    basis set group =>   1
Atom  13C    basis set group =>   1
Atom  14H    basis set group =>   3
Atom  15H    basis set group =>   3
Atom  16H    basis set group =>   3
Atom  17H    basis set group =>   3
Atom  18H    basis set group =>   3
Atom  19H    basis set group =>   3
Atom  20H    basis set group =>   3
Atom  21H    basis set group =>   3
Atom  22H    basis set group =>   3
Atom  23H    basis set group =>   3
---------------------------------
AUXILIARY/C BASIS SET INFORMATION
---------------------------------
There are 3 groups of distinct atoms

 Group   1 Type C   : 9s7p6d4f2g contracted to 9s7p6d4f2g pattern {111111111/1111111/111111/1111/11}
 Group   2 Type N   : 9s7p6d4f2g contracted to 9s7p6d4f2g pattern {111111111/1111111/111111/1111/11}
 Group   3 Type H   : 4s3p2d1f contracted to 4s3p2d1f pattern {1111/111/11/1}

Atom   0C    basis set group =>   1
Atom   1C    basis set group =>   1
Atom   2C    basis set group =>   1
Atom   3C    basis set group =>   1
Atom   4N    basis set group =>   2
Atom   5N    basis set group =>   2
Atom   6C    basis set group =>   1
Atom   7C    basis set group =>   1
Atom   8C    basis set group =>   1
Atom   9C    basis set group =>   1
Atom  10C    basis set group =>   1
Atom  11C    basis set group =>   1
Atom  12C    basis set group =>   1
Atom  13C    basis set group =>   1
Atom  14H    basis set group =>   3
Atom  15H    basis set group =>   3
Atom  16H    basis set group =>   3
Atom  17H    basis set group =>   3
Atom  18H    basis set group =>   3
Atom  19H    basis set group =>   3
Atom  20H    basis set group =>   3
Atom  21H    basis set group =>   3
Atom  22H    basis set group =>   3
Atom  23H    basis set group =>   3


           ************************************************************
           *        Program running with 4 parallel MPI-processes     *
           *              working on a common directory               *
           ************************************************************
------------------------------------------------------------------------------
                           ORCA GTO INTEGRAL CALCULATION
                           -- RI-GTO INTEGRALS CHOSEN --
------------------------------------------------------------------------------
------------------------------------------------------------------------------
                   ___                                                        
                  /   \      - P O W E R E D   B Y -                         
                 /     \                                                     
                 |  |  |   _    _      __       _____    __    __             
                 |  |  |  | |  | |    /  \     |  _  \  |  |  /  |          
                  \  \/   | |  | |   /    \    | | | |  |  | /  /          
                 / \  \   | |__| |  /  /\  \   | |_| |  |  |/  /          
                |  |  |   |  __  | /  /__\  \  |    /   |      \           
                |  |  |   | |  | | |   __   |  |    \   |  |\   \          
                \     /   | |  | | |  |  |  |  | |\  \  |  | \   \       
                 \___/    |_|  |_| |__|  |__|  |_| \__\ |__|  \__/        
                                                                              
                      - O R C A' S   B I G   F R I E N D -                    
                                      &                                       
                       - I N T E G R A L  F E E D E R -                       
                                                                              
 v1 FN, 2020, v2 2021                                                         
------------------------------------------------------------------------------


Reading SHARK input file m062x-train-0.SHARKINP.tmp ... ok
----------------------
SHARK INTEGRAL PACKAGE
----------------------

Number of atoms                             ...     24
Number of basis functions                   ...    868
Number of shells                            ...    340
Maximum angular momentum                    ...      3
Integral batch strategy                     ... SHARK/LIBINT Hybrid
RI-J (if used) integral strategy            ... SPLIT-RIJ (Revised 2003 algorithm where possible)
Printlevel                                  ...      1
Contraction scheme used                     ... PARTIAL GENERAL contraction
Coulomb Range Separation                    ... NOT USED
Exchange Range Separation                   ... NOT USED
Finite Nucleus Model                        ... NOT USED
Auxiliary Coulomb fitting basis             ... AVAILABLE
   # of basis functions in Aux-J            ...   1406
   # of shells in Aux-J                     ...    450
   Maximum angular momentum in Aux-J        ...      4
Auxiliary J/K fitting basis                 ... NOT available
Auxiliary Correlation fitting basis         ... AVAILABLE
   # of basis functions in Aux-C            ...   1784
   # of shells in Aux-C                     ...    492
   Maximum angular momentum in Aux-C        ...      4
Auxiliary 'external' fitting basis          ... NOT available
Integral threshold                          ...     2.500000e-11
Primitive cut-off                           ...     2.500000e-12
Primitive pair pre-selection threshold      ...     2.500000e-12

Calculating pre-screening integrals         ... done (  0.1 sec) Dimension = 340
Calculating pre-screening integrals (ORCA)  ... done (  0.3 sec) Dimension = 256
Organizing shell pair data                  ... done (  0.9 sec)
Shell pair information
Total number of shell pairs                 ...     57970
Shell pairs after pre-screening             ...     40430
Total number of primitive shell pairs       ...     75538
Primitive shell pairs kept                  ...     47956
          la=0 lb=0:   9392 shell pairs
          la=1 lb=0:  10268 shell pairs
          la=1 lb=1:   2452 shell pairs
          la=2 lb=0:   6858 shell pairs
          la=2 lb=1:   3264 shell pairs
          la=2 lb=2:   1129 shell pairs
          la=3 lb=0:   3724 shell pairs
          la=3 lb=1:   1778 shell pairs
          la=3 lb=2:   1212 shell pairs
          la=3 lb=3:    353 shell pairs

Calculating one electron integrals          ... done (  0.1 sec)
Calculating RI/J V-Matrix + Cholesky decomp.... done (  0.3 sec)
Calculating RI/C V-Matrix + Cholesky decomp.... done (  0.2 sec)
Calculating Nuclear repulsion               ... done (  0.0 sec) ENN=    754.763724847319 Eh

SHARK setup successfully completed in   3.9 seconds

Maximum memory used throughout the entire GTOINT-calculation: 62.7 MB


           ************************************************************
           *        Program running with 4 parallel MPI-processes     *
           *              working on a common directory               *
           ************************************************************
-------------------------------------------------------------------------------
                                 ORCA SCF
-------------------------------------------------------------------------------

------------
SCF SETTINGS
------------
Hamiltonian:
 Density Functional     Method          .... DFT(GTOs)
 Exchange Functional    Exchange        .... M062X
 Correlation Functional Correlation     .... M062X
 Gradients option       PostSCFGGA      .... off
 Hybrid DFT is turned on
   Fraction HF Exchange ScalHFX         ....  0.540000
   Scaling of DF-GGA-X  ScalDFX         ....  0.460000
   Scaling of DF-GGA-C  ScalDFC         ....  1.000000
   Scaling of DF-LDA-C  ScalLDAC        ....  1.000000
   Perturbative correction              ....  0.000000
   Density functional embedding theory  .... OFF
 RI-approximation to the Coulomb term is turned on
   Number of AuxJ basis functions       .... 1406
   RIJ-COSX (HFX calculated with COS-X)).... on


General Settings:
 Integral files         IntName         .... m062x-train-0
 Hartree-Fock type      HFTyp           .... RHF
 Total Charge           Charge          ....    0
 Multiplicity           Mult            ....    1
 Number of Electrons    NEL             ....   96
 Basis Dimension        Dim             ....  784
 Nuclear Repulsion      ENuc            ....    754.7637248473 Eh

Convergence Acceleration:
 DIIS                   CNVDIIS         .... on
   Start iteration      DIISMaxIt       ....    12
   Startup error        DIISStart       ....  0.200000
   # of expansion vecs  DIISMaxEq       ....     5
   Bias factor          DIISBfac        ....   1.050
   Max. coefficient     DIISMaxC        ....  10.000
 Trust-Rad. Augm. Hess. CNVTRAH         .... auto
   Auto Start mean grad. ratio tolernc. ....  1.125000
   Auto Start start iteration           ....    20
   Auto Start num. interpolation iter.  ....    10
   Max. Number of Micro iterations      ....    16
   Max. Number of Macro iterations      .... Maxiter - #DIIS iter
   Number of Davidson start vectors     ....     2
   Converg. threshold I  (grad. norm)   ....   1.000e-05
   Converg. threshold II (energy diff.) ....   1.000e-08
   Grad. Scal. Fac. for Micro threshold ....   0.100
   Minimum threshold for Micro iter.    ....   0.010
   NR start threshold (gradient norm)   ....   0.001
   Initial trust radius                 ....   0.400
   Minimum AH scaling param. (alpha)    ....   1.000
   Maximum AH scaling param. (alpha)    .... 1000.000
   Orbital update algorithm             .... Taylor
   White noise on init. David. guess    .... on
   Maximum white noise                  ....   0.010
   Quad. conv. algorithm                .... NR
 SOSCF                  CNVSOSCF        .... on
   Start iteration      SOSCFMaxIt      ....   150
   Startup grad/error   SOSCFStart      ....  0.003300
 Level Shifting         CNVShift        .... on
   Level shift para.    LevelShift      ....    0.2500
   Turn off err/grad.   ShiftErr        ....    0.0010
 Zerner damping         CNVZerner       .... off
 Static damping         CNVDamp         .... on
   Fraction old density DampFac         ....    0.7000
   Max. Damping (<1)    DampMax         ....    0.9800
   Min. Damping (>=0)   DampMin         ....    0.0000
   Turn off err/grad.   DampErr         ....    0.1000
 Fernandez-Rico         CNVRico         .... off

SCF Procedure:
 Maximum # iterations   MaxIter         ....   125
 SCF integral mode      SCFMode         .... Direct
   Integral package                     .... SHARK and LIBINT hybrid scheme
 Reset frequency        DirectResetFreq ....    20
 Integral Threshold     Thresh          ....  2.500e-11 Eh
 Primitive CutOff       TCut            ....  2.500e-12 Eh

Convergence Tolerance:
 Convergence Check Mode ConvCheckMode   .... Total+1el-Energy
 Convergence forced     ConvForced      .... 0
 Energy Change          TolE            ....  1.000e-08 Eh
 1-El. energy change                    ....  1.000e-05 Eh
 Orbital Gradient       TolG            ....  1.000e-05
 Orbital Rotation angle TolX            ....  1.000e-05
 DIIS Error             TolErr          ....  5.000e-07


Diagonalization of the overlap matrix:
Smallest eigenvalue                        ... 1.183e-06
Time for diagonalization                   ...    0.176 sec
Threshold for overlap eigenvalues          ... 1.000e-08
Number of eigenvalues below threshold      ... 0
Time for construction of square roots      ...    0.096 sec
Total time needed                          ...    0.275 sec

Time for model grid setup =    0.760 sec

------------------------------
INITIAL GUESS: MODEL POTENTIAL
------------------------------
Loading Hartree-Fock densities                     ... done
Calculating cut-offs                               ... done
Initializing the effective Hamiltonian             ... done
Setting up the integral package (SHARK)            ... done
Starting the Coulomb interaction                   ... done (   1.5 sec)
Reading the grid                                   ... done
Mapping shells                                     ... done
Starting the XC term evaluation                    ... done (   1.1 sec)
  promolecular density results
     # of electrons  =     95.993679595
     EX              =    -77.397727581
     EC              =     -3.194484167
     EX+EC           =    -80.592211747
Transforming the Hamiltonian                       ... done (   0.1 sec)
Diagonalizing the Hamiltonian                      ... done (   0.2 sec)
Back transforming the eigenvectors                 ... done (   0.0 sec)
Now organizing SCF variables                       ... done
                      ------------------
                      INITIAL GUESS DONE (   3.7 sec)
                      ------------------
-------------------
DFT GRID GENERATION
-------------------

General Integration Accuracy     IntAcc      ... 4.959
Radial Grid Type                 RadialGrid  ... OptM3 with GC (2021)
Angular Grid (max. ang.)         AngularGrid ... 6 (Lebedev-590)
Angular grid pruning method      GridPruning ... 4 (adaptive)
Weight generation scheme         WeightScheme... Becke
Basis function cutoff            BFCut       ... 1.0000e-11
Integration weight cutoff        WCut        ... 1.0000e-14
Angular grids for H and He will be reduced by one unit
Partially contracted basis set               ... off
Rotationally invariant grid construction     ... off

Total number of grid points                  ...   293331
Total number of batches                      ...     4595
Average number of points per batch           ...       63
Average number of grid points per atom       ...    12222
Time for grid setup =    4.627 sec

--------------------
COSX GRID GENERATION
--------------------

GRIDX 1
-------
General Integration Accuracy     IntAcc      ... 4.020
Radial Grid Type                 RadialGrid  ... OptM3 with GC (2021)
Angular Grid (max. ang.)         AngularGrid ... 2 (Lebedev-110)
Angular grid pruning method      GridPruning ... 4 (adaptive)
Weight generation scheme         WeightScheme... Becke
Basis function cutoff            BFCut       ... 1.0000e-11
Integration weight cutoff        WCut        ... 1.0000e-14
Angular grids for H and He will be reduced by one unit
Partially contracted basis set               ... on
Rotationally invariant grid construction     ... off

Total number of grid points                  ...    36690
Total number of batches                      ...      583
Average number of points per batch           ...       62
Average number of grid points per atom       ...     1529
UseSFitting                                  ... on

GRIDX 2
-------
General Integration Accuracy     IntAcc      ... 4.338
Radial Grid Type                 RadialGrid  ... OptM3 with GC (2021)
Angular Grid (max. ang.)         AngularGrid ... 3 (Lebedev-194)
Angular grid pruning method      GridPruning ... 4 (adaptive)
Weight generation scheme         WeightScheme... Becke
Basis function cutoff            BFCut       ... 1.0000e-11
Integration weight cutoff        WCut        ... 1.0000e-14
Angular grids for H and He will be reduced by one unit
Partially contracted basis set               ... on
Rotationally invariant grid construction     ... off

Total number of grid points                  ...    79133
Total number of batches                      ...     1248
Average number of points per batch           ...       63
Average number of grid points per atom       ...     3297
UseSFitting                                  ... on

GRIDX 3
-------
General Integration Accuracy     IntAcc      ... 4.871
Radial Grid Type                 RadialGrid  ... OptM3 with GC (2021)
Angular Grid (max. ang.)         AngularGrid ... 4 (Lebedev-302)
Angular grid pruning method      GridPruning ... 4 (adaptive)
Weight generation scheme         WeightScheme... Becke
Basis function cutoff            BFCut       ... 1.0000e-11
Integration weight cutoff        WCut        ... 1.0000e-14
Angular grids for H and He will be reduced by one unit
Partially contracted basis set               ... on
Rotationally invariant grid construction     ... off

Total number of grid points                  ...   145900
Total number of batches                      ...     2293
Average number of points per batch           ...       63
Average number of grid points per atom       ...     6079
UseSFitting                                  ... on

Time for X-Grid setup             =    6.242 sec


--------------------
CPCM SOLVATION MODEL
--------------------
CPCM parameters:
  Epsilon                                         ...       2.2706
  Refrac                                          ...       1.5011
  Rsolv                                           ...       1.3000
  Surface type                                    ... GAUSSIAN VDW
  Epsilon function type                           ...         CPCM
Solvent:                                     ... BENZENE
SMD-CDS solvent descriptors:
  Soln                                       ...    1.5011
  Soln25                                     ...    1.4972
  Sola                                       ...    0.0000
  Solb                                       ...    0.1400
  Solg                                       ...   40.6200
  Solc                                       ...    1.0000
  Solh                                       ...    0.0000
Radii:
 Radius for C  used is    3.4960 Bohr (=   1.8500 Ang.)
 Radius for N  used is    3.5716 Bohr (=   1.8900 Ang.)
 Radius for H  used is    2.2677 Bohr (=   1.2000 Ang.)
Calculating surface                               ...        done! (  0.0s)
GEPOL surface points                              ...         1407
GEPOL Volume                                      ...    1324.4442
GEPOL Surface-area                                ...     771.4012
Calculating surface distance matrix               ...        done! (  0.0s)
Performing Cholesky decomposition & store         ...        done! (  0.1s)
Overall time for CPCM initialization              ...                 0.1s
 re-compute Schwartz prescreening matrix in partically contracted basis (1) ...done (   0.177 sec)
--------------
SCF ITERATIONS
--------------
ITER       Energy         Delta-E        Max-DP      RMS-DP      [F,P]     Damp
               ***  Starting incremental Fock matrix formation  ***
  0   -572.4271495574   0.000000000000 0.08269487  0.00109523  0.1405168 0.7000
  1   -572.5451224351  -0.117972877678 0.07274518  0.00088735  0.0817101 0.7000
                               ***Turning on DIIS***
  2   -572.6076150042  -0.062492569133 0.18675518  0.00213358  0.0433672 0.0000
  3   -572.7081618822  -0.100546878001 0.05231128  0.00050931  0.0352464 0.0000
  4   -572.7233302601  -0.015168377926 0.00767960  0.00013850  0.0057799 0.0000
                      *** Initiating the SOSCF procedure ***
                           *** Shutting down DIIS ***
                      *** Re-Reading the Fockian *** 
                      *** Removing any level shift *** 
ITER      Energy       Delta-E        Grad      Rot      Max-DP    RMS-DP
  5   -572.72372160  -0.0003913434  0.001759  0.001759  0.003214  0.000042
               *** Restarting incremental Fock matrix formation ***
  6   -572.72377311  -0.0000515081  0.000712  0.002617  0.004272  0.000094
  7   -572.72378916  -0.0000160527  0.000488  0.002904  0.001587  0.000038
  8   -572.72379099  -0.0000018276  0.000331  0.000933  0.002482  0.000030
  9   -572.72379235  -0.0000013549  0.000028  0.000102  0.002127  0.000013
 10   -572.72379239  -0.0000000429  0.000015  0.000068  0.001569  0.000009
                  ***Gradient check signals convergence***
              ***Rediagonalizing the Fockian in SOSCF/NRSCF***

               *****************************************************
               *                     SUCCESS                       *
               *           SCF CONVERGED AFTER  11 CYCLES          *
               *****************************************************

Old exchange energy                            =    -42.656226933 Eh
New exchange energy                            =    -42.656218871 Eh
Exchange energy change after final integration =      0.000008062 Eh
Total energy after final integration           =   -572.723784352 Eh
Final COS-X integration done in                =   112.070 sec

SMD CDS free energy correction energy :                -5.78691     Kcal/mol
Total Energy after SMD CDS correction =              -572.733006374 Eh

----------------
TOTAL SCF ENERGY
----------------

Total Energy       :         -572.73300637 Eh          -15584.85742 eV

Components:
Nuclear Repulsion  :          754.76372485 Eh           20538.16509 eV
Electronic Energy  :        -1327.49673122 Eh          -36123.02252 eV
One Electron Energy:        -2269.82404685 Eh          -61765.05239 eV
Two Electron Energy:          942.32731563 Eh           25642.02987 eV
Max COSX asymmetry :            0.00000907 Eh               0.00025 eV
CPCM Dielectric    :           -0.00659900 Eh              -0.17957 eV
SMD CDS (Gcds)     :           -0.00922202 Eh              -0.25094 eV

Virial components:
Potential Energy   :        -1142.43588859 Eh          -31087.26097 eV
Kinetic Energy     :          569.70288221 Eh           15502.40355 eV
Virial Ratio       :            2.00531878


DFT components:
N(Alpha)           :       48.000003632520 electrons
N(Beta)            :       48.000003632520 electrons
N(Total)           :       96.000007265040 electrons
E(XC)              :      -39.831818491226 Eh       
DFET-embed. en.    :        0.000000000000 Eh       
CPCM Solvation Model Properties:
Surface-charge          :           -0.05596168
Charge-correction       :            0.00008989 Eh               0.00245 eV
Free-energy (cav+disp)  :           -0.00922202 Eh              -0.25094 eV

---------------
SCF CONVERGENCE
---------------

  Last Energy change         ...   -2.4394e-08  Tolerance :   1.0000e-08
  Last MAX-Density change    ...    3.1086e-15  Tolerance :   1.0000e-07
  Last RMS-Density change    ...    1.1274e-17  Tolerance :   5.0000e-09
  Last Orbital Gradient      ...    2.1423e-06  Tolerance :   1.0000e-05
  Last Orbital Rotation      ...    7.5375e-06  Tolerance :   1.0000e-05

             **** THE GBW FILE WAS UPDATED (m062x-train-0.gbw) ****
             **** DENSITY m062x-train-0.scfp WAS UPDATED ****
             **** ENERGY FILE WAS UPDATED (m062x-train-0.en.tmp) ****
             **** THE GBW FILE WAS UPDATED (m062x-train-0.gbw) ****
             **** DENSITY m062x-train-0.scfp WAS UPDATED ****
----------------
ORBITAL ENERGIES
----------------

  NO   OCC          E(Eh)            E(eV) 
   0   2.0000     -14.803252      -402.8170 
   1   2.0000     -14.802500      -402.7965 
   2   2.0000     -10.575368      -287.7704 
   3   2.0000     -10.575359      -287.7701 
   4   2.0000     -10.549736      -287.0729 
   5   2.0000     -10.549721      -287.0725 
   6   2.0000     -10.549287      -287.0607 
   7   2.0000     -10.549277      -287.0604 
   8   2.0000     -10.547764      -287.0193 
   9   2.0000     -10.547729      -287.0183 
  10   2.0000     -10.546819      -286.9935 
  11   2.0000     -10.546787      -286.9927 
  12   2.0000     -10.546474      -286.9841 
  13   2.0000     -10.546468      -286.9840 
  14   2.0000      -1.151767       -31.3412 
  15   2.0000      -0.989994       -26.9391 
  16   2.0000      -0.966460       -26.2987 
  17   2.0000      -0.910739       -24.7825 
  18   2.0000      -0.856126       -23.2964 
  19   2.0000      -0.855124       -23.2691 
  20   2.0000      -0.841126       -22.8882 
  21   2.0000      -0.778302       -21.1787 
  22   2.0000      -0.709984       -19.3196 
  23   2.0000      -0.703167       -19.1341 
  24   2.0000      -0.685231       -18.6461 
  25   2.0000      -0.650073       -17.6894 
  26   2.0000      -0.613320       -16.6893 
  27   2.0000      -0.586859       -15.9692 
  28   2.0000      -0.561871       -15.2893 
  29   2.0000      -0.551644       -15.0110 
  30   2.0000      -0.525548       -14.3009 
  31   2.0000      -0.516129       -14.0446 
  32   2.0000      -0.513161       -13.9638 
  33   2.0000      -0.499417       -13.5898 
  34   2.0000      -0.497611       -13.5407 
  35   2.0000      -0.494914       -13.4673 
  36   2.0000      -0.471850       -12.8397 
  37   2.0000      -0.458300       -12.4710 
  38   2.0000      -0.426944       -11.6177 
  39   2.0000      -0.426047       -11.5933 
  40   2.0000      -0.424924       -11.5628 
  41   2.0000      -0.406840       -11.0707 
  42   2.0000      -0.404844       -11.0164 
  43   2.0000      -0.339796        -9.2463 
  44   2.0000      -0.319268        -8.6877 
  45   2.0000      -0.318899        -8.6777 
  46   2.0000      -0.305060        -8.3011 
  47   2.0000      -0.279981        -7.6187 
  48   0.0000      -0.067679        -1.8416 
  49   0.0000       0.006723         0.1829 
  50   0.0000       0.008844         0.2407 
  51   0.0000       0.011613         0.3160 
  52   0.0000       0.014506         0.3947 
  53   0.0000       0.016248         0.4421 
  54   0.0000       0.022785         0.6200 
  55   0.0000       0.025179         0.6852 
  56   0.0000       0.025696         0.6992 
  57   0.0000       0.039608         1.0778 
  58   0.0000       0.040896         1.1128 
  59   0.0000       0.042476         1.1558 
  60   0.0000       0.043465         1.1828 
  61   0.0000       0.050863         1.3840 
  62   0.0000       0.058148         1.5823 
  63   0.0000       0.059575         1.6211 
  64   0.0000       0.061445         1.6720 
  65   0.0000       0.064130         1.7451 
  66   0.0000       0.064964         1.7678 
  67   0.0000       0.072827         1.9817 
  68   0.0000       0.073885         2.0105 
  69   0.0000       0.083907         2.2832 
  70   0.0000       0.085711         2.3323 
  71   0.0000       0.092692         2.5223 
  72   0.0000       0.095217         2.5910 
  73   0.0000       0.097624         2.6565 
  74   0.0000       0.101802         2.7702 
  75   0.0000       0.103909         2.8275 
  76   0.0000       0.106167         2.8889 
  77   0.0000       0.116573         3.1721 
  78   0.0000       0.117794         3.2053 
  79   0.0000       0.122504         3.3335 
  80   0.0000       0.131147         3.5687 
  81   0.0000       0.133747         3.6394 
  82   0.0000       0.135638         3.6909 
  83   0.0000       0.138603         3.7716 
  84   0.0000       0.139181         3.7873 
  85   0.0000       0.144031         3.9193 
  86   0.0000       0.144964         3.9447 
  87   0.0000       0.150627         4.0988 
  88   0.0000       0.151541         4.1237 
  89   0.0000       0.156751         4.2654 
  90   0.0000       0.160615         4.3706 
  91   0.0000       0.163668         4.4536 
  92   0.0000       0.167807         4.5663 
  93   0.0000       0.171516         4.6672 
  94   0.0000       0.174629         4.7519 
  95   0.0000       0.176922         4.8143 
  96   0.0000       0.177013         4.8168 
  97   0.0000       0.182624         4.9695 
  98   0.0000       0.196275         5.3409 
  99   0.0000       0.196931         5.3588 
 100   0.0000       0.198664         5.4059 
 101   0.0000       0.200877         5.4661 
 102   0.0000       0.207247         5.6395 
 103   0.0000       0.207679         5.6512 
 104   0.0000       0.209647         5.7048 
 105   0.0000       0.218370         5.9421 
 106   0.0000       0.228316         6.2128 
 107   0.0000       0.229007         6.2316 
 108   0.0000       0.232542         6.3278 
 109   0.0000       0.238130         6.4799 
 110   0.0000       0.248278         6.7560 
 111   0.0000       0.250535         6.8174 
 112   0.0000       0.254152         6.9158 
 113   0.0000       0.257017         6.9938 
 114   0.0000       0.262726         7.1491 
 115   0.0000       0.264436         7.1957 
 116   0.0000       0.267346         7.2749 
 117   0.0000       0.271577         7.3900 
 118   0.0000       0.271980         7.4010 
 119   0.0000       0.288849         7.8600 
 120   0.0000       0.290216         7.8972 
 121   0.0000       0.292007         7.9459 
 122   0.0000       0.294057         8.0017 
 123   0.0000       0.300538         8.1780 
 124   0.0000       0.301358         8.2004 
 125   0.0000       0.309956         8.4343 
 126   0.0000       0.310308         8.4439 
 127   0.0000       0.313303         8.5254 
 128   0.0000       0.313677         8.5356 
 129   0.0000       0.315351         8.5811 
 130   0.0000       0.325516         8.8577 
 131   0.0000       0.328037         8.9263 
 132   0.0000       0.332552         9.0492 
 133   0.0000       0.335270         9.1232 
 134   0.0000       0.338932         9.2228 
 135   0.0000       0.354856         9.6561 
 136   0.0000       0.356486         9.7005 
 137   0.0000       0.360724         9.8158 
 138   0.0000       0.362019         9.8510 
 139   0.0000       0.364207         9.9106 
 140   0.0000       0.365325         9.9410 
 141   0.0000       0.372136        10.1263 
 142   0.0000       0.377418        10.2701 
 143   0.0000       0.380073        10.3423 
 144   0.0000       0.386247        10.5103 
 145   0.0000       0.389904        10.6098 
 146   0.0000       0.396434        10.7875 
 147   0.0000       0.397354        10.8125 
 148   0.0000       0.399626        10.8744 
 149   0.0000       0.400068        10.8864 
 150   0.0000       0.404812        11.0155 
 151   0.0000       0.405362        11.0305 
 152   0.0000       0.410969        11.1830 
 153   0.0000       0.414678        11.2840 
 154   0.0000       0.417310        11.3556 
 155   0.0000       0.418691        11.3932 
 156   0.0000       0.419096        11.4042 
 157   0.0000       0.423346        11.5198 
 158   0.0000       0.424587        11.5536 
 159   0.0000       0.425634        11.5821 
 160   0.0000       0.438024        11.9192 
 161   0.0000       0.440759        11.9937 
 162   0.0000       0.441747        12.0205 
 163   0.0000       0.442638        12.0448 
 164   0.0000       0.444971        12.1083 
 165   0.0000       0.449951        12.2438 
 166   0.0000       0.452893        12.3238 
 167   0.0000       0.453253        12.3336 
 168   0.0000       0.463350        12.6084 
 169   0.0000       0.472919        12.8688 
 170   0.0000       0.479152        13.0384 
 171   0.0000       0.481066        13.0905 
 172   0.0000       0.485421        13.2090 
 173   0.0000       0.489720        13.3260 
 174   0.0000       0.491294        13.3688 
 175   0.0000       0.495325        13.4785 
 176   0.0000       0.503652        13.7051 
 177   0.0000       0.507551        13.8112 
 178   0.0000       0.509266        13.8578 
 179   0.0000       0.516228        14.0473 
 180   0.0000       0.517691        14.0871 
 181   0.0000       0.522723        14.2240 
 182   0.0000       0.532071        14.4784 
 183   0.0000       0.536279        14.5929 
 184   0.0000       0.547123        14.8880 
 185   0.0000       0.548586        14.9278 
 186   0.0000       0.556382        15.1399 
 187   0.0000       0.564985        15.3740 
 188   0.0000       0.567739        15.4490 
 189   0.0000       0.572234        15.5713 
 190   0.0000       0.587367        15.9831 
 191   0.0000       0.598306        16.2807 
 192   0.0000       0.602174        16.3860 
 193   0.0000       0.612164        16.6578 
 194   0.0000       0.613880        16.7045 
 195   0.0000       0.617465        16.8021 
 196   0.0000       0.626267        17.0416 
 197   0.0000       0.635559        17.2944 
 198   0.0000       0.648347        17.6424 
 199   0.0000       0.656664        17.8687 
 200   0.0000       0.659161        17.9367 
 201   0.0000       0.663750        18.0616 
 202   0.0000       0.665171        18.1002 
 203   0.0000       0.669166        18.2089 
 204   0.0000       0.673739        18.3334 
 205   0.0000       0.676280        18.4025 
 206   0.0000       0.678068        18.4512 
 207   0.0000       0.680327        18.5126 
 208   0.0000       0.685528        18.6542 
 209   0.0000       0.691306        18.8114 
 210   0.0000       0.694132        18.8883 
 211   0.0000       0.702018        19.1029 
 212   0.0000       0.703620        19.1465 
 213   0.0000       0.704335        19.1659 
 214   0.0000       0.715444        19.4682 
 215   0.0000       0.720492        19.6056 
 216   0.0000       0.720626        19.6092 
 217   0.0000       0.725552        19.7433 
 218   0.0000       0.726701        19.7745 
 219   0.0000       0.731306        19.8998 
 220   0.0000       0.745610        20.2891 
 221   0.0000       0.751352        20.4453 
 222   0.0000       0.755859        20.5680 
 223   0.0000       0.756483        20.5849 
 224   0.0000       0.760078        20.6828 
 225   0.0000       0.764743        20.8097 
 226   0.0000       0.772552        21.0222 
 227   0.0000       0.774099        21.0643 
 228   0.0000       0.775440        21.1008 
 229   0.0000       0.778242        21.1770 
 230   0.0000       0.781079        21.2542 
 231   0.0000       0.785600        21.3773 
 232   0.0000       0.786190        21.3933 
 233   0.0000       0.793477        21.5916 
 234   0.0000       0.795260        21.6401 
 235   0.0000       0.812762        22.1164 
 236   0.0000       0.822335        22.3769 
 237   0.0000       0.826988        22.5035 
 238   0.0000       0.828299        22.5392 
 239   0.0000       0.844263        22.9736 
 240   0.0000       0.851714        23.1763 
 241   0.0000       0.852809        23.2061 
 242   0.0000       0.854400        23.2494 
 243   0.0000       0.857735        23.3402 
 244   0.0000       0.860901        23.4263 
 245   0.0000       0.861081        23.4312 
 246   0.0000       0.888268        24.1710 
 247   0.0000       0.890522        24.2323 
 248   0.0000       0.893565        24.3151 
 249   0.0000       0.894902        24.3515 
 250   0.0000       0.897219        24.4146 
 251   0.0000       0.904673        24.6174 
 252   0.0000       0.906658        24.6714 
 253   0.0000       0.911530        24.8040 
 254   0.0000       0.919835        25.0300 
 255   0.0000       0.930470        25.3194 
 256   0.0000       0.934732        25.4354 
 257   0.0000       0.934989        25.4423 
 258   0.0000       0.938356        25.5340 
 259   0.0000       0.939266        25.5587 
 260   0.0000       0.941470        25.6187 
 261   0.0000       0.945416        25.7261 
 262   0.0000       0.953289        25.9403 
 263   0.0000       0.957851        26.0644 
 264   0.0000       0.964963        26.2580 
 265   0.0000       0.976116        26.5615 
 266   0.0000       0.978816        26.6349 
 267   0.0000       0.983730        26.7687 
 268   0.0000       0.984987        26.8029 
 269   0.0000       0.993229        27.0271 
 270   0.0000       0.997332        27.1388 
 271   0.0000       1.006219        27.3806 
 272   0.0000       1.007710        27.4212 
 273   0.0000       1.022360        27.8198 
 274   0.0000       1.027105        27.9489 
 275   0.0000       1.029304        28.0088 
 276   0.0000       1.034376        28.1468 
 277   0.0000       1.036045        28.1922 
 278   0.0000       1.070813        29.1383 
 279   0.0000       1.072703        29.1897 
 280   0.0000       1.080939        29.4138 
 281   0.0000       1.087566        29.5942 
 282   0.0000       1.098872        29.9018 
 283   0.0000       1.103787        30.0356 
 284   0.0000       1.114533        30.3280 
 285   0.0000       1.129862        30.7451 
 286   0.0000       1.132533        30.8178 
 287   0.0000       1.135880        30.9089 
 288   0.0000       1.137862        30.9628 
 289   0.0000       1.159886        31.5621 
 290   0.0000       1.171411        31.8757 
 291   0.0000       1.180571        32.1250 
 292   0.0000       1.186354        32.2823 
 293   0.0000       1.191219        32.4147 
 294   0.0000       1.210784        32.9471 
 295   0.0000       1.224174        33.3115 
 296   0.0000       1.234195        33.5842 
 297   0.0000       1.236987        33.6601 
 298   0.0000       1.245083        33.8804 
 299   0.0000       1.257342        34.2140 
 300   0.0000       1.259011        34.2594 
 301   0.0000       1.260447        34.2985 
 302   0.0000       1.263868        34.3916 
 303   0.0000       1.264627        34.4123 
 304   0.0000       1.283091        34.9147 
 305   0.0000       1.295370        35.2488 
 306   0.0000       1.307847        35.5883 
 307   0.0000       1.310149        35.6510 
 308   0.0000       1.312245        35.7080 
 309   0.0000       1.325292        36.0630 
 310   0.0000       1.328038        36.1378 
 311   0.0000       1.338121        36.4121 
 312   0.0000       1.339792        36.4576 
 313   0.0000       1.343835        36.5676 
 314   0.0000       1.349392        36.7188 
 315   0.0000       1.359930        37.0056 
 316   0.0000       1.360268        37.0148 
 317   0.0000       1.368820        37.2475 
 318   0.0000       1.373726        37.3810 
 319   0.0000       1.380821        37.5741 
 320   0.0000       1.382076        37.6082 
 321   0.0000       1.386991        37.7419 
[...]
                        ORCA TD-DFT/TDA CALCULATION
------------------------------------------------------------------------------

Input orbitals are from        ... m062x-train-0_job2.gbw
CI-vector output               ... m062x-train-0_job2.cis
Tamm-Dancoff approximation     ... operative
CIS-Integral strategy          ... AO-integrals
Integral handling              ... AO integral Direct
Max. core memory used          ... 4000 MB
Reference state                ... RHF
Generation of triplets         ... off
Follow IRoot                   ... off
Number of operators            ... 1
Orbital ranges used for CIS calculation:
 Operator 0:  Orbitals  14... 47  to  48...783
XAS localization array:
 Operator 0:  Orbitals  -1... -1

-------------------
XC-INTEGRATION GRID
-------------------

General Integration Accuracy     IntAcc      ... 3.467
Radial Grid Type                 RadialGrid  ... OptM3 with GC (2021)
Angular Grid (max. ang.)         AngularGrid ... 3 (Lebedev-194)
Angular grid pruning method      GridPruning ... 4 (adaptive)
Weight generation scheme         WeightScheme... Becke
Basis function cutoff            BFCut       ... 1.0000e-11
Integration weight cutoff        WCut        ... 1.0000e-14
Angular grids for H and He will be reduced by one unit
Partially contracted basis set               ... off
Rotationally invariant grid construction     ... off

Total number of grid points                  ...    46793
Total number of batches                      ...      745
Average number of points per batch           ...       62
Average number of grid points per atom       ...     1950

---------------------
COSX-INTEGRATION GRID
---------------------

General Integration Accuracy     IntAcc      ... 3.067
Radial Grid Type                 RadialGrid  ... OptM3 with GC (2021)
Angular Grid (max. ang.)         AngularGrid ... 2 (Lebedev-110)
Angular grid pruning method      GridPruning ... 4 (adaptive)
Weight generation scheme         WeightScheme... Becke
Basis function cutoff            BFCut       ... 1.0000e-11
Integration weight cutoff        WCut        ... 1.0000e-14
Angular grids for H and He will be reduced by one unit
Partially contracted basis set               ... on
Rotationally invariant grid construction     ... off

Total number of grid points                  ...    20573
Total number of batches                      ...      331
Average number of points per batch           ...       62
Average number of grid points per atom       ...      857

---------------
TD-DFT XC SETUP
---------------

DFT calculation                         ... on
Name of the grid file                   ... m062x-train-0_job2.grid_cis.tmp
Exchange functional (TD-DFT)            ... M062X
Correlation functional (TD-DFT)         ... M062X
Hybrid DFT                              ... on
   Exchange mixing (TD-DFT)             ...  0.540
   GGA exch. scaling (TD-DFT)           ...  0.460
   GGA corr. scaling (TD-DFT)           ...  1.000

Building densities             ... done
Calculating rho(r) on the grid ... done
Building xc-kernel on the grid ... done
                    *** TD-DFT CALCULATION INITIALIZED ***

---------------------------------
    LR-CPCM (non-equilibrium)
---------------------------------

Setting up LR-CPCM             ... done

------------------------
DAVIDSON-DIAGONALIZATION
------------------------

Dimension of the eigenvalue problem            ...  25024
Number of roots to be determined               ...     10
Maximum size of the expansion space            ...     70
Maximum number of iterations                   ...    100
Convergence tolerance for the residual         ...    1.000e-06
Convergence tolerance for the energies         ...    1.000e-06
Orthogonality tolerance                        ...    1.000e-14
Level Shift                                    ...    0.000e+00
Constructing the preconditioner                ... o.k.
Building the initial guess                     ... o.k.
Number of trial vectors determined             ...     70


                       ****Iteration    0****

   Memory handling for direct AO based CIS:
   Memory per vector needed      ...    28 MB
   Memory needed                 ...   844 MB
   Memory available              ...  4000 MB
   Number of vectors per batch   ...   142
   Number of batches             ...     1
   Time for densities:            0.266
   Time for RI-J (Direct):        8.949
   Time for K (COSX):           110.356
   Time for XC-Integration:     141.127
   Time for LR-CPCM terms:       12.630
   Time for Sigma-Completion:     0.185
   Size of expansion space: 30
   Lowest Energy          :     0.114590444452
   Maximum Energy change  :     0.246640838230 (vector 9)
   Maximum residual norm  :     0.015726696466

                       ****Iteration    1****
   Time for densities:            0.089
   Time for RI-J (Direct):        6.002
   Time for K (COSX):            43.781
   Time for XC-Integration:      49.360
   Time for LR-CPCM terms:        6.063
   Time for Sigma-Completion:     0.063
   Size of expansion space: 40
   Lowest Energy          :     0.098650957431
   Maximum Energy change  :     0.015939487021 (vector 0)
   Maximum residual norm  :     0.001047604676

                       ****Iteration    2****
   Time for densities:            0.091
   Time for RI-J (Direct):        5.954
   Time for K (COSX):            43.810
   Time for XC-Integration:      50.201
   Time for LR-CPCM terms:        6.068
   Time for Sigma-Completion:     0.062
   Size of expansion space: 50
   Lowest Energy          :     0.098038407544
   Maximum Energy change  :     0.003997767509 (vector 9)
   Maximum residual norm  :     0.004028910056

                       ****Iteration    3****
   Time for densities:            0.090
   Time for RI-J (Direct):        6.013
   Time for K (COSX):            43.614
   Time for XC-Integration:      54.261
   Time for LR-CPCM terms:        6.258
   Time for Sigma-Completion:     0.065
   Size of expansion space: 60
   Lowest Energy          :     0.098016735727
   Maximum Energy change  :     0.004732257718 (vector 7)
   Maximum residual norm  :     0.000861072333

                       ****Iteration    4****
   Time for densities:            0.092
   Time for RI-J (Direct):        6.257
   Time for K (COSX):            47.598
   Time for XC-Integration:      53.737
   Time for LR-CPCM terms:        6.145
   Time for Sigma-Completion:     0.062
   Size of expansion space: 70
   Lowest Energy          :     0.098015920341
   Maximum Energy change  :     0.001480506090 (vector 5)
   Maximum residual norm  :     0.000283495023
   Rebuilding the expansion space

                       ****Iteration    5****
   Time for densities:            0.188
   Time for RI-J (Direct):        7.361
   Time for K (COSX):            75.388
   Time for XC-Integration:     101.134
   Time for LR-CPCM terms:        9.694
   Time for Sigma-Completion:     0.135
   Size of expansion space: 20
   Lowest Energy          :     0.098015831461
   Maximum Energy change  :     0.000365859470 (vector 5)
   Maximum residual norm  :     0.000043218524

                       ****Iteration    6****
   Time for densities:            0.098
   Time for RI-J (Direct):        6.226
   Time for K (COSX):            47.869
   Time for XC-Integration:      53.679
   Time for LR-CPCM terms:        6.287
   Time for Sigma-Completion:     0.067
   Size of expansion space: 30
   Lowest Energy          :     0.098015824087
   Maximum Energy change  :     0.000117552386 (vector 5)
   Maximum residual norm  :     0.000012402842

                       ****Iteration    7****
   Time for densities:            0.099
   Time for RI-J (Direct):        6.241
   Time for K (COSX):            47.963
   Time for XC-Integration:      56.412
   Time for LR-CPCM terms:        6.466
   Time for Sigma-Completion:     0.068
   Size of expansion space: 40
   Lowest Energy          :     0.098015823658
   Maximum Energy change  :     0.000017024772 (vector 5)
   Maximum residual norm  :     0.000002425138

                       ****Iteration    8****
   Time for densities:            0.098
   Time for RI-J (Direct):        6.579
   Time for K (COSX):            50.151
   Time for XC-Integration:      53.725
   Time for LR-CPCM terms:        6.268
   Time for Sigma-Completion:     0.075
   Size of expansion space: 50
   Lowest Energy          :     0.098015823634
   Maximum Energy change  :     0.000006628671 (vector 5)
   Maximum residual norm  :     0.000000861176

      *** CONVERGENCE OF RESIDUAL NORM REACHED ***

Storing the converged CI vectors               ... m062x-train-0_job2.cis1

                 *** DAVIDSON DONE ***

Total time for solving the CIS problem:  1253.389sec

------------------------------------
TD-DFT/TDA EXCITED STATES (SINGLETS)
------------------------------------

the weight of the individual excitations are printed if larger than 1.0e-02

STATE  1:  E=   0.098016 au      2.667 eV    21512.0 cm**-1 <S**2> =   0.000000
    46a ->  48a  :     0.912501 (c=  0.95524937)
    46a ->  67a  :     0.055288 (c=  0.23513450)

STATE  2:  E=   0.152646 au      4.154 eV    33502.0 cm**-1 <S**2> =   0.000000
    47a ->  48a  :     0.960108 (c= -0.97985120)

STATE  3:  E=   0.177414 au      4.828 eV    38937.9 cm**-1 <S**2> =   0.000000
    43a ->  53a  :     0.037232 (c=  0.19295527)
    44a ->  55a  :     0.032982 (c= -0.18160967)
    45a ->  48a  :     0.794489 (c= -0.89134103)
    47a ->  51a  :     0.115430 (c= -0.33974984)

STATE  4:  E=   0.177889 au      4.841 eV    39042.2 cm**-1 <S**2> =   0.000000
    43a ->  51a  :     0.036341 (c= -0.19063199)
    44a ->  48a  :     0.800991 (c=  0.89498076)
    45a ->  55a  :     0.033678 (c=  0.18351530)
    47a ->  53a  :     0.102947 (c=  0.32085307)

STATE  5:  E=   0.203605 au      5.540 eV    44686.1 cm**-1 <S**2> =   0.000000
    43a ->  48a  :     0.836035 (c= -0.91434968)
    44a ->  48a  :     0.022429 (c=  0.14976363)
    44a ->  51a  :     0.023249 (c= -0.15247515)
    45a ->  53a  :     0.011255 (c= -0.10608854)
    46a ->  49a  :     0.010060 (c=  0.10030134)
    47a ->  53a  :     0.030004 (c= -0.17321731)

STATE  6:  E=   0.222293 au      6.049 eV    48787.7 cm**-1 <S**2> =   0.000000
    43a ->  53a  :     0.059533 (c= -0.24399430)
    44a ->  55a  :     0.041924 (c=  0.20475374)
    44a ->  60a  :     0.015348 (c=  0.12388751)
    45a ->  48a  :     0.166915 (c= -0.40855239)
    45a ->  51a  :     0.010777 (c=  0.10381197)
    45a ->  67a  :     0.020427 (c= -0.14292198)
    46a ->  51a  :     0.016406 (c= -0.12808715)
    47a ->  51a  :     0.625051 (c=  0.79060143)

STATE  7:  E=   0.224574 au      6.111 eV    49288.3 cm**-1 <S**2> =   0.000000
    46a ->  51a  :     0.948840 (c= -0.97408404)

STATE  8:  E=   0.224894 au      6.120 eV    49358.5 cm**-1 <S**2> =   0.000000
    43a ->  48a  :     0.064492 (c=  0.25395329)
    43a ->  51a  :     0.064031 (c=  0.25304434)
    44a ->  48a  :     0.136493 (c=  0.36944950)
    44a ->  51a  :     0.018373 (c= -0.13554639)
    44a ->  67a  :     0.018344 (c=  0.13544178)
    45a ->  55a  :     0.046023 (c= -0.21453085)
    45a ->  60a  :     0.015555 (c= -0.12471826)
    47a ->  53a  :     0.568161 (c= -0.75376432)

STATE  9:  E=   0.227538 au      6.192 eV    49938.8 cm**-1 <S**2> =   0.000000
    41a ->  48a  :     0.079003 (c= -0.28107489)
    46a ->  53a  :     0.562492 (c= -0.74999450)
    46a ->  55a  :     0.272414 (c=  0.52193298)

STATE 10:  E=   0.231064 au      6.288 eV    50712.7 cm**-1 <S**2> =   0.000000
    43a ->  50a  :     0.042167 (c= -0.20534678)
    46a ->  53a  :     0.057262 (c= -0.23929435)
    46a ->  55a  :     0.034175 (c= -0.18486588)
    47a ->  49a  :     0.748741 (c= -0.86529817)
    47a ->  54a  :     0.032635 (c= -0.18065125)
    47a ->  59a  :     0.054300 (c=  0.23302363)


-----------------------------
TD-DFT/TDA-EXCITATION SPECTRA
-----------------------------

Center of mass = ( -0.0000,  0.0000, -0.0132)
Calculating the Dipole integrals                  ... done
Transforming integrals                            ... done
Calculating the Linear Momentum integrals         ... done
Transforming integrals                            ... done
Calculating angular momentum integrals            ... done
Transforming integrals                            ... done

-----------------------------------------------------------------------------
         ABSORPTION SPECTRUM VIA TRANSITION ELECTRIC DIPOLE MOMENTS
-----------------------------------------------------------------------------
State   Energy    Wavelength  fosc         T2        TX        TY        TZ  
        (cm-1)      (nm)                 (au**2)    (au)      (au)      (au) 
-----------------------------------------------------------------------------
   1   21512.0    464.9   0.000094426   0.00145   0.03800  -0.00090  -0.00036
   2   33502.0    298.5   1.190367872  11.69732   3.41763  -0.12628  -0.03423
   3   38937.9    256.8   0.052771712   0.44617  -0.20370  -0.62873  -0.09686
   4   39042.2    256.1   0.000036201   0.00031  -0.00110  -0.00511   0.01667
   5   44686.1    223.8   0.000028622   0.00021  -0.00006  -0.00265   0.01428
   6   48787.7    205.0   0.595261581   4.01674  -1.42027  -1.39834  -0.21023
   7   49288.3    202.9   0.016481022   0.11008   0.25920   0.20489   0.03025
   8   49358.5    202.6   0.000199548   0.00133   0.00319  -0.00246   0.03626
   9   49938.8    200.2   0.000171326   0.00113   0.00300  -0.00210   0.03341
  10   50712.7    197.2   0.000459667   0.00298   0.00093   0.00909  -0.05386

-----------------------------------------------------------------------------
         ABSORPTION SPECTRUM VIA TRANSITION VELOCITY DIPOLE MOMENTS
-----------------------------------------------------------------------------
State   Energy    Wavelength   fosc        P2         PX        PY        PZ  
        (cm-1)      (nm)                 (au**2)     (au)      (au)      (au) 
-----------------------------------------------------------------------------
   1   21512.0    464.9   0.000019990   0.00000  -0.00171   0.00010   0.00007
   2   33502.0    298.5   0.620063226   0.14198  -0.37492   0.03694   0.00704
   3   38937.9    256.8   0.001183069   0.00031   0.01240   0.01255   0.00190
   4   39042.2    256.1   0.000000171   0.00000   0.00014   0.00011   0.00012
   5   44686.1    223.8   0.000001622   0.00000   0.00010   0.00000   0.00070
   6   48787.7    205.0   0.157954883   0.05267   0.21425   0.08147   0.01134
   7   49288.3    202.9   0.005130601   0.00173  -0.03987  -0.01166  -0.00164
   8   49358.5    202.6   0.000124315   0.00004  -0.00051   0.00075  -0.00641
   9   49938.8    200.2   0.001020951   0.00035  -0.00045  -0.00334   0.01836
  10   50712.7    197.2   0.000923644   0.00032  -0.00012  -0.00271   0.01769

-------------------------------------------------------------------
                             CD SPECTRUM
-------------------------------------------------------------------
State  Energy     Wavelength     R         MX        MY        MZ   
       (cm-1)       (nm)     (1e40*cgs)   (au)      (au)      (au)  
-------------------------------------------------------------------
   1   21512.0    464.9     -6.79363  -0.38380  -0.18340  -0.02543
   2   33502.0    298.5      1.44762   0.00109   0.00478   0.00105
   3   38937.9    256.8     -0.35319  -0.00209   0.00188  -0.00008
   4   39042.2    256.1      1.45003   0.00091  -0.02757   0.17610
   5   44686.1    223.8      2.69939   0.00200  -0.05858   0.39017
   6   48787.7    205.0    -20.26257   0.00244   0.02750   0.00501
   7   49288.3    202.9      9.32937   0.01406   0.07808   0.00482
   8   49358.5    202.6      9.63950   0.00289  -0.08469   0.55790
   9   49938.8    200.2      1.30819   0.00054  -0.01306   0.08219
  10   50712.7    197.2     -0.22761  -0.00021  -0.00066   0.00885

-------------------------------------------------------------------
         CD SPECTRUM VIA TRANSITION VELOCITY DIPOLE MOMENTS        
-------------------------------------------------------------------
State  Energy     Wavelength     R         MX        MY        MZ   
       (cm-1)       (nm)     (1e40*cgs)   (au)      (au)      (au)  
-------------------------------------------------------------------
   1   21512.0    464.9      3.06168  -0.38380  -0.18340  -0.02543
   2   33502.0    298.5     -0.68879   0.00109   0.00478   0.00105
   3   38937.9    256.8     -0.00657  -0.00209   0.00188  -0.00008
   4   39042.2    256.1      0.04668   0.00091  -0.02757   0.17610
   5   44686.1    223.8      0.63014   0.00200  -0.05858   0.39017
   6   48787.7    205.0      5.98174   0.00244   0.02750   0.00501
   7   49288.3    202.9     -3.10485   0.01406   0.07808   0.00482
   8   49358.5    202.6     -7.63487   0.00289  -0.08469   0.55790
   9   49938.8    200.2      3.21655   0.00054  -0.01306   0.08219
  10   50712.7    197.2      0.32301  -0.00021  -0.00066   0.00885

Total run time:     1258.884 sec

           *** ORCA-CIS/TD-DFT FINISHED WITHOUT ERROR ***

Maximum memory used throughout the entire CIS-calculation: 798.5 MB

-----------------------
CIS/TD-DFT TOTAL ENERGY
-----------------------

    E(SCF)  =   -572.736302539 Eh
    DE(CIS) =      0.098015824 Eh (Root  1)
    ----------------------------- ---------
    E(tot)  =   -572.638286716 Eh


-------------------------   --------------------
FINAL SINGLE POINT ENERGY      -572.638286715767
-------------------------   --------------------


                            ***************************************
                            *     ORCA property calculations      *
                            ***************************************

                                    ---------------------
                                    Active property flags
                                    ---------------------
   (+) Dipole Moment


------------------------------------------------------------------------------
                       ORCA ELECTRIC PROPERTIES CALCULATION
------------------------------------------------------------------------------

Dipole Moment Calculation                       ... on
Quadrupole Moment Calculation                   ... off
Polarizability Calculation                      ... off
GBWName                                         ... m062x-train-0_job2.gbw
Electron density                                ... m062x-train-0_job2.scfp
The origin for moment calculation is the CENTER OF MASS  = (-0.000033,  0.000032 -0.013237)

-------------
DIPOLE MOMENT
-------------
                                X             Y             Z
Electronic contribution:     -0.00004       0.00043      -0.00643
Nuclear contribution   :      0.00022      -0.00040       0.00424
                        -----------------------------------------
Total Dipole Moment    :      0.00018       0.00004      -0.00219
                        -----------------------------------------
Magnitude (a.u.)       :      0.00220
Magnitude (Debye)      :      0.00558



--------------------
Rotational spectrum 
--------------------
 
Rotational constants in cm-1:     0.092121     0.009809     0.008866 
Rotational constants in MHz :  2761.727829   294.078756   265.809506 

 Dipole components along the rotational axes: 
x,y,z [a.u.] :     0.000191    -0.000300    -0.002166 
x,y,z [Debye]:     0.000485    -0.000762    -0.005506 

 

Timings for individual modules:

Sum of individual times         ...     1549.418 sec (=  25.824 min)
GTO integral calculation        ...        2.601 sec (=   0.043 min)   0.2 %
SCF iterations                  ...      287.294 sec (=   4.788 min)  18.5 %
CIS module                      ...     1259.523 sec (=  20.992 min)  81.3 %



                             ****ORCA TERMINATED NORMALLY****
TOTAL RUN TIME: 0 days 2 hours 15 minutes 30 seconds 766 msec
