
                                 *****************
                                 * O   R   C   A *
                                 *****************

                                            #,                                       
                                            ###                                      
                                            ####                                     
                                            #####                                    
                                            ######                                   
                                           ########,                                 
                                     ,,################,,,,,                         
                               ,,#################################,,                 
                          ,,##########################################,,             
                       ,#########################################, ''#####,          
                    ,#############################################,,   '####,        
                  ,##################################################,,,,####,       
                ,###########''''           ''''###############################       
              ,#####''   ,,,,##########,,,,          '''####'''          '####       
            ,##' ,,,,###########################,,,                        '##       
           ' ,,###''''                  '''############,,,                           
         ,,##''                                '''############,,,,        ,,,,,,###''
      ,#''                                            '''#######################'''  
     '                                                          ''''####''''         
             ,#######,   #######,   ,#######,      ##                                
            ,#'     '#,  ##    ##  ,#'     '#,    #''#        ######   ,####,        
            ##       ##  ##   ,#'  ##            #'  '#       #        #'  '#        
            ##       ##  #######   ##           ,######,      #####,   #    #        
            '#,     ,#'  ##    ##  '#,     ,#' ,#      #,         ##   #,  ,#        
             '#######'   ##     ##  '#######'  #'      '#     #####' # '####'        



                  #######################################################
                  #                        -***-                        #
                  #          Department of theory and spectroscopy      #
                  #    Directorship and core code : Frank Neese         #
                  #        Max Planck Institute fuer Kohlenforschung    #
                  #                Kaiser Wilhelm Platz 1               #
                  #                 D-45470 Muelheim/Ruhr               #
                  #                      Germany                        #
                  #                                                     #
                  #                  All rights reserved                #
                  #                        -***-                        #
                  #######################################################


                         Program Version 5.0.2 -  RELEASE  -


 With contributions from (in alphabetic order):
   Daniel Aravena         : Magnetic Suceptibility
   Michael Atanasov       : Ab Initio Ligand Field Theory (pilot matlab implementation)
   Alexander A. Auer      : GIAO ZORA, VPT2 properties, NMR spectrum
   Ute Becker             : Parallelization
   Giovanni Bistoni       : ED, misc. LED, open-shell LED, HFLD
   Martin Brehm           : Molecular dynamics
   Dmytro Bykov           : SCF Hessian
   Vijay G. Chilkuri      : MRCI spin determinant printing, contributions to CSF-ICE
   Dipayan Datta          : RHF DLPNO-CCSD density
   Achintya Kumar Dutta   : EOM-CC, STEOM-CC
   Dmitry Ganyushin       : Spin-Orbit,Spin-Spin,Magnetic field MRCI
   Miquel Garcia          : C-PCM and meta-GGA Hessian, CC/C-PCM, Gaussian charge scheme
   Yang Guo               : DLPNO-NEVPT2, F12-NEVPT2, CIM, IAO-localization
   Andreas Hansen         : Spin unrestricted coupled pair/coupled cluster methods
   Benjamin Helmich-Paris : MC-RPA, TRAH-SCF, COSX integrals
   Lee Huntington         : MR-EOM, pCC
   Robert Izsak           : Overlap fitted RIJCOSX, COSX-SCS-MP3, EOM
   Marcus Kettner         : VPT2
   Christian Kollmar      : KDIIS, OOCD, Brueckner-CCSD(T), CCSD density, CASPT2, CASPT2-K
   Simone Kossmann        : Meta GGA functionals, TD-DFT gradient, OOMP2, MP2 Hessian
   Martin Krupicka        : Initial AUTO-CI
   Lucas Lang             : DCDCAS
   Marvin Lechner         : AUTO-CI (C++ implementation), FIC-MRCC
   Dagmar Lenk            : GEPOL surface, SMD
   Dimitrios Liakos       : Extrapolation schemes; Compound Job, initial MDCI parallelization
   Dimitrios Manganas     : Further ROCIS development; embedding schemes
   Dimitrios Pantazis     : SARC Basis sets
   Anastasios Papadopoulos: AUTO-CI, single reference methods and gradients
   Taras Petrenko         : DFT Hessian,TD-DFT gradient, ASA, ECA, R-Raman, ABS, FL, XAS/XES, NRVS
   Peter Pinski           : DLPNO-MP2, DLPNO-MP2 Gradient
   Christoph Reimann      : Effective Core Potentials
   Marius Retegan         : Local ZFS, SOC
   Christoph Riplinger    : Optimizer, TS searches, QM/MM, DLPNO-CCSD(T), (RO)-DLPNO pert. Triples
   Tobias Risthaus        : Range-separated hybrids, TD-DFT gradient, RPA, STAB
   Michael Roemelt        : Original ROCIS implementation
   Masaaki Saitow         : Open-shell DLPNO-CCSD energy and density
   Barbara Sandhoefer     : DKH picture change effects
   Avijit Sen             : IP-ROCIS
   Kantharuban Sivalingam : CASSCF convergence, NEVPT2, FIC-MRCI
   Bernardo de Souza      : ESD, SOC TD-DFT
   Georgi Stoychev        : AutoAux, RI-MP2 NMR, DLPNO-MP2 response
   Willem Van den Heuvel  : Paramagnetic NMR
   Boris Wezisla          : Elementary symmetry handling
   Frank Wennmohs         : Technical directorship


 We gratefully acknowledge several colleagues who have allowed us to
 interface, adapt or use parts of their codes:
   Stefan Grimme, W. Hujo, H. Kruse, P. Pracht,  : VdW corrections, initial TS optimization,
                  C. Bannwarth, S. Ehlert          DFT functionals, gCP, sTDA/sTD-DF
   Ed Valeev, F. Pavosevic, A. Kumar             : LibInt (2-el integral package), F12 methods
   Garnet Chan, S. Sharma, J. Yang, R. Olivares  : DMRG
   Ulf Ekstrom                                   : XCFun DFT Library
   Mihaly Kallay                                 : mrcc  (arbitrary order and MRCC methods)
   Jiri Pittner, Ondrej Demel                    : Mk-CCSD
   Frank Weinhold                                : gennbo (NPA and NBO analysis)
   Christopher J. Cramer and Donald G. Truhlar   : smd solvation model
   Lars Goerigk                                  : TD-DFT with DH, B97 family of functionals
   V. Asgeirsson, H. Jonsson                     : NEB implementation
   FAccTs GmbH                                   : IRC, NEB, NEB-TS, DLPNO-Multilevel, CI-OPT
                                                   MM, QMMM, 2- and 3-layer-ONIOM, Crystal-QMMM,
                                                   LR-CPCM, SF, NACMEs, symmetry and pop. for TD-DFT,
                                                   nearIR, NL-DFT gradient (VV10), updates on ESD,
                                                   ML-optimized integration grids
   S Lehtola, MJT Oliveira, MAL Marques          : LibXC Library
   Liviu Ungur et al                             : ANISO software


 Your calculation uses the libint2 library for the computation of 2-el integrals
 For citations please refer to: http://libint.valeyev.net

 Your ORCA version has been built with support for libXC version: 5.1.0
 For citations please refer to: https://tddft.org/programs/libxc/

 This ORCA versions uses:
   CBLAS   interface :  Fast vector & matrix operations
   LAPACKE interface :  Fast linear algebra routines
   SCALAPACK package :  Parallel linear algebra routines
   Shared memory     :  Shared parallel matrices
   BLAS/LAPACK       :  OpenBLAS 0.3.15  USE64BITINT DYNAMIC_ARCH NO_AFFINITY Haswell SINGLE_THREADED
        Core in use  :  Haswell
   Copyright (c) 2011-2014, The OpenBLAS Project


Your calculation utilizes the atom-pairwise dispersion correction
with the Becke-Johnson damping scheme (D3BJ)
Cite in your paper:
S.Grimme, S.Ehrlich, L.Goerigk, J Comput Chem, (2011), 32, 1456–1465 
S.Grimme, J.Antony, S.Ehrlich and H.Krieg, J.Chem.Phys., 132, (2010), 154104 
   

Your calculation utilizes the SMD solvation module
Please cite in your paper:
A.V. Marenich, C.J. Cramer, D.G. Truhlar J. Phys. Chem. B, 113, (2009), 6378 

================================================================================

----- Orbital basis set information -----
Your calculation utilizes the basis: aug-cc-pVTZ 
    H, B-Ne : Obtained from the ccRepo (grant-hill.group.shef.ac.uk/ccrepo) Feb. 2017
              R. A. Kendall, T. H. Dunning, Jr., R. J. Harrison, J. Chem. Phys. 96, 6796 (1992)
         He : Obtained from the ccRepo (grant-hill.group.shef.ac.uk/ccrepo) Feb. 2017
              D. E. Woon, T. H. Dunning, Jr., J. Chem. Phys. 100, 2975 (1994)
  Li-Be, Na : Obtained from the ccRepo (grant-hill.group.shef.ac.uk/ccrepo) Feb. 2017
              B. P. Prascher, D. E. Woon, K. A. Peterson, T. H. Dunning, Jr., A. K. Wilson, Theor. Chem. Acc. 128, 69 (2011)
         Mg : Obtained from the Peterson Research Group Website (tyr0.chem.wsu.edu/~kipeters) Feb. 2017
              B. P. Prascher, D. E. Woon, K. A. Peterson, T. H. Dunning, Jr., A. K. Wilson, Theor. Chem. Acc. 128, 69 (2011)
      Al-Ar : Obtained from the ccRepo (grant-hill.group.shef.ac.uk/ccrepo) Feb. 2017
              D. E. Woon, T. H. Dunning, Jr., J. Chem. Phys. 98, 1358 (1993)
      Sc-Zn : Obtained from the ccRepo (grant-hill.group.shef.ac.uk/ccrepo) Feb. 2017
              N. B. Balabanov, K. A. Peterson, J. Chem. Phys. 123, 064107 (2005)
              N. B. Balabanov, K. A. Peterson, J. Chem. Phys. 125, 074110 (2006)
      Ga-Kr : Obtained from the ccRepo (grant-hill.group.shef.ac.uk/ccrepo) Feb. 2017
              A. K. Wilson, D. E. Woon, K. A. Peterson, T. H. Dunning, Jr., J. Chem. Phys. 110, 7667 (1999)
     Ag, Au : Obtained from the Peterson Research Group Website (tyr0.chem.wsu.edu/~kipeters) Feb. 2017
              K. A. Peterson, C. Puzzarini, Theor. Chem. Acc. 114, 283 (2005)

The basis set includes element-specific modifications.

Your calculation utilizes the basis: cc-pVTZ 
       H, B-Ne : Obtained from the ccRepo (grant-hill.group.shef.ac.uk/ccrepo) Feb. 2017
                 T. H. Dunning, Jr., J. Chem. Phys. 90, 1007 (1989)
            He : Obtained from the ccRepo (grant-hill.group.shef.ac.uk/ccrepo) Feb. 2017
                 D. E. Woon, T. H. Dunning, Jr., J. Chem. Phys. 100, 2975 (1994)
  Li-Be, Na-Mg : Obtained from the ccRepo (grant-hill.group.shef.ac.uk/ccrepo) Feb. 2017
                 B. P. Prascher, D. E. Woon, K. A. Peterson, T. H. Dunning, Jr., A. K. Wilson, Theor. Chem. Acc. 128, 69 (2011)
         Al-Ar : Obtained from the ccRepo (grant-hill.group.shef.ac.uk/ccrepo) Feb. 2017
                 D. E. Woon, T. H. Dunning, Jr., J. Chem. Phys. 98, 1358 (1993)
            Ca : Obtained from the Peterson Research Group Website (tyr0.chem.wsu.edu/~kipeters) Feb. 2017
                 J. Koput, K. A. Peterson, J. Phys. Chem. 106, 9595 (2002)
         Sc-Zn : Obtained from the ccRepo (grant-hill.group.shef.ac.uk/ccrepo) Feb. 2017
                 N. B. Balabanov, K. A. Peterson, J. Chem. Phys. 123, 064107 (2005)
                 N. B. Balabanov, K. A. Peterson, J. Chem. Phys. 125, 074110 (2006)
         Ga-Kr : Obtained from the ccRepo (grant-hill.group.shef.ac.uk/ccrepo) Feb. 2017
                 A. K. Wilson, D. E. Woon, K. A. Peterson, T. H. Dunning, Jr., J. Chem. Phys. 110, 7667 (1999)
             Y : Obtained from the ccRepo (grant-hill.group.shef.ac.uk/ccrepo) Feb. 2017
                 K. A. Peterson, D. Figgen, M. Dolg, H. Stoll, J. Chem. Phys. 126, 124101 (2007)
        Ag, Au : Obtained from the Peterson Research Group Website (tyr0.chem.wsu.edu/~kipeters) Feb. 2017
                 K. A. Peterson, C. Puzzarini, Theor. Chem. Acc. 114, 283 (2005)

----- AuxJ basis set information -----
Your calculation utilizes the auxiliary basis: aug-cc-pVTZ/JK 
  H, B-F, Al-Cl, Ga-Br : Obtained from the TURBOMOLE 7.0 basis set library

The basis set includes element-specific modifications.

Your calculation utilizes the auxiliary basis: cc-pVTZ/JK 
  H, B-F, Al-Cl, Ga-Br : Obtained from the TURBOMOLE 7.0 basis set library

----- AuxC basis set information -----
Your calculation utilizes the auxiliary basis: aug-cc-pVTZ/C 
  H-He, B-F, Al-Ar, Ga-Kr : Obtained from the EMSL Basis Set Exchange (bse.pnl.gov) Feb. 2017
                            F. Weigend, A. Kohn, C. Hattig, J. Chem. Phys. 116, 3175 (2002)
                   Be, Mg : Obtained from the TURBOMOLE 7.0 basis set library
                            C. Haettig, Phys. Chem. Chem. Phys. 7, 59 (2005)
                       Ne : Obtained from the EMSL Basis Set Exchange (bse.pnl.gov) Feb. 2017
                            C. Haettig, Phys. Chem. Chem. Phys. 7, 59 (2005)
                            F. Weigend, A. Kohn, C. Hattig, J. Chem. Phys. 116, 3175 (2002)
                    Sc-Zn : Obtained from the EMSL Basis Set Exchange (bse.pnl.gov) Feb. 2017
                            J. G. Hill, J. A. Platts, J. Chem. Phys. 128, 044104 (2008)

The basis set includes element-specific modifications.

Your calculation utilizes the auxiliary basis: cc-pVTZ/C 
  Obtained from the EMSL Basis Set Exchange (bse.pnl.gov) Feb. 2017
  H-He, B-F, Al-Ar, Ga-Kr : F. Weigend, A. Kohn, C. Hattig, J. Chem. Phys. 116, 3175 (2002)
             Li-Be, Na-Mg : C. Haettig, Phys. Chem. Chem. Phys. 7, 59 (2005)
                       Ne : C. Haettig, Phys. Chem. Chem. Phys. 7, 59 (2005)
                            F. Weigend, A. Kohn, C. Hattig, J. Chem. Phys. 116, 3175 (2002)
                    Sc-Zn : J. G. Hill, J. A. Platts, J. Chem. Phys. 128, 044104 (2008)

================================================================================
                                        WARNINGS
                       Please study these warnings very carefully!
================================================================================


WARNING: Geometry Optimization
  ===> : Switching off AutoStart
         For restart on a previous wavefunction, please use MOREAD

INFO   : the flag for use of the SHARK integral package has been found!



***************************************
The coordinates will be read from file: 
***************************************


Your calculation utilizes the atom-pairwise dispersion correction
with the Becke-Johnson damping scheme (D3BJ)
Cite in your paper:
S.Grimme, S.Ehrlich, L.Goerigk, J Comput Chem, (2011), 32, 1456–1465 
S.Grimme, J.Antony, S.Ehrlich and H.Krieg, J.Chem.Phys., 132, (2010), 154104 
   

Your calculation utilizes the SMD solvation module
Please cite in your paper:
A.V. Marenich, C.J. Cramer, D.G. Truhlar J. Phys. Chem. B, 113, (2009), 6378 

================================================================================

----- Orbital basis set information -----
Your calculation utilizes the basis: aug-cc-pVTZ 
    H, B-Ne : Obtained from the ccRepo (grant-hill.group.shef.ac.uk/ccrepo) Feb. 2017
              R. A. Kendall, T. H. Dunning, Jr., R. J. Harrison, J. Chem. Phys. 96, 6796 (1992)
         He : Obtained from the ccRepo (grant-hill.group.shef.ac.uk/ccrepo) Feb. 2017
              D. E. Woon, T. H. Dunning, Jr., J. Chem. Phys. 100, 2975 (1994)
  Li-Be, Na : Obtained from the ccRepo (grant-hill.group.shef.ac.uk/ccrepo) Feb. 2017
              B. P. Prascher, D. E. Woon, K. A. Peterson, T. H. Dunning, Jr., A. K. Wilson, Theor. Chem. Acc. 128, 69 (2011)
         Mg : Obtained from the Peterson Research Group Website (tyr0.chem.wsu.edu/~kipeters) Feb. 2017
              B. P. Prascher, D. E. Woon, K. A. Peterson, T. H. Dunning, Jr., A. K. Wilson, Theor. Chem. Acc. 128, 69 (2011)
      Al-Ar : Obtained from the ccRepo (grant-hill.group.shef.ac.uk/ccrepo) Feb. 2017
              D. E. Woon, T. H. Dunning, Jr., J. Chem. Phys. 98, 1358 (1993)
      Sc-Zn : Obtained from the ccRepo (grant-hill.group.shef.ac.uk/ccrepo) Feb. 2017
              N. B. Balabanov, K. A. Peterson, J. Chem. Phys. 123, 064107 (2005)
              N. B. Balabanov, K. A. Peterson, J. Chem. Phys. 125, 074110 (2006)
      Ga-Kr : Obtained from the ccRepo (grant-hill.group.shef.ac.uk/ccrepo) Feb. 2017
              A. K. Wilson, D. E. Woon, K. A. Peterson, T. H. Dunning, Jr., J. Chem. Phys. 110, 7667 (1999)
     Ag, Au : Obtained from the Peterson Research Group Website (tyr0.chem.wsu.edu/~kipeters) Feb. 2017
              K. A. Peterson, C. Puzzarini, Theor. Chem. Acc. 114, 283 (2005)

The basis set includes element-specific modifications.

Your calculation utilizes the basis: cc-pVTZ 
       H, B-Ne : Obtained from the ccRepo (grant-hill.group.shef.ac.uk/ccrepo) Feb. 2017
                 T. H. Dunning, Jr., J. Chem. Phys. 90, 1007 (1989)
            He : Obtained from the ccRepo (grant-hill.group.shef.ac.uk/ccrepo) Feb. 2017
                 D. E. Woon, T. H. Dunning, Jr., J. Chem. Phys. 100, 2975 (1994)
  Li-Be, Na-Mg : Obtained from the ccRepo (grant-hill.group.shef.ac.uk/ccrepo) Feb. 2017
                 B. P. Prascher, D. E. Woon, K. A. Peterson, T. H. Dunning, Jr., A. K. Wilson, Theor. Chem. Acc. 128, 69 (2011)
         Al-Ar : Obtained from the ccRepo (grant-hill.group.shef.ac.uk/ccrepo) Feb. 2017
                 D. E. Woon, T. H. Dunning, Jr., J. Chem. Phys. 98, 1358 (1993)
            Ca : Obtained from the Peterson Research Group Website (tyr0.chem.wsu.edu/~kipeters) Feb. 2017
                 J. Koput, K. A. Peterson, J. Phys. Chem. 106, 9595 (2002)
         Sc-Zn : Obtained from the ccRepo (grant-hill.group.shef.ac.uk/ccrepo) Feb. 2017
                 N. B. Balabanov, K. A. Peterson, J. Chem. Phys. 123, 064107 (2005)
                 N. B. Balabanov, K. A. Peterson, J. Chem. Phys. 125, 074110 (2006)
         Ga-Kr : Obtained from the ccRepo (grant-hill.group.shef.ac.uk/ccrepo) Feb. 2017
                 A. K. Wilson, D. E. Woon, K. A. Peterson, T. H. Dunning, Jr., J. Chem. Phys. 110, 7667 (1999)
             Y : Obtained from the ccRepo (grant-hill.group.shef.ac.uk/ccrepo) Feb. 2017
                 K. A. Peterson, D. Figgen, M. Dolg, H. Stoll, J. Chem. Phys. 126, 124101 (2007)
        Ag, Au : Obtained from the Peterson Research Group Website (tyr0.chem.wsu.edu/~kipeters) Feb. 2017
                 K. A. Peterson, C. Puzzarini, Theor. Chem. Acc. 114, 283 (2005)

----- AuxJ basis set information -----
Your calculation utilizes the auxiliary basis: aug-cc-pVTZ/JK 
  H, B-F, Al-Cl, Ga-Br : Obtained from the TURBOMOLE 7.0 basis set library

The basis set includes element-specific modifications.

Your calculation utilizes the auxiliary basis: cc-pVTZ/JK 
  H, B-F, Al-Cl, Ga-Br : Obtained from the TURBOMOLE 7.0 basis set library

----- AuxC basis set information -----
Your calculation utilizes the auxiliary basis: aug-cc-pVTZ/C 
  H-He, B-F, Al-Ar, Ga-Kr : Obtained from the EMSL Basis Set Exchange (bse.pnl.gov) Feb. 2017
                            F. Weigend, A. Kohn, C. Hattig, J. Chem. Phys. 116, 3175 (2002)
                   Be, Mg : Obtained from the TURBOMOLE 7.0 basis set library
                            C. Haettig, Phys. Chem. Chem. Phys. 7, 59 (2005)
                       Ne : Obtained from the EMSL Basis Set Exchange (bse.pnl.gov) Feb. 2017
                            C. Haettig, Phys. Chem. Chem. Phys. 7, 59 (2005)
                            F. Weigend, A. Kohn, C. Hattig, J. Chem. Phys. 116, 3175 (2002)
                    Sc-Zn : Obtained from the EMSL Basis Set Exchange (bse.pnl.gov) Feb. 2017
                            J. G. Hill, J. A. Platts, J. Chem. Phys. 128, 044104 (2008)

The basis set includes element-specific modifications.

Your calculation utilizes the auxiliary basis: cc-pVTZ/C 
  Obtained from the EMSL Basis Set Exchange (bse.pnl.gov) Feb. 2017
  H-He, B-F, Al-Ar, Ga-Kr : F. Weigend, A. Kohn, C. Hattig, J. Chem. Phys. 116, 3175 (2002)
             Li-Be, Na-Mg : C. Haettig, Phys. Chem. Chem. Phys. 7, 59 (2005)
                       Ne : C. Haettig, Phys. Chem. Chem. Phys. 7, 59 (2005)
                            F. Weigend, A. Kohn, C. Hattig, J. Chem. Phys. 116, 3175 (2002)
                    Sc-Zn : J. G. Hill, J. A. Platts, J. Chem. Phys. 128, 044104 (2008)

================================================================================
                                        WARNINGS
                       Please study these warnings very carefully!
================================================================================

INFO   : Checking CIS options ...
  ===> : (D) CORRECTION FOUND - SETTING MODE=3
  ===> : JK MODE FOUND - ACTIVATING RI-MP2 CODE
  ===> : MP2 AND CIS FOUND - CHECKING
WARNING: CIS(D) and MP2 runs must have the same orbital window
  ===> : adjusting orbital windows

WARNING: No MP2 level density has been requested!
         To caclulate MP2 level properties use
         %mp2 Density relaxed end
         or
         %mp2 Density unrelaxed end
         Otherwise for double-hybrid DFT only the energy is correct!

WARNING: The frozen-core approximation is turned on by default for 
         the MP2 part of double-hybrid DFT.

INFO   : the flag for use of the SHARK integral package has been found!

================================================================================
                                       INPUT FILE
================================================================================
NAME = optpbed3-b2plyp-train-0.inp
|  1> ! pbe0 d3bj aug-cc-PVTZ RIJCOSX Opt
|  2> %maxcore 4000
|  3> %basis
|  4>  AuxJ "aug-cc-PVTZ/JK"
|  5>  AuxC "aug-cc-PVTZ/C"
|  6>  newGTO H "cc-PVTZ" end
|  7>  newAuxJGTO H "cc-PVTZ/JK" end
|  8>  newAuxCGTO H "cc-PVTZ/C" end
|  9> end
| 10> %cpcm
| 11>  SMD true
| 12>  SMDsolvent "benzene"
| 13> end
| 14> %pal nprocs 4 end
| 15> * xyz 0 1
| 16> C         -4.49800        0.16580        0.04130
| 17> C         -3.64810        1.25580        0.17290
| 18> C         -2.28180        1.07950        0.13650
| 19> C         -1.74760       -0.20460       -0.03390
| 20> N         -0.39610       -0.49050       -0.08470
| 21> N          0.39620        0.49240        0.06880
| 22> C          1.74770        0.20610        0.01640
| 23> C          2.61130        1.28860        0.21030
| 24> C          3.97790        1.09780        0.17750
| 25> C          4.49790       -0.16760       -0.04920
| 26> C          3.64700       -1.24720       -0.24490
| 27> C          2.28080       -1.06910       -0.21380
| 28> C         -2.61030       -1.29680       -0.16830
| 29> C         -3.97690       -1.10790       -0.12920
| 30> H         -5.56800        0.31100        0.07160
| 31> H         -4.06100        2.24580        0.30460
| 32> H         -1.60150        1.91160        0.23620
| 33> H          2.18550        2.26460        0.38580
| 34> H          4.64350        1.93500        0.32870
| 35> H          5.56780       -0.31440       -0.07400
| 36> H          4.05900       -2.23040       -0.42170
| 37> H          1.59970       -1.89300       -0.36320
| 38> H         -2.18350       -2.27940       -0.29950
| 39> H         -4.64170       -1.95310       -0.23180
| 40> *
| 41> 
| 42> 
| 43> $new_job
| 44> ! b2plyp aug-cc-PVTZ RIJCOSX SP
| 45> %maxcore 4000
| 46> %basis
| 47>  AuxJ "aug-cc-PVTZ/JK"
| 48>  AuxC "aug-cc-PVTZ/C"
| 49>  newGTO H "cc-PVTZ" end
| 50>  newAuxJGTO H "cc-PVTZ/JK" end
| 51>  newAuxCGTO H "cc-PVTZ/C" end
| 52> end
| 53> %cpcm
| 54>  SMD true
| 55>  SMDsolvent "benzene"
| 56> end
| 57> %pal nprocs 4 end
| 58> %tddft
| 59>  nroots 10
| 60>  maxdim 7
| 61> end
| 62> * xyzfile 0 1
| 63> 
| 64>                          ****END OF INPUT****
================================================================================


                 $$$$$$$$$$$$$$$$$$$$$$$$$$$$$$$$$$$$$$$$$$$$$$ 
                 $ THERE ARE  2 JOBS TO BE PROCESSED THIS RUN $
                 $$$$$$$$$$$$$$$$$$$$$$$$$$$$$$$$$$$$$$$$$$$$$$ 




                 $$$$$$$$$$$$$$$$  JOB NUMBER  1 $$$$$$$$$$$$$$


                       *****************************
                       * Geometry Optimization Run *
                       *****************************

Geometry optimization settings:
Update method            Update   .... BFGS
Choice of coordinates    CoordSys .... Z-matrix Internals
Initial Hessian          InHess   .... Almoef's Model

Convergence Tolerances:
Energy Change            TolE     ....  5.0000e-06 Eh
Max. Gradient            TolMAXG  ....  3.0000e-04 Eh/bohr
RMS Gradient             TolRMSG  ....  1.0000e-04 Eh/bohr
Max. Displacement        TolMAXD  ....  4.0000e-03 bohr
RMS Displacement         TolRMSD  ....  2.0000e-03 bohr
Strict Convergence                ....  False
------------------------------------------------------------------------------
                        ORCA OPTIMIZATION COORDINATE SETUP
------------------------------------------------------------------------------

The optimization will be done in new redundant internal coordinates
Making redundant internal coordinates   ...  (new redundants) done
Evaluating the initial hessian          ...  (Almloef) done
Evaluating the coordinates              ...  done
Calculating the B-matrix                .... done
Calculating the G-matrix                .... done
Diagonalizing the G-matrix              .... done
Small eigenvalue found = 3.794e-03
Small eigenvalue found = 1.454e-02
Small eigenvalue found = 2.593e-02
Small eigenvalue found = 2.847e-02
The first mode is                       ....   50
The number of degrees of freedom        ....   66

    -----------------------------------------------------------------
                    Redundant Internal Coordinates


    -----------------------------------------------------------------
         Definition                    Initial Value    Approx d2E/dq
    -----------------------------------------------------------------
      1. B(C   1,C   0)                  1.3884         0.628402   
      2. B(C   2,C   1)                  1.3781         0.652696   
      3. B(C   3,C   2)                  1.4012         0.599645   
      4. B(N   4,C   3)                  1.3823         0.575562   
      5. B(N   5,N   4)                  1.2718         0.773827   
      6. B(C   6,N   5)                  1.3825         0.575261   
      7. B(C   7,C   6)                  1.3983         0.606061   
      8. B(C   8,C   7)                  1.3802         0.647593   
      9. B(C   9,C   8)                  1.3867         0.632339   
     10. B(C  10,C   9)                  1.3885         0.628304   
     11. B(C  11,C  10)                  1.3781         0.652690   
     12. B(C  11,C   6)                  1.4012         0.599642   
     13. B(C  12,C   3)                  1.3983         0.606055   
     14. B(C  13,C  12)                  1.3801         0.647824   
     15. B(C  13,C   0)                  1.3867         0.632425   
     16. B(H  14,C   0)                  1.0802         0.373256   
     17. B(H  15,C   1)                  1.0807         0.372603   
     18. B(H  16,C   2)                  1.0794         0.374377   
     19. B(H  17,C   7)                  1.0792         0.374668   
     20. B(H  18,C   8)                  1.0802         0.373328   
     21. B(H  19,C   9)                  1.0802         0.373288   
     22. B(H  20,C  10)                  1.0806         0.372760   
     23. B(H  21,C  11)                  1.0794         0.374447   
     24. B(H  22,C  12)                  1.0793         0.374546   
     25. B(H  23,C  13)                  1.0802         0.373290   
     26. A(C   1,C   0,H  14)          119.8775         0.355873   
     27. A(C  13,C   0,H  14)          119.9429         0.356259   
     28. A(C   1,C   0,C  13)          120.1795         0.436677   
     29. A(C   0,C   1,H  15)          119.7913         0.355767   
     30. A(C   0,C   1,C   2)          120.2616         0.439168   
     31. A(C   2,C   1,H  15)          119.9471         0.358067   
     32. A(C   1,C   2,C   3)          119.8964         0.435476   
     33. A(C   3,C   2,H  16)          118.5167         0.353238   
     34. A(C   1,C   2,H  16)          121.5869         0.358357   
     35. A(N   4,C   3,C  12)          115.9841         0.423786   
     36. A(C   2,C   3,N   4)          124.5240         0.422981   
     37. A(C   2,C   3,C  12)          119.4917         0.429710   
     38. A(C   3,N   4,N   5)          116.4112         0.436968   
     39. A(N   4,N   5,C   6)          116.3850         0.436927   
     40. A(C   7,C   6,C  11)          119.4956         0.429710   
     41. A(N   5,C   6,C  11)          124.5158         0.422941   
     42. A(N   5,C   6,C   7)          115.9886         0.423747   
     43. A(C   8,C   7,H  17)          121.3008         0.357926   
     44. A(C   6,C   7,H  17)          118.6201         0.353922   
     45. A(C   6,C   7,C   8)          120.0791         0.435695   
     46. A(C   9,C   8,H  18)          119.9381         0.356262   
     47. A(C   7,C   8,H  18)          119.9758         0.357708   
     48. A(C   7,C   8,C   9)          120.0861         0.439041   
     49. A(C  10,C   9,H  19)          119.8729         0.355869   
     50. A(C   8,C   9,H  19)          119.9448         0.356256   
     51. A(C   8,C   9,C  10)          120.1823         0.436654   
     52. A(C   9,C  10,H  20)          119.7931         0.355783   
     53. A(C   9,C  10,C  11)          120.2562         0.439155   
     54. A(C  11,C  10,H  20)          119.9508         0.358092   
     55. A(C   6,C  11,C  10)          119.9006         0.435474   
     56. A(C  10,C  11,H  21)          121.5871         0.358368   
     57. A(C   6,C  11,H  21)          118.5122         0.353249   
     58. A(C  13,C  12,H  22)          121.3063         0.357928   
     59. A(C   3,C  12,H  22)          118.6088         0.353901   
     60. A(C   3,C  12,C  13)          120.0847         0.435722   
     61. A(C  12,C  13,H  23)          119.9744         0.357723   
     62. A(C   0,C  13,H  23)          119.9398         0.356264   
     63. A(C   0,C  13,C  12)          120.0858         0.439080   
     64. D(C   2,C   1,C   0,C  13)     -0.0712         0.027371   
     65. D(H  15,C   1,C   0,C  13)    179.9449         0.027371   
     66. D(C   2,C   1,C   0,H  14)    179.9468         0.027371   
     67. D(H  15,C   1,C   0,H  14)     -0.0372         0.027371   
     68. D(H  16,C   2,C   1,H  15)     -0.0436         0.029679   
     69. D(C   3,C   2,C   1,C   0)     -0.0032         0.029679   
     70. D(C   3,C   2,C   1,H  15)    179.9808         0.029679   
     71. D(H  16,C   2,C   1,C   0)    179.9724         0.029679   
     72. D(C  12,C   3,C   2,H  16)   -179.8497         0.024787   
     73. D(C  12,C   3,C   2,C   1)      0.1266         0.024787   
     74. D(N   4,C   3,C   2,C   1)    179.9769         0.024787   
     75. D(N   4,C   3,C   2,H  16)      0.0005         0.024787   
     76. D(N   5,N   4,C   3,C  12)   -178.3685         0.024072   
     77. D(N   5,N   4,C   3,C   2)      1.7765         0.024072   
     78. D(C   6,N   5,N   4,C   3)   -179.9298         0.047896   
     79. D(C  11,C   6,N   5,N   4)      1.1500         0.024045   
     80. D(C   7,C   6,N   5,N   4)   -178.8836         0.024045   
     81. D(H  17,C   7,C   6,C  11)    179.9578         0.025349   
     82. D(H  17,C   7,C   6,N   5)     -0.0104         0.025349   
     83. D(C   8,C   7,C   6,C  11)     -0.1475         0.025349   
     84. D(C   8,C   7,C   6,N   5)    179.8843         0.025349   
     85. D(H  18,C   8,C   7,H  17)     -0.0334         0.029185   
     86. D(H  18,C   8,C   7,C   6)   -179.9252         0.029185   
     87. D(C   9,C   8,C   7,H  17)    179.9588         0.029185   
     88. D(C   9,C   8,C   7,C   6)      0.0670         0.029185   
     89. D(H  19,C   9,C   8,H  18)      0.0173         0.027737   
     90. D(H  19,C   9,C   8,C   7)   -179.9749         0.027737   
     91. D(C  10,C   9,C   8,H  18)   -179.9657         0.027737   
     92. D(C  10,C   9,C   8,C   7)      0.0422         0.027737   
     93. D(C  11,C  10,C   9,H  19)    179.9471         0.027362   
     94. D(C  11,C  10,C   9,C   8)     -0.0700         0.027362   
     95. D(H  20,C  10,C   9,H  19)     -0.0233         0.027362   
     96. D(H  20,C  10,C   9,C   8)    179.9597         0.027362   
     97. D(H  21,C  11,C  10,H  20)     -0.0312         0.029679   
     98. D(H  21,C  11,C  10,C   9)    179.9984         0.029679   
     99. D(C   6,C  11,C  10,H  20)    179.9586         0.029679   
    100. D(C   6,C  11,C  10,C   9)     -0.0117         0.029679   
    101. D(H  21,C  11,C   6,C   7)   -179.8901         0.024786   
    102. D(H  21,C  11,C   6,N   5)      0.0753         0.024786   
    103. D(C  10,C  11,C   6,C   7)      0.1197         0.024786   
    104. D(C  10,C  11,C   6,N   5)   -179.9149         0.024786   
    105. D(H  22,C  12,C   3,N   4)      0.0974         0.025349   
    106. D(H  22,C  12,C   3,C   2)    179.9601         0.025349   
    107. D(C  13,C  12,C   3,N   4)    179.9598         0.025349   
    108. D(C  13,C  12,C   3,C   2)     -0.1775         0.025349   
    109. D(H  23,C  13,C  12,H  22)     -0.0543         0.029207   
    110. D(H  23,C  13,C  12,C   3)   -179.9129         0.029207   
    111. D(C   0,C  13,C  12,H  22)    179.9631         0.029207   
    112. D(C   0,C  13,C  12,C   3)      0.1045         0.029207   
    113. D(H  23,C  13,C   0,H  14)      0.0196         0.027745   
    114. D(H  23,C  13,C   0,C   1)   -179.9624         0.027745   
    115. D(C  12,C  13,C   0,H  14)   -179.9978         0.027745   
    116. D(C  12,C  13,C   0,C   1)      0.0202         0.027745   
    -----------------------------------------------------------------

Number of atoms                         .... 24
Number of degrees of freedom            .... 116

         *************************************************************
         *                GEOMETRY OPTIMIZATION CYCLE   1            *
         *************************************************************
---------------------------------
CARTESIAN COORDINATES (ANGSTROEM)
---------------------------------
  C     -4.498000    0.165800    0.041300
  C     -3.648100    1.255800    0.172900
  C     -2.281800    1.079500    0.136500
  C     -1.747600   -0.204600   -0.033900
  N     -0.396100   -0.490500   -0.084700
  N      0.396200    0.492400    0.068800
  C      1.747700    0.206100    0.016400
  C      2.611300    1.288600    0.210300
  C      3.977900    1.097800    0.177500
  C      4.497900   -0.167600   -0.049200
  C      3.647000   -1.247200   -0.244900
  C      2.280800   -1.069100   -0.213800
  C     -2.610300   -1.296800   -0.168300
  C     -3.976900   -1.107900   -0.129200
  H     -5.568000    0.311000    0.071600
  H     -4.061000    2.245800    0.304600
  H     -1.601500    1.911600    0.236200
  H      2.185500    2.264600    0.385800
  H      4.643500    1.935000    0.328700
  H      5.567800   -0.314400   -0.074000
  H      4.059000   -2.230400   -0.421700
  H      1.599700   -1.893000   -0.363200
  H     -2.183500   -2.279400   -0.299500
  H     -4.641700   -1.953100   -0.231800

----------------------------
CARTESIAN COORDINATES (A.U.)
----------------------------
  NO LB      ZA    FRAG     MASS         X           Y           Z
   0 C     6.0000    0    12.011   -8.499988    0.313317    0.078046
   1 C     6.0000    0    12.011   -6.893910    2.373118    0.326734
   2 C     6.0000    0    12.011   -4.311977    2.039959    0.257948
   3 C     6.0000    0    12.011   -3.302485   -0.386638   -0.064062
   4 N     7.0000    0    14.007   -0.748521   -0.926911   -0.160060
   5 N     7.0000    0    14.007    0.748709    0.930501    0.130013
   6 C     6.0000    0    12.011    3.302674    0.389473    0.030992
   7 C     6.0000    0    12.011    4.934642    2.435101    0.397409
   8 C     6.0000    0    12.011    7.517142    2.074541    0.335426
   9 C     6.0000    0    12.011    8.499799   -0.316718   -0.092975
  10 C     6.0000    0    12.011    6.891831   -2.356866   -0.462794
  11 C     6.0000    0    12.011    4.310087   -2.020306   -0.404023
  12 C     6.0000    0    12.011   -4.932752   -2.450597   -0.318041
  13 C     6.0000    0    12.011   -7.515252   -2.093628   -0.244153
  14 H     1.0000    0     1.008  -10.521995    0.587705    0.135304
  15 H     1.0000    0     1.008   -7.674178    4.243947    0.575611
  16 H     1.0000    0     1.008   -3.026396    3.612400    0.446353
  17 H     1.0000    0     1.008    4.129996    4.279474    0.729056
  18 H     1.0000    0     1.008    8.774943    3.656620    0.621153
  19 H     1.0000    0     1.008   10.521617   -0.594130   -0.139840
  20 H     1.0000    0     1.008    7.670398   -4.214845   -0.796898
  21 H     1.0000    0     1.008    3.022995   -3.577252   -0.686349
  22 H     1.0000    0     1.008   -4.126217   -4.307442   -0.565973
  23 H     1.0000    0     1.008   -8.771542   -3.690824   -0.438039

--------------------------------
INTERNAL COORDINATES (ANGSTROEM)
--------------------------------
 C      0   0   0     0.000000000000     0.00000000     0.00000000
 C      1   0   0     1.388433855104     0.00000000     0.00000000
 C      2   1   0     1.378108246837   120.26157454     0.00000000
 C      3   2   1     1.401184716588   119.89640254     0.00000000
 N      4   3   2     1.382342830126   124.52403695   179.97687066
 N      5   4   3     1.271768040957   116.41118021     1.77653303
 C      6   5   4     1.382485334461   116.38500841   180.07018789
 C      7   6   5     1.398287674264   115.98861298   181.11643585
 C      8   7   6     1.380244920295   120.07905042   179.88429380
 C      9   8   7     1.386733590132   120.08610835     0.06697544
 C     10   9   8     1.388475948657   120.18227578     0.04216527
 C     11  10   9     1.378110757523   120.25618147   359.93004310
 C      4   3   2     1.398290202354   119.49174315     0.12664993
 C     13   4   3     1.380147666013   120.08473803   359.82250539
 H      1   2   3     1.080231979715   119.87754285   179.94681108
 H      2   1   3     1.080708702658   119.79130019   180.01602508
 H      3   2   1     1.079415855915   121.58685731   179.97242509
 H      8   7   6     1.079204285573   118.62008240     0.00000000
 H      9   8   7     1.080179910941   119.97583724   180.07479857
 H     10   9   8     1.080208910350   119.94480258   180.02507930
 H     11  10   9     1.080594503040   119.79305369   179.95965072
 H     12  11  10     1.079364989241   121.58711090   179.99840511
 H     13   4   3     1.079293491132   118.60879550   179.96013143
 H     14  13   4     1.080207776310   119.97438081   180.08710608

---------------------------
INTERNAL COORDINATES (A.U.)
---------------------------
 C      0   0   0     0.000000000000     0.00000000     0.00000000
 C      1   0   0     2.623759741212     0.00000000     0.00000000
 C      2   1   0     2.604247169420   120.26157454     0.00000000
 C      3   2   1     2.647855377388   119.89640254     0.00000000
 N      4   3   2     2.612249372127   124.52403695   179.97687066
 N      5   4   3     2.403293303283   116.41118021     1.77653303
 C      6   5   4     2.612518666294   116.38500841   180.07018789
 C      7   6   5     2.642380760798   115.98861298   181.11643585
 C      8   7   6     2.608284897093   120.07905042   179.88429380
 C      9   8   7     2.620546706059   120.08610835     0.06697544
 C     10   9   8     2.623839286499   120.18227578     0.04216527
 C     11  10   9     2.604251913929   120.25618147   359.93004310
 C      4   3   2     2.642385538195   119.49174315     0.12664993
 C     13   4   3     2.608101113134   120.08473803   359.82250539
 H      1   2   3     2.041342602766   119.87754285   179.94681108
 H      2   1   3     2.042243478568   119.79130019   180.01602508
 H      3   2   1     2.039800352291   121.58685731   179.97242509
 H      8   7   6     2.039400542288   118.62008240     0.00000000
 H      9   8   7     2.041244207041   119.97583724   180.07479857
 H     10   9   8     2.041299007983   119.94480258   180.02507930
 H     11  10   9     2.042027672566   119.79305369   179.95965072
 H     12  11  10     2.039704228209   121.58711090   179.99840511
 H     13   4   3     2.039569116363   118.60879550   179.96013143
 H     14  13   4     2.041296864957   119.97438081   180.08710608

---------------------
BASIS SET INFORMATION
---------------------
There are 3 groups of distinct atoms

 Group   1 Type C   : 19s6p3d2f contracted to 5s4p3d2f pattern {88111/3111/111/11}
 Group   2 Type N   : 19s6p3d2f contracted to 5s4p3d2f pattern {88111/3111/111/11}
 Group   3 Type H   : 5s2p1d contracted to 3s2p1d pattern {311/11/1}

Atom   0C    basis set group =>   1
Atom   1C    basis set group =>   1
Atom   2C    basis set group =>   1
Atom   3C    basis set group =>   1
Atom   4N    basis set group =>   2
Atom   5N    basis set group =>   2
Atom   6C    basis set group =>   1
Atom   7C    basis set group =>   1
Atom   8C    basis set group =>   1
Atom   9C    basis set group =>   1
Atom  10C    basis set group =>   1
Atom  11C    basis set group =>   1
Atom  12C    basis set group =>   1
Atom  13C    basis set group =>   1
Atom  14H    basis set group =>   3
Atom  15H    basis set group =>   3
Atom  16H    basis set group =>   3
Atom  17H    basis set group =>   3
Atom  18H    basis set group =>   3
Atom  19H    basis set group =>   3
Atom  20H    basis set group =>   3
Atom  21H    basis set group =>   3
Atom  22H    basis set group =>   3
Atom  23H    basis set group =>   3
---------------------------------
AUXILIARY/J BASIS SET INFORMATION
---------------------------------
There are 3 groups of distinct atoms

 Group   1 Type C   : 10s7p5d2f1g contracted to 10s7p5d2f1g pattern {1111111111/1111111/11111/11/1}
 Group   2 Type N   : 10s7p5d2f1g contracted to 10s7p5d2f1g pattern {1111111111/1111111/11111/11/1}
 Group   3 Type H   : 4s3p2d1f contracted to 4s3p2d1f pattern {1111/111/11/1}

Atom   0C    basis set group =>   1
Atom   1C    basis set group =>   1
Atom   2C    basis set group =>   1
Atom   3C    basis set group =>   1
Atom   4N    basis set group =>   2
Atom   5N    basis set group =>   2
Atom   6C    basis set group =>   1
Atom   7C    basis set group =>   1
Atom   8C    basis set group =>   1
Atom   9C    basis set group =>   1
Atom  10C    basis set group =>   1
Atom  11C    basis set group =>   1
Atom  12C    basis set group =>   1
Atom  13C    basis set group =>   1
Atom  14H    basis set group =>   3
Atom  15H    basis set group =>   3
Atom  16H    basis set group =>   3
Atom  17H    basis set group =>   3
Atom  18H    basis set group =>   3
Atom  19H    basis set group =>   3
Atom  20H    basis set group =>   3
Atom  21H    basis set group =>   3
Atom  22H    basis set group =>   3
Atom  23H    basis set group =>   3
---------------------------------
AUXILIARY/C BASIS SET INFORMATION
---------------------------------
There are 3 groups of distinct atoms

 Group   1 Type C   : 9s7p6d4f2g contracted to 9s7p6d4f2g pattern {111111111/1111111/111111/1111/11}
 Group   2 Type N   : 9s7p6d4f2g contracted to 9s7p6d4f2g pattern {111111111/1111111/111111/1111/11}
 Group   3 Type H   : 4s3p2d1f contracted to 4s3p2d1f pattern {1111/111/11/1}

Atom   0C    basis set group =>   1
Atom   1C    basis set group =>   1
Atom   2C    basis set group =>   1
Atom   3C    basis set group =>   1
Atom   4N    basis set group =>   2
Atom   5N    basis set group =>   2
Atom   6C    basis set group =>   1
Atom   7C    basis set group =>   1
Atom   8C    basis set group =>   1
Atom   9C    basis set group =>   1
Atom  10C    basis set group =>   1
Atom  11C    basis set group =>   1
Atom  12C    basis set group =>   1
Atom  13C    basis set group =>   1
Atom  14H    basis set group =>   3
Atom  15H    basis set group =>   3
Atom  16H    basis set group =>   3
Atom  17H    basis set group =>   3
Atom  18H    basis set group =>   3
Atom  19H    basis set group =>   3
Atom  20H    basis set group =>   3
Atom  21H    basis set group =>   3
Atom  22H    basis set group =>   3
Atom  23H    basis set group =>   3


           ************************************************************
           *        Program running with 4 parallel MPI-processes     *
           *              working on a common directory               *
           ************************************************************
------------------------------------------------------------------------------
                           ORCA GTO INTEGRAL CALCULATION
                           -- RI-GTO INTEGRALS CHOSEN --
------------------------------------------------------------------------------
------------------------------------------------------------------------------
                   ___                                                        
                  /   \      - P O W E R E D   B Y -                         
                 /     \                                                     
                 |  |  |   _    _      __       _____    __    __             
                 |  |  |  | |  | |    /  \     |  _  \  |  |  /  |          
                  \  \/   | |  | |   /    \    | | | |  |  | /  /          
                 / \  \   | |__| |  /  /\  \   | |_| |  |  |/  /          
                |  |  |   |  __  | /  /__\  \  |    /   |      \           
                |  |  |   | |  | | |   __   |  |    \   |  |\   \          
                \     /   | |  | | |  |  |  |  | |\  \  |  | \   \       
                 \___/    |_|  |_| |__|  |__|  |_| \__\ |__|  \__/        
                                                                              
                      - O R C A' S   B I G   F R I E N D -                    
                                      &                                       
                       - I N T E G R A L  F E E D E R -                       
                                                                              
 v1 FN, 2020, v2 2021                                                         
------------------------------------------------------------------------------


Reading SHARK input file optpbed3-b2plyp-train-0.SHARKINP.tmp ... ok
----------------------
SHARK INTEGRAL PACKAGE
----------------------

Number of atoms                             ...     24
Number of basis functions                   ...    868
Number of shells                            ...    340
Maximum angular momentum                    ...      3
Integral batch strategy                     ... SHARK/LIBINT Hybrid
RI-J (if used) integral strategy            ... SPLIT-RIJ (Revised 2003 algorithm where possible)
Printlevel                                  ...      1
Contraction scheme used                     ... PARTIAL GENERAL contraction
Coulomb Range Separation                    ... NOT USED
Exchange Range Separation                   ... NOT USED
Finite Nucleus Model                        ... NOT USED
Auxiliary Coulomb fitting basis             ... AVAILABLE
   # of basis functions in Aux-J            ...   1406
   # of shells in Aux-J                     ...    450
   Maximum angular momentum in Aux-J        ...      4
Auxiliary J/K fitting basis                 ... NOT available
Auxiliary Correlation fitting basis         ... AVAILABLE
   # of basis functions in Aux-C            ...   1784
   # of shells in Aux-C                     ...    492
   Maximum angular momentum in Aux-C        ...      4
Auxiliary 'external' fitting basis          ... NOT available
Integral threshold                          ...     2.500000e-11
Primitive cut-off                           ...     2.500000e-12
Primitive pair pre-selection threshold      ...     2.500000e-12

Calculating pre-screening integrals         ... done (  0.2 sec) Dimension = 340
Calculating pre-screening integrals (ORCA)  ... done (  0.4 sec) Dimension = 256
Organizing shell pair data                  ... done (  0.6 sec)
Shell pair information
Total number of shell pairs                 ...     57970
Shell pairs after pre-screening             ...     40430
Total number of primitive shell pairs       ...     75538
Primitive shell pairs kept                  ...     47956
          la=0 lb=0:   9392 shell pairs
          la=1 lb=0:  10268 shell pairs
          la=1 lb=1:   2452 shell pairs
          la=2 lb=0:   6858 shell pairs
          la=2 lb=1:   3264 shell pairs
          la=2 lb=2:   1129 shell pairs
          la=3 lb=0:   3724 shell pairs
          la=3 lb=1:   1778 shell pairs
          la=3 lb=2:   1212 shell pairs
          la=3 lb=3:    353 shell pairs

Calculating one electron integrals          ... done (  0.1 sec)
Calculating RI/J V-Matrix + Cholesky decomp.... done (  0.3 sec)
Calculating RI/C V-Matrix + Cholesky decomp.... done (  0.3 sec)
Calculating Nuclear repulsion               ... done (  0.0 sec) ENN=    754.763724847319 Eh

SHARK setup successfully completed in   2.9 seconds

Maximum memory used throughout the entire GTOINT-calculation: 62.7 MB


           ************************************************************
           *        Program running with 4 parallel MPI-processes     *
           *              working on a common directory               *
           ************************************************************
-------------------------------------------------------------------------------
                                 ORCA SCF
-------------------------------------------------------------------------------

------------
SCF SETTINGS
------------
Hamiltonian:
 Density Functional     Method          .... DFT(GTOs)
 Exchange Functional    Exchange        .... PBE
   PBE kappa parameter   XKappa         ....  0.804000
   PBE mue parameter    XMuePBE         ....  0.219520
 Correlation Functional Correlation     .... PBE
   PBE beta parameter  CBetaPBE         ....  0.066725
 LDA part of GGA corr.  LDAOpt          .... PW91-LDA
 Gradients option       PostSCFGGA      .... off
 Hybrid DFT is turned on
   Fraction HF Exchange ScalHFX         ....  0.250000
   Scaling of DF-GGA-X  ScalDFX         ....  0.750000
   Scaling of DF-GGA-C  ScalDFC         ....  1.000000
   Scaling of DF-LDA-C  ScalLDAC        ....  1.000000
   Perturbative correction              ....  0.000000
   Density functional embedding theory  .... OFF
   NL short-range parameter             ....  6.900000
 RI-approximation to the Coulomb term is turned on
   Number of AuxJ basis functions       .... 1406
   RIJ-COSX (HFX calculated with COS-X)).... on


General Settings:
 Integral files         IntName         .... optpbed3-b2plyp-train-0
 Hartree-Fock type      HFTyp           .... RHF
 Total Charge           Charge          ....    0
 Multiplicity           Mult            ....    1
 Number of Electrons    NEL             ....   96
 Basis Dimension        Dim             ....  784
 Nuclear Repulsion      ENuc            ....    754.7637248473 Eh

Convergence Acceleration:
 DIIS                   CNVDIIS         .... on
   Start iteration      DIISMaxIt       ....    12
   Startup error        DIISStart       ....  0.200000
   # of expansion vecs  DIISMaxEq       ....     5
   Bias factor          DIISBfac        ....   1.050
   Max. coefficient     DIISMaxC        ....  10.000
 Trust-Rad. Augm. Hess. CNVTRAH         .... auto
   Auto Start mean grad. ratio tolernc. ....  1.125000
   Auto Start start iteration           ....    20
   Auto Start num. interpolation iter.  ....    10
   Max. Number of Micro iterations      ....    16
   Max. Number of Macro iterations      .... Maxiter - #DIIS iter
   Number of Davidson start vectors     ....     2
   Converg. threshold I  (grad. norm)   ....   1.000e-05
   Converg. threshold II (energy diff.) ....   1.000e-08
   Grad. Scal. Fac. for Micro threshold ....   0.100
   Minimum threshold for Micro iter.    ....   0.010
   NR start threshold (gradient norm)   ....   0.001
   Initial trust radius                 ....   0.400
   Minimum AH scaling param. (alpha)    ....   1.000
   Maximum AH scaling param. (alpha)    .... 1000.000
   Orbital update algorithm             .... Taylor
   White noise on init. David. guess    .... on
   Maximum white noise                  ....   0.010
   Quad. conv. algorithm                .... NR
 SOSCF                  CNVSOSCF        .... on
   Start iteration      SOSCFMaxIt      ....   150
   Startup grad/error   SOSCFStart      ....  0.003300
 Level Shifting         CNVShift        .... on
   Level shift para.    LevelShift      ....    0.2500
   Turn off err/grad.   ShiftErr        ....    0.0010
 Zerner damping         CNVZerner       .... off
 Static damping         CNVDamp         .... on
   Fraction old density DampFac         ....    0.7000
   Max. Damping (<1)    DampMax         ....    0.9800
   Min. Damping (>=0)   DampMin         ....    0.0000
   Turn off err/grad.   DampErr         ....    0.1000
 Fernandez-Rico         CNVRico         .... off

SCF Procedure:
 Maximum # iterations   MaxIter         ....   125
 SCF integral mode      SCFMode         .... Direct
   Integral package                     .... SHARK and LIBINT hybrid scheme
 Reset frequency        DirectResetFreq ....    20
 Integral Threshold     Thresh          ....  2.500e-11 Eh
 Primitive CutOff       TCut            ....  2.500e-12 Eh

Convergence Tolerance:
 Convergence Check Mode ConvCheckMode   .... Total+1el-Energy
 Convergence forced     ConvForced      .... 0
 Energy Change          TolE            ....  1.000e-08 Eh
 1-El. energy change                    ....  1.000e-05 Eh
 Orbital Gradient       TolG            ....  1.000e-05
 Orbital Rotation angle TolX            ....  1.000e-05
 DIIS Error             TolErr          ....  5.000e-07


Diagonalization of the overlap matrix:
Smallest eigenvalue                        ... 1.183e-06
Time for diagonalization                   ...    0.219 sec
Threshold for overlap eigenvalues          ... 1.000e-08
Number of eigenvalues below threshold      ... 0
Time for construction of square roots      ...    0.115 sec
Total time needed                          ...    0.338 sec

Time for model grid setup =    0.519 sec

------------------------------
INITIAL GUESS: MODEL POTENTIAL
------------------------------
Loading Hartree-Fock densities                     ... done
Calculating cut-offs                               ... done
Initializing the effective Hamiltonian             ... done
Setting up the integral package (SHARK)            ... done
Starting the Coulomb interaction                   ... done (   1.2 sec)
Reading the grid                                   ... done
Mapping shells                                     ... done
Starting the XC term evaluation                    ... done (   1.4 sec)
  promolecular density results
     # of electrons  =     95.993679595
     EX              =    -77.397727581
     EC              =     -3.194484167
     EX+EC           =    -80.592211747
Transforming the Hamiltonian                       ... done (   0.1 sec)
Diagonalizing the Hamiltonian                      ... done (   0.2 sec)
Back transforming the eigenvectors                 ... done (   0.0 sec)
Now organizing SCF variables                       ... done
                      ------------------
                      INITIAL GUESS DONE (   3.5 sec)
                      ------------------
-------------------
DFT GRID GENERATION
-------------------

General Integration Accuracy     IntAcc      ... 4.388
Radial Grid Type                 RadialGrid  ... OptM3 with GC (2021)
Angular Grid (max. ang.)         AngularGrid ... 4 (Lebedev-302)
Angular grid pruning method      GridPruning ... 4 (adaptive)
Weight generation scheme         WeightScheme... Becke
Basis function cutoff            BFCut       ... 1.0000e-11
Integration weight cutoff        WCut        ... 1.0000e-14
Angular grids for H and He will be reduced by one unit
Partially contracted basis set               ... off
Rotationally invariant grid construction     ... off

Total number of grid points                  ...   119759
Total number of batches                      ...     1886
Average number of points per batch           ...       63
Average number of grid points per atom       ...     4990
Time for grid setup =    1.811 sec

--------------------
COSX GRID GENERATION
--------------------

GRIDX 1
-------
General Integration Accuracy     IntAcc      ... 3.816
Radial Grid Type                 RadialGrid  ... OptM3 with GC (2021)
Angular Grid (max. ang.)         AngularGrid ... 1 (Lebedev-50)
Angular grid pruning method      GridPruning ... 4 (adaptive)
Weight generation scheme         WeightScheme... Becke
Basis function cutoff            BFCut       ... 1.0000e-11
Integration weight cutoff        WCut        ... 1.0000e-14
Angular grids for H and He will be reduced by one unit
Partially contracted basis set               ... on
Rotationally invariant grid construction     ... off

Total number of grid points                  ...    15306
Total number of batches                      ...      256
Average number of points per batch           ...       59
Average number of grid points per atom       ...      638
UseSFitting                                  ... on

GRIDX 2
-------
General Integration Accuracy     IntAcc      ... 4.020
Radial Grid Type                 RadialGrid  ... OptM3 with GC (2021)
Angular Grid (max. ang.)         AngularGrid ... 2 (Lebedev-110)
Angular grid pruning method      GridPruning ... 4 (adaptive)
Weight generation scheme         WeightScheme... Becke
Basis function cutoff            BFCut       ... 1.0000e-11
Integration weight cutoff        WCut        ... 1.0000e-14
Angular grids for H and He will be reduced by one unit
Partially contracted basis set               ... on
Rotationally invariant grid construction     ... off

Total number of grid points                  ...    36690
Total number of batches                      ...      583
Average number of points per batch           ...       62
Average number of grid points per atom       ...     1529
UseSFitting                                  ... on

GRIDX 3
-------
General Integration Accuracy     IntAcc      ... 4.338
Radial Grid Type                 RadialGrid  ... OptM3 with GC (2021)
Angular Grid (max. ang.)         AngularGrid ... 3 (Lebedev-194)
Angular grid pruning method      GridPruning ... 4 (adaptive)
Weight generation scheme         WeightScheme... Becke
Basis function cutoff            BFCut       ... 1.0000e-11
Integration weight cutoff        WCut        ... 1.0000e-14
Angular grids for H and He will be reduced by one unit
Partially contracted basis set               ... on
Rotationally invariant grid construction     ... off

Total number of grid points                  ...    79133
Total number of batches                      ...     1248
Average number of points per batch           ...       63
Average number of grid points per atom       ...     3297
UseSFitting                                  ... on

Time for X-Grid setup             =    4.260 sec


--------------------
CPCM SOLVATION MODEL
--------------------
CPCM parameters:
  Epsilon                                         ...       2.2706
  Refrac                                          ...       1.5011
  Rsolv                                           ...       1.3000
  Surface type                                    ... GAUSSIAN VDW
  Epsilon function type                           ...         CPCM
Solvent:                                     ... BENZENE
SMD-CDS solvent descriptors:
  Soln                                       ...    1.5011
  Soln25                                     ...    1.4972
  Sola                                       ...    0.0000
  Solb                                       ...    0.1400
  Solg                                       ...   40.6200
  Solc                                       ...    1.0000
  Solh                                       ...    0.0000
Radii:
 Radius for C  used is    3.4960 Bohr (=   1.8500 Ang.)
 Radius for N  used is    3.5716 Bohr (=   1.8900 Ang.)
 Radius for H  used is    2.2677 Bohr (=   1.2000 Ang.)
Calculating surface                               ...        done! (  0.0s)
GEPOL surface points                              ...         1407
GEPOL Volume                                      ...    1324.4442
GEPOL Surface-area                                ...     771.4012
Calculating surface distance matrix               ...        done! (  0.0s)
Performing Cholesky decomposition & store         ...        done! (  0.2s)
Overall time for CPCM initialization              ...                 0.2s
 re-compute Schwartz prescreening matrix in partically contracted basis (1) ...done (   0.181 sec)
--------------
SCF ITERATIONS
--------------
ITER       Energy         Delta-E        Max-DP      RMS-DP      [F,P]     Damp
               ***  Starting incremental Fock matrix formation  ***
  0   -572.0170928210   0.000000000000 0.08898644  0.00079761  0.1359327 0.7000
  1   -572.1281589264  -0.111066105484 0.06267062  0.00059075  0.0742519 0.7000
                               ***Turning on DIIS***
  2   -572.1813221391  -0.053163212611 0.12353265  0.00128021  0.0355292 0.0000
  3   -572.2601269536  -0.078804814549 0.02939152  0.00028409  0.0371732 0.0000
  4   -572.2770929555  -0.016966001873 0.01600880  0.00010844  0.0071704 0.0000
                      *** Initiating the SOSCF procedure ***
                           *** Shutting down DIIS ***
                      *** Re-Reading the Fockian *** 
                      *** Removing any level shift *** 
ITER      Energy       Delta-E        Grad      Rot      Max-DP    RMS-DP
  5   -572.27771626  -0.0006233036  0.001048  0.001048  0.003016  0.000030
               *** Restarting incremental Fock matrix formation ***
  6   -572.27776585  -0.0000495949  0.000336  0.001385  0.015068  0.000252
  7   -572.27777012  -0.0000042674  0.000385  0.001516  0.003945  0.000067
  8   -572.27777236  -0.0000022357  0.000189  0.000592  0.003861  0.000065
  9   -572.27777272  -0.0000003659  0.000049  0.000076  0.000819  0.000011
 10   -572.27777292  -0.0000001944  0.000017  0.000091  0.002837  0.000018
 11   -572.27777293  -0.0000000132  0.000012  0.000023  0.002370  0.000012
 12   -572.27777296  -0.0000000316  0.000005  0.000027  0.002519  0.000015
                  ***Gradient check signals convergence***
              ***Rediagonalizing the Fockian in SOSCF/NRSCF***

               *****************************************************
               *                     SUCCESS                       *
               *           SCF CONVERGED AFTER  13 CYCLES          *
               *****************************************************

Old exchange energy                            =    -19.743834162 Eh
New exchange energy                            =    -19.743805833 Eh
Exchange energy change after final integration =      0.000028329 Eh
Total energy after final integration           =   -572.277744641 Eh
Final COS-X integration done in                =    71.939 sec

SMD CDS free energy correction energy :                -5.78691     Kcal/mol
Total Energy after SMD CDS correction =              -572.286966663 Eh

----------------
TOTAL SCF ENERGY
----------------

Total Energy       :         -572.28696666 Eh          -15572.72006 eV

Components:
Nuclear Repulsion  :          754.76372485 Eh           20538.16509 eV
Electronic Energy  :        -1327.05069151 Eh          -36110.88516 eV
One Electron Energy:        -2270.29430194 Eh          -61777.84868 eV
Two Electron Energy:          943.24361043 Eh           25666.96352 eV
Max COSX asymmetry :            0.00001224 Eh               0.00033 eV
CPCM Dielectric    :           -0.00644550 Eh              -0.17539 eV
SMD CDS (Gcds)     :           -0.00922202 Eh              -0.25094 eV

Virial components:
Potential Energy   :        -1141.32008360 Eh          -31056.89838 eV
Kinetic Energy     :          569.03311694 Eh           15484.17831 eV
Virial Ratio       :            2.00571821


DFT components:
N(Alpha)           :       48.000022987182 electrons
N(Beta)            :       48.000022987182 electrons
N(Total)           :       96.000045974364 electrons
E(X)               :      -59.089536848588 Eh       
E(C)               :       -3.199852186936 Eh       
E(XC)              :      -62.289389035524 Eh       
DFET-embed. en.    :        0.000000000000 Eh       
CPCM Solvation Model Properties:
Surface-charge          :           -0.05613997
Charge-correction       :            0.00008966 Eh               0.00244 eV
Free-energy (cav+disp)  :           -0.00922202 Eh              -0.25094 eV

---------------
SCF CONVERGENCE
---------------

  Last Energy change         ...   -7.3127e-09  Tolerance :   1.0000e-08
  Last MAX-Density change    ...    2.2794e-15  Tolerance :   1.0000e-07
  Last RMS-Density change    ...    1.3000e-17  Tolerance :   5.0000e-09
  Last Orbital Gradient      ...    1.7331e-06  Tolerance :   1.0000e-05
  Last Orbital Rotation      ...    2.7757e-06  Tolerance :   1.0000e-05

             **** THE GBW FILE WAS UPDATED (optpbed3-b2plyp-train-0.gbw) ****
             **** DENSITY optpbed3-b2plyp-train-0.scfp WAS UPDATED ****
             **** ENERGY FILE WAS UPDATED (optpbed3-b2plyp-train-0.en.tmp) ****
             **** THE GBW FILE WAS UPDATED (optpbed3-b2plyp-train-0.gbw) ****
             **** DENSITY optpbed3-b2plyp-train-0.scfp WAS UPDATED ****
----------------
ORBITAL ENERGIES
----------------

  NO   OCC          E(Eh)            E(eV) 
   0   2.0000     -14.433651      -392.7596 
   1   2.0000     -14.433155      -392.7461 
   2   2.0000     -10.261497      -279.2295 
   3   2.0000     -10.261486      -279.2292 
   4   2.0000     -10.236553      -278.5508 
   5   2.0000     -10.236545      -278.5506 
   6   2.0000     -10.235596      -278.5247 
   7   2.0000     -10.235588      -278.5245 
   8   2.0000     -10.234256      -278.4883 
   9   2.0000     -10.234231      -278.4876 
  10   2.0000     -10.233421      -278.4655 
  11   2.0000     -10.233419      -278.4655 
  12   2.0000     -10.233336      -278.4632 
  13   2.0000     -10.233304      -278.4624 
  14   2.0000      -1.063070       -28.9276 
  15   2.0000      -0.909829       -24.7577 
  16   2.0000      -0.888124       -24.1671 
  17   2.0000      -0.834463       -22.7069 
  18   2.0000      -0.782191       -21.2845 
  19   2.0000      -0.781096       -21.2547 
  20   2.0000      -0.768610       -20.9149 
  21   2.0000      -0.709045       -19.2941 
  22   2.0000      -0.645421       -17.5628 
  23   2.0000      -0.637744       -17.3539 
  24   2.0000      -0.621705       -16.9175 
  25   2.0000      -0.588248       -16.0071 
  26   2.0000      -0.554220       -15.0811 
  27   2.0000      -0.525944       -14.3117 
  28   2.0000      -0.504566       -13.7300 
  29   2.0000      -0.493938       -13.4407 
  30   2.0000      -0.470796       -12.8110 
  31   2.0000      -0.457467       -12.4483 
  32   2.0000      -0.455260       -12.3883 
  33   2.0000      -0.447008       -12.1637 
  34   2.0000      -0.443265       -12.0618 
  35   2.0000      -0.440878       -11.9969 
  36   2.0000      -0.413203       -11.2438 
  37   2.0000      -0.402482       -10.9521 
  38   2.0000      -0.378174       -10.2906 
  39   2.0000      -0.375156       -10.2085 
  40   2.0000      -0.372795       -10.1443 
  41   2.0000      -0.358941        -9.7673 
  42   2.0000      -0.356334        -9.6963 
  43   2.0000      -0.297729        -8.1016 
  44   2.0000      -0.277331        -7.5466 
  45   2.0000      -0.277071        -7.5395 
  46   2.0000      -0.247950        -6.7471 
  47   2.0000      -0.242859        -6.6085 
  48   0.0000      -0.094417        -2.5692 
  49   0.0000      -0.015162        -0.4126 
  50   0.0000      -0.012002        -0.3266 
  51   0.0000      -0.000068        -0.0019 
  52   0.0000       0.008452         0.2300 
  53   0.0000       0.011067         0.3012 
  54   0.0000       0.019816         0.5392 
  55   0.0000       0.028337         0.7711 
  56   0.0000       0.030726         0.8361 
  57   0.0000       0.038410         1.0452 
  58   0.0000       0.045169         1.2291 
  59   0.0000       0.045689         1.2433 
  60   0.0000       0.045882         1.2485 
  61   0.0000       0.047690         1.2977 
  62   0.0000       0.055190         1.5018 
  63   0.0000       0.061124         1.6633 
  64   0.0000       0.068007         1.8506 
  65   0.0000       0.069219         1.8835 
  66   0.0000       0.071650         1.9497 
  67   0.0000       0.073002         1.9865 
  68   0.0000       0.082402         2.2423 
  69   0.0000       0.092023         2.5041 
  70   0.0000       0.092710         2.5228 
  71   0.0000       0.103134         2.8064 
  72   0.0000       0.103792         2.8243 
  73   0.0000       0.105538         2.8718 
  74   0.0000       0.111558         3.0356 
  75   0.0000       0.115408         3.1404 
  76   0.0000       0.117560         3.1990 
  77   0.0000       0.124607         3.3907 
  78   0.0000       0.124644         3.3917 
  79   0.0000       0.129073         3.5123 
  80   0.0000       0.132178         3.5968 
  81   0.0000       0.134659         3.6642 
  82   0.0000       0.134750         3.6667 
  83   0.0000       0.141528         3.8512 
  84   0.0000       0.143682         3.9098 
  85   0.0000       0.148033         4.0282 
  86   0.0000       0.150101         4.0845 
  87   0.0000       0.151233         4.1153 
  88   0.0000       0.153519         4.1775 
  89   0.0000       0.155016         4.2182 
  90   0.0000       0.155824         4.2402 
  91   0.0000       0.164704         4.4818 
  92   0.0000       0.166647         4.5347 
  93   0.0000       0.171896         4.6775 
  94   0.0000       0.172660         4.6983 
  95   0.0000       0.176108         4.7921 
  96   0.0000       0.177110         4.8194 
  97   0.0000       0.181708         4.9445 
  98   0.0000       0.186590         5.0774 
  99   0.0000       0.187373         5.0987 
 100   0.0000       0.194817         5.3012 
 101   0.0000       0.198450         5.4001 
 102   0.0000       0.205206         5.5839 
 103   0.0000       0.206337         5.6147 
 104   0.0000       0.215915         5.8753 
 105   0.0000       0.219511         5.9732 
 106   0.0000       0.220812         6.0086 
 107   0.0000       0.226990         6.1767 
 108   0.0000       0.229808         6.2534 
 109   0.0000       0.233716         6.3597 
 110   0.0000       0.237589         6.4651 
 111   0.0000       0.237612         6.4658 
 112   0.0000       0.245046         6.6680 
 113   0.0000       0.245158         6.6711 
 114   0.0000       0.249872         6.7994 
 115   0.0000       0.251427         6.8417 
 116   0.0000       0.255611         6.9555 
 117   0.0000       0.258968         7.0469 
 118   0.0000       0.264959         7.2099 
 119   0.0000       0.266223         7.2443 
 120   0.0000       0.274631         7.4731 
 121   0.0000       0.280852         7.6424 
 122   0.0000       0.282590         7.6897 
 123   0.0000       0.289102         7.8669 
 124   0.0000       0.293597         7.9892 
 125   0.0000       0.298196         8.1143 
 126   0.0000       0.298961         8.1351 
 127   0.0000       0.305202         8.3050 
 128   0.0000       0.307044         8.3551 
 129   0.0000       0.309240         8.4149 
 130   0.0000       0.314445         8.5565 
 131   0.0000       0.319358         8.6902 
 132   0.0000       0.320299         8.7158 
 133   0.0000       0.325152         8.8478 
 134   0.0000       0.329878         8.9764 
 135   0.0000       0.343601         9.3499 
 136   0.0000       0.348370         9.4796 
 137   0.0000       0.348834         9.4922 
 138   0.0000       0.349192         9.5020 
 139   0.0000       0.350764         9.5448 
 140   0.0000       0.358647         9.7593 
 141   0.0000       0.367749        10.0070 
 142   0.0000       0.371591        10.1115 
 143   0.0000       0.377644        10.2762 
 144   0.0000       0.379693        10.3320 
 145   0.0000       0.381705        10.3867 
 146   0.0000       0.385545        10.4912 
 147   0.0000       0.387774        10.5519 
 148   0.0000       0.392098        10.6695 
 149   0.0000       0.394297        10.7294 
 150   0.0000       0.397927        10.8282 
 151   0.0000       0.402671        10.9572 
 152   0.0000       0.405214        11.0264 
 153   0.0000       0.405689        11.0394 
 154   0.0000       0.406920        11.0729 
 155   0.0000       0.413714        11.2577 
 156   0.0000       0.414104        11.2683 
 157   0.0000       0.418167        11.3789 
 158   0.0000       0.418953        11.4003 
 159   0.0000       0.420640        11.4462 
 160   0.0000       0.429060        11.6753 
 161   0.0000       0.430590        11.7169 
 162   0.0000       0.432989        11.7822 
 163   0.0000       0.438593        11.9347 
 164   0.0000       0.438887        11.9427 
 165   0.0000       0.440243        11.9796 
 166   0.0000       0.443192        12.0599 
 167   0.0000       0.447538        12.1781 
 168   0.0000       0.458195        12.4681 
 169   0.0000       0.458428        12.4745 
 170   0.0000       0.472004        12.8439 
 171   0.0000       0.475615        12.9421 
 172   0.0000       0.480000        13.0615 
 173   0.0000       0.486634        13.2420 
 174   0.0000       0.488704        13.2983 
 175   0.0000       0.489013        13.3067 
 176   0.0000       0.494924        13.4676 
 177   0.0000       0.502715        13.6796 
 178   0.0000       0.503442        13.6994 
 179   0.0000       0.509258        13.8576 
 180   0.0000       0.511209        13.9107 
 181   0.0000       0.520372        14.1600 
 182   0.0000       0.520655        14.1677 
 183   0.0000       0.524316        14.2674 
 184   0.0000       0.537578        14.6282 
 185   0.0000       0.539271        14.6743 
 186   0.0000       0.543624        14.7927 
 187   0.0000       0.552698        15.0397 
 188   0.0000       0.565340        15.3837 
 189   0.0000       0.568818        15.4783 
 190   0.0000       0.590177        16.0595 
 191   0.0000       0.592348        16.1186 
 192   0.0000       0.593833        16.1590 
 193   0.0000       0.602174        16.3860 
 194   0.0000       0.606208        16.4958 
 195   0.0000       0.608901        16.5690 
 196   0.0000       0.611042        16.6273 
 197   0.0000       0.630866        17.1667 
 198   0.0000       0.638553        17.3759 
 199   0.0000       0.641217        17.4484 
 200   0.0000       0.647930        17.6311 
 201   0.0000       0.648015        17.6334 
 202   0.0000       0.654377        17.8065 
 203   0.0000       0.654721        17.8159 
 204   0.0000       0.660887        17.9837 
 205   0.0000       0.663657        18.0590 
 206   0.0000       0.675037        18.3687 
 207   0.0000       0.676466        18.4076 
 208   0.0000       0.678736        18.4693 
 209   0.0000       0.688267        18.7287 
 210   0.0000       0.688751        18.7419 
 211   0.0000       0.693715        18.8770 
 212   0.0000       0.696199        18.9445 
 213   0.0000       0.698863        19.0170 
 214   0.0000       0.707388        19.2490 
 215   0.0000       0.710587        19.3360 
 216   0.0000       0.714504        19.4426 
 217   0.0000       0.715510        19.4700 
 218   0.0000       0.718489        19.5511 
 219   0.0000       0.719693        19.5838 
 220   0.0000       0.732622        19.9357 
 221   0.0000       0.741996        20.1908 
 222   0.0000       0.750889        20.4327 
 223   0.0000       0.751719        20.4553 
 224   0.0000       0.753042        20.4913 
 225   0.0000       0.754625        20.5344 
 226   0.0000       0.763192        20.7675 
 227   0.0000       0.764630        20.8066 
 228   0.0000       0.765839        20.8395 
 229   0.0000       0.772024        21.0078 
 230   0.0000       0.773404        21.0454 
 231   0.0000       0.780129        21.2284 
 232   0.0000       0.782391        21.2899 
 233   0.0000       0.783131        21.3101 
 234   0.0000       0.787993        21.4424 
 235   0.0000       0.795822        21.6554 
 236   0.0000       0.796859        21.6836 
 237   0.0000       0.814375        22.1603 
 238   0.0000       0.819434        22.2979 
 239   0.0000       0.819897        22.3105 
 240   0.0000       0.833838        22.6899 
 241   0.0000       0.835171        22.7262 
 242   0.0000       0.841606        22.9013 
 243   0.0000       0.846591        23.0369 
 244   0.0000       0.850821        23.1520 
 245   0.0000       0.851823        23.1793 
 246   0.0000       0.867252        23.5991 
 247   0.0000       0.869874        23.6705 
 248   0.0000       0.875287        23.8178 
 249   0.0000       0.879689        23.9376 
 250   0.0000       0.880893        23.9703 
 251   0.0000       0.888600        24.1800 
 252   0.0000       0.896343        24.3907 
 253   0.0000       0.899893        24.4873 
 254   0.0000       0.901461        24.5300 
 255   0.0000       0.907376        24.6910 
 256   0.0000       0.911937        24.8151 
 257   0.0000       0.915318        24.9071 
 258   0.0000       0.918497        24.9936 
 259   0.0000       0.919912        25.0321 
 260   0.0000       0.931195        25.3391 
 261   0.0000       0.933946        25.4140 
 262   0.0000       0.934375        25.4256 
 263   0.0000       0.942770        25.6541 
 264   0.0000       0.949684        25.8422 
 265   0.0000       0.957954        26.0673 
 266   0.0000       0.960122        26.1262 
 267   0.0000       0.972788        26.4709 
 268   0.0000       0.976122        26.5616 
 269   0.0000       0.979964        26.6662 
 270   0.0000       0.991753        26.9870 
 271   0.0000       0.992797        27.0154 
 272   0.0000       0.998657        27.1748 
 273   0.0000       1.001723        27.2583 
 274   0.0000       1.010269        27.4908 
 275   0.0000       1.013078        27.5673 
 276   0.0000       1.018325        27.7100 
 277   0.0000       1.028781        27.9945 
 278   0.0000       1.052121        28.6297 
 279   0.0000       1.059747        28.8372 
 280   0.0000       1.070544        29.1310 
 281   0.0000       1.081297        29.4236 
 282   0.0000       1.086472        29.5644 
 283   0.0000       1.089702        29.6523 
 284   0.0000       1.099020        29.9059 
 285   0.0000       1.117927        30.4203 
 286   0.0000       1.122583        30.5470 
 287   0.0000       1.126277        30.6476 
 288   0.0000       1.131384        30.7865 
 289   0.0000       1.148328        31.2476 
 290   0.0000       1.156433        31.4681 
 291   0.0000       1.163673        31.6652 
 292   0.0000       1.177613        32.0445 
 293   0.0000       1.180481        32.1225 
 294   0.0000       1.201456        32.6933 
 295   0.0000       1.214240        33.0411 
 296   0.0000       1.224196        33.3121 
 297   0.0000       1.226430        33.3729 
 298   0.0000       1.236769        33.6542 
 299   0.0000       1.243420        33.8352 
 300   0.0000       1.246316        33.9140 
 301   0.0000       1.246670        33.9236 
 302   0.0000       1.247289        33.9405 
 303   0.0000       1.255979        34.1769 
 304   0.0000       1.270693        34.5773 
[...]
   Forming the XC and CPCM contribution:
   Time for densities:            0.174
   Time for XC-Integration:      13.661
   Time for LR-CPCM terms:        6.302
   Time for Sigma-Completion:     0.113
   Time for building 10 sigma-vectors
   Data Preparation Phase         ...     0.01 sec
   Transformed RI Coulomb         ...     0.47 sec
   Transformed RI-exchange        ...   109.17 sec
   (ab|v) reading and digestion   ...   103.21 sec
   Final sigma-completion         ...     0.00 sec
   Done building sigma-vectors             Size of expansion space: 70
   Lowest Energy          :     0.110463106358
   Maximum Energy change  :     0.005563416481 (vector 9)
   Maximum residual norm  :     0.000920407735
   Rebuilding the expansion space

                       ****Iteration    5****
              <<< Entering MO-section for Build Sigma(Double) >>>
   Forming the XC and CPCM contribution:
   Time for densities:            0.385
   Time for XC-Integration:      29.591
   Time for LR-CPCM terms:       10.074
   Time for Sigma-Completion:     0.243
   Time for building 20 sigma-vectors
   Data Preparation Phase         ...     0.01 sec
   Transformed RI Coulomb         ...     0.80 sec
   Transformed RI-exchange        ...   408.32 sec
   (ab|v) reading and digestion   ...   394.11 sec
   Final sigma-completion         ...     0.01 sec
   Done building sigma-vectors             Size of expansion space: 20
   Lowest Energy          :     0.110463064839
   Maximum Energy change  :     0.001312926526 (vector 9)
   Maximum residual norm  :     0.000171545894

                       ****Iteration    6****
              <<< Entering MO-section for Build Sigma(Double) >>>
   Forming the XC and CPCM contribution:
   Time for densities:            0.182
   Time for XC-Integration:      14.136
   Time for LR-CPCM terms:        6.317
   Time for Sigma-Completion:     0.143
   Time for building 10 sigma-vectors
   Data Preparation Phase         ...     0.01 sec
   Transformed RI Coulomb         ...     0.47 sec
   Transformed RI-exchange        ...   113.44 sec
   (ab|v) reading and digestion   ...   107.39 sec
   Final sigma-completion         ...     0.00 sec
   Done building sigma-vectors             Size of expansion space: 30
   Lowest Energy          :     0.110463059619
   Maximum Energy change  :     0.000360475858 (vector 9)
   Maximum residual norm  :     0.000051902374

                       ****Iteration    7****
              <<< Entering MO-section for Build Sigma(Double) >>>
   Forming the XC and CPCM contribution:
   Time for densities:            0.187
   Time for XC-Integration:      14.941
   Time for LR-CPCM terms:        6.312
   Time for Sigma-Completion:     0.120
   Time for building 10 sigma-vectors
   Data Preparation Phase         ...     0.01 sec
   Transformed RI Coulomb         ...     0.49 sec
   Transformed RI-exchange        ...   122.29 sec
   (ab|v) reading and digestion   ...   115.26 sec
   Final sigma-completion         ...     0.00 sec
   Done building sigma-vectors             Size of expansion space: 40
   Lowest Energy          :     0.110463059364
   Maximum Energy change  :     0.000099382594 (vector 9)
   Maximum residual norm  :     0.000016691506

                       ****Iteration    8****
              <<< Entering MO-section for Build Sigma(Double) >>>
   Forming the XC and CPCM contribution:
   Time for densities:            0.190
   Time for XC-Integration:      13.541
   Time for LR-CPCM terms:        6.235
   Time for Sigma-Completion:     0.136
   Time for building 10 sigma-vectors
   Data Preparation Phase         ...     0.01 sec
   Transformed RI Coulomb         ...     0.47 sec
   Transformed RI-exchange        ...    99.73 sec
   (ab|v) reading and digestion   ...    85.67 sec
   Final sigma-completion         ...     0.00 sec
   Done building sigma-vectors             Size of expansion space: 50
   Lowest Energy          :     0.110463059353
   Maximum Energy change  :     0.000037038503 (vector 9)
   Maximum residual norm  :     0.000002872860

                       ****Iteration    9****
              <<< Entering MO-section for Build Sigma(Double) >>>
   Forming the XC and CPCM contribution:
   Time for densities:            0.195
   Time for XC-Integration:      14.977
   Time for LR-CPCM terms:        6.442
   Time for Sigma-Completion:     0.139
   Time for building 10 sigma-vectors
   Data Preparation Phase         ...     0.01 sec
   Transformed RI Coulomb         ...     0.44 sec
   Transformed RI-exchange        ...   119.22 sec
   (ab|v) reading and digestion   ...   111.70 sec
   Final sigma-completion         ...     0.00 sec
   Done building sigma-vectors             Size of expansion space: 60
   Lowest Energy          :     0.110463059352
   Maximum Energy change  :     0.000007044863 (vector 9)
   Maximum residual norm  :     0.000000717752

      *** CONVERGENCE OF RESIDUAL NORM REACHED ***

Storing the converged CI vectors               ... optpbed3-b2plyp-train-0_job2.cis1

                 *** DAVIDSON DONE ***

Total time for solving the CIS problem:  1580.716sec

------------------
DOUBLES CORRECTION (Double precision version)
------------------

The (D) correction will be scaled by  0.2700
Doing v(i,a)*T(i,a) terms (RI)                    ... ok
Doing u(i,j,a,b) terms for state   0              ... ok
Doing u(i,j,a,b) terms for state   1              ... ok
Doing u(i,j,a,b) terms for state   2              ... ok
Doing u(i,j,a,b) terms for state   3              ... ok
Doing u(i,j,a,b) terms for state   4              ... ok
Doing u(i,j,a,b) terms for state   5              ... ok
Doing u(i,j,a,b) terms for state   6              ... ok
Doing u(i,j,a,b) terms for state   7              ... ok
Doing u(i,j,a,b) terms for state   8              ... ok
Doing u(i,j,a,b) terms for state   9              ... ok

Contributions to the (D) correction(s) (in eV)

STATE  Final   Init.   Total   v(ext)   v(int)  v(3)    u
       omega   omega     (D)                             
-----------------------------------------------------------------------------
   0   2.750   3.006  -0.256   0.714   0.751  -0.037  -1.685
   1   3.800   4.034  -0.234   0.650   1.005  -0.060  -1.829
   2   4.291   4.867  -0.576   0.621   0.896  -0.033  -2.060
   3   4.303   4.882  -0.579   0.625   0.892  -0.033  -2.064
   4   5.055   5.539  -0.484   0.615   0.914  -0.062  -1.951
   5   5.577   6.076  -0.499   0.463   0.969  -0.074  -1.857
   6   5.608   6.162  -0.553   0.482   0.964  -0.059  -1.940
   7   6.058   6.177  -0.119   0.054   1.001  -0.003  -1.170
   8   6.208   6.326  -0.118   0.034   0.991  -0.002  -1.141
   9   6.136   6.380  -0.244   0.438   0.957  -0.048  -1.591

(D)-timings
 V(i,a)*T(i,a) terms           ...   150.782 sec
 U(i,j,a,b) 3-internal         ...     3.790 sec
 U(i,j,a,b) 3-external         ...   143.460 sec
 U(i,j,a,b) pair terms         ...    70.886 sec
 Total measured time           ...   630.984 sec

 Time for (ab|v) I/O           ...    33.891 sec


------------------------------------
TD-DFT/TDA EXCITED STATES (SINGLETS)
------------------------------------

the weight of the individual excitations are printed if larger than 1.0e-02

STATE  1:  E=   0.101057 au      2.750 eV    22179.4 cm**-1 <S**2> =   0.000000
    44a ->  48a  :     0.895497 (c= -0.94630699)
    44a ->  67a  :     0.055591 (c= -0.23577700)

STATE  2:  E=   0.139665 au      3.800 eV    30652.9 cm**-1 <S**2> =   0.000000
    47a ->  48a  :     0.957243 (c= -0.97838809)

STATE  3:  E=   0.157705 au      4.291 eV    34612.2 cm**-1 <S**2> =   0.000000
    43a ->  53a  :     0.033855 (c=  0.18399840)
    45a ->  56a  :     0.029697 (c=  0.17232738)
    46a ->  48a  :     0.796116 (c=  0.89225323)
    47a ->  52a  :     0.110625 (c=  0.33260367)

STATE  4:  E=   0.158120 au      4.303 eV    34703.4 cm**-1 <S**2> =   0.000000
    43a ->  52a  :     0.032896 (c= -0.18137317)
    45a ->  48a  :     0.814891 (c= -0.90271301)
    46a ->  56a  :     0.029747 (c= -0.17247443)
    47a ->  53a  :     0.090980 (c= -0.30162942)

STATE  5:  E=   0.185769 au      5.055 eV    40771.7 cm**-1 <S**2> =   0.000000
    43a ->  48a  :     0.812092 (c= -0.90116166)
    45a ->  48a  :     0.016454 (c= -0.12827327)
    45a ->  52a  :     0.042460 (c=  0.20605943)
    46a ->  53a  :     0.024778 (c=  0.15741035)
    47a ->  53a  :     0.039419 (c=  0.19854302)

STATE  6:  E=   0.204968 au      5.577 eV    44985.2 cm**-1 <S**2> =   0.000000
    43a ->  53a  :     0.053677 (c=  0.23168258)
    45a ->  56a  :     0.027974 (c=  0.16725542)
    45a ->  60a  :     0.016074 (c=  0.12678143)
    46a ->  48a  :     0.160175 (c= -0.40021846)
    46a ->  67a  :     0.015510 (c= -0.12453997)
    47a ->  52a  :     0.672885 (c=  0.82029581)

STATE  7:  E=   0.206099 au      5.608 eV    45233.6 cm**-1 <S**2> =   0.000000
    43a ->  48a  :     0.083652 (c= -0.28922588)
    43a ->  52a  :     0.052278 (c= -0.22864455)
    45a ->  48a  :     0.113113 (c=  0.33632278)
    45a ->  52a  :     0.022690 (c= -0.15063078)
    45a ->  67a  :     0.012070 (c=  0.10986139)
    46a ->  56a  :     0.033686 (c= -0.18353666)
    46a ->  60a  :     0.015703 (c= -0.12530975)
    47a ->  49a  :     0.021183 (c=  0.14554251)
    47a ->  53a  :     0.582303 (c= -0.76308752)
    47a ->  56a  :     0.010836 (c=  0.10409679)

STATE  8:  E=   0.222631 au      6.058 eV    48861.9 cm**-1 <S**2> =   0.000000
    43a ->  50a  :     0.050509 (c=  0.22474183)
    47a ->  49a  :     0.813130 (c= -0.90173743)
    47a ->  53a  :     0.014402 (c= -0.12000760)
    47a ->  54a  :     0.027207 (c= -0.16494545)
    47a ->  59a  :     0.056765 (c= -0.23825323)

STATE  9:  E=   0.228129 au      6.208 eV    50068.6 cm**-1 <S**2> =   0.000000
    43a ->  49a  :     0.089557 (c= -0.29926080)
    47a ->  50a  :     0.851049 (c=  0.92252315)
    47a ->  63a  :     0.016281 (c= -0.12759525)

STATE 10:  E=   0.225484 au      6.136 eV    49488.0 cm**-1 <S**2> =   0.000000
    43a ->  48a  :     0.013018 (c= -0.11409594)
    43a ->  52a  :     0.031741 (c=  0.17815924)
    43a ->  67a  :     0.014886 (c= -0.12200668)
    45a ->  48a  :     0.021819 (c= -0.14771324)
    45a ->  52a  :     0.132934 (c= -0.36460124)
    46a ->  53a  :     0.149288 (c= -0.38637787)
    47a ->  56a  :     0.556553 (c=  0.74602476)
    47a ->  60a  :     0.014776 (c=  0.12155834)


-----------------------------
TD-DFT/TDA-EXCITATION SPECTRA
-----------------------------

Center of mass = ( -0.0000, -0.0004, -0.0119)
Calculating the Dipole integrals                  ... done
Transforming integrals                            ... done
Calculating the Linear Momentum integrals         ... done
Transforming integrals                            ... done
Calculating angular momentum integrals            ... done
Transforming integrals                            ... done

-----------------------------------------------------------------------------
         ABSORPTION SPECTRUM VIA TRANSITION ELECTRIC DIPOLE MOMENTS
-----------------------------------------------------------------------------
State   Energy    Wavelength  fosc         T2        TX        TY        TZ  
        (cm-1)      (nm)                 (au**2)    (au)      (au)      (au) 
-----------------------------------------------------------------------------
   1   22179.4    450.9   0.000256952   0.00381   0.06175  -0.00066  -0.00037
   2   30652.9    326.2   1.108271035  11.90282   3.44832  -0.10415  -0.03270
   3   34612.2    288.9   0.059115835   0.56228   0.32267   0.66913   0.10209
   4   34703.4    288.2   0.000036825   0.00035  -0.00194  -0.00398  -0.01816
   5   40771.7    245.3   0.000029753   0.00024   0.00081   0.00344  -0.01509
   6   44985.2    222.3   0.591771578   4.33072  -1.39725  -1.52476  -0.23137
   7   45233.6    221.1   0.000089788   0.00065  -0.00437  -0.00585   0.02450
   8   48861.9    204.7   0.000834200   0.00562   0.00692  -0.00483   0.07449
   9   50068.6    199.7   0.000051376   0.00034  -0.01306  -0.01271  -0.00242
  10   49488.0    202.1   0.000060946   0.00041  -0.00741   0.00741  -0.01719

-----------------------------------------------------------------------------
         ABSORPTION SPECTRUM VIA TRANSITION VELOCITY DIPOLE MOMENTS
-----------------------------------------------------------------------------
State   Energy    Wavelength   fosc        P2         PX        PY        PZ  
        (cm-1)      (nm)                 (au**2)     (au)      (au)      (au) 
-----------------------------------------------------------------------------
   1   22179.4    450.9   0.000101258   0.00002  -0.00387   0.00059   0.00009
   2   30652.9    326.2   0.659465877   0.13816  -0.36981   0.03682   0.00663
   3   34612.2    288.9   0.004295091   0.00102  -0.02633  -0.01779  -0.00250
   4   34703.4    288.2   0.000000336   0.00000   0.00014   0.00016   0.00018
   5   40771.7    245.3   0.000000235   0.00000  -0.00011  -0.00005  -0.00022
   6   44985.2    222.3   0.181592640   0.05583   0.21214   0.10296   0.01504
   7   45233.6    221.1   0.000001620   0.00000   0.00066   0.00022  -0.00011
   8   48861.9    204.7   0.001672822   0.00056  -0.00102   0.00323  -0.02339
   9   50068.6    199.7   0.000029498   0.00001   0.00235   0.00208   0.00046
  10   49488.0    202.1   0.000007245   0.00000   0.00129  -0.00088   0.00016

-------------------------------------------------------------------
                             CD SPECTRUM
-------------------------------------------------------------------
State  Energy     Wavelength     R         MX        MY        MZ   
       (cm-1)       (nm)     (1e40*cgs)   (au)      (au)      (au)  
-------------------------------------------------------------------
   1   22179.4    450.9    -11.50929  -0.39739  -0.18161  -0.02142
   2   30652.9    326.2      5.89305   0.00388   0.00782   0.00182
   3   34612.2    288.9     -0.39773   0.00247  -0.00206  -0.00261
   4   34703.4    288.2      1.78742  -0.00162   0.03266  -0.21576
   5   40771.7    245.3      2.84560  -0.00080   0.05856  -0.38665
   6   44985.2    222.3    -12.59541  -0.00043   0.01760   0.00206
   7   45233.6    221.1      7.10456   0.00274  -0.09406   0.59316
   8   48861.9    204.7      3.13197   0.00012  -0.01486   0.08820
   9   50068.6    199.7      3.79979  -0.03795  -0.57806  -0.09054
  10   49488.0    202.1      2.86640  -0.00633   0.04460  -0.33172

-------------------------------------------------------------------
         CD SPECTRUM VIA TRANSITION VELOCITY DIPOLE MOMENTS        
-------------------------------------------------------------------
State  Energy     Wavelength     R         MX        MY        MZ   
       (cm-1)       (nm)     (1e40*cgs)   (au)      (au)      (au)  
-------------------------------------------------------------------
   1   22179.4    450.9      6.67032  -0.39739  -0.18161  -0.02142
   2   30652.9    326.2     -3.82833   0.00388   0.00782   0.00182
   3   34612.2    288.9     -0.06588   0.00247  -0.00206  -0.00261
   4   34703.4    288.2     -0.10226  -0.00162   0.03266  -0.21576
   5   40771.7    245.3      0.21158  -0.00080   0.05856  -0.38665
   6   44985.2    222.3      4.03139  -0.00043   0.01760   0.00206
   7   45233.6    221.1     -0.19058   0.00274  -0.09406   0.59316
   8   48861.9    204.7     -4.47109   0.00012  -0.01486   0.08820
   9   50068.6    199.7     -2.75978  -0.03795  -0.57806  -0.09054
  10   49488.0    202.1     -0.20691  -0.00633   0.04460  -0.33172

Total run time:     2218.224 sec

           *** ORCA-CIS/TD-DFT FINISHED WITHOUT ERROR ***

Maximum memory used throughout the entire CIS-calculation: 539.8 MB

-----------------------
CIS/TD-DFT TOTAL ENERGY
-----------------------

    E(SCF)  =   -571.733568413 Eh
    DE(CIS) =      0.101056683 Eh (Root  1)
    ----------------------------- ---------
    E(tot)  =   -571.632511730 Eh



-------------------------------------------------------------------------------
                          DFT DISPERSION CORRECTION                            
                                                                               
                              DFTD3 V3.1  Rev 1                                
                          USING Becke-Johnson damping                          
-------------------------------------------------------------------------------
The B2PLYP functional is recognized
Active option DFTDOPT                   ...         4   

molecular C6(AA) [au] = 7477.144060 


            DFT-D V3
 parameters
 s6 scaling factor         :     0.6400 
 a1 scaling factor         :     0.3065 
 s8 scaling factor         :     0.9147 
 a2 scaling factor         :     5.0570 
 ad hoc parameters k1-k3   :    16.0000     1.3333    -4.0000 

 Edisp/kcal,au: -13.830278252214  -0.022039948955 
 E6   /kcal   :  -7.727305614 
 E8   /kcal   :  -6.102972638 
 % E8         :  44.127620044 

-------------------------   ----------------
Dispersion correction           -0.022039949
-------------------------   ----------------


-------------------------   --------------------
FINAL SINGLE POINT ENERGY      -571.654551678850
-------------------------   --------------------


                            ***************************************
                            *     ORCA property calculations      *
                            ***************************************


  WARNING: The energy has been calculated at the MP2 level but the densities
           used in the property calculations are still SCF densities
           MP2 response densities have not been calculated 
           use %mp2 Density relaxed end
           or  %mp2 Density unrelaxed end

                                    ---------------------
                                    Active property flags
                                    ---------------------
   (+) Dipole Moment


------------------------------------------------------------------------------
                       ORCA ELECTRIC PROPERTIES CALCULATION
------------------------------------------------------------------------------

Dipole Moment Calculation                       ... on
Quadrupole Moment Calculation                   ... off
Polarizability Calculation                      ... off
GBWName                                         ... optpbed3-b2plyp-train-0_job2.gbw
Electron density                                ... optpbed3-b2plyp-train-0_job2.scfp
The origin for moment calculation is the CENTER OF MASS  = (-0.000036, -0.000423 -0.011860)

-------------
DIPOLE MOMENT
-------------
                                X             Y             Z
Electronic contribution:      0.00021      -0.00396       0.00716
Nuclear contribution   :      0.00025       0.00506      -0.01224
                        -----------------------------------------
Total Dipole Moment    :      0.00046       0.00110      -0.00508
                        -----------------------------------------
Magnitude (a.u.)       :      0.00522
Magnitude (Debye)      :      0.01326



--------------------
Rotational spectrum 
--------------------
 
Rotational constants in cm-1:     0.092151     0.009858     0.008906 
Rotational constants in MHz :  2762.611416   295.525154   266.995583 

 Dipole components along the rotational axes: 
x,y,z [a.u.] :     0.000482     0.000310    -0.005187 
x,y,z [Debye]:     0.001224     0.000788    -0.013184 

 

Timings for individual modules:

Sum of individual times         ...     3118.496 sec (=  51.975 min)
GTO integral calculation        ...        3.727 sec (=   0.062 min)   0.1 %
SCF iterations                  ...      483.222 sec (=   8.054 min)  15.5 %
MP2 module                      ...      412.578 sec (=   6.876 min)  13.2 %
CIS module                      ...     2218.969 sec (=  36.983 min)  71.2 %



                             ****ORCA TERMINATED NORMALLY****
TOTAL RUN TIME: 0 days 1 hours 46 minutes 59 seconds 589 msec
