
                                 *****************
                                 * O   R   C   A *
                                 *****************

                                            #,                                       
                                            ###                                      
                                            ####                                     
                                            #####                                    
                                            ######                                   
                                           ########,                                 
                                     ,,################,,,,,                         
                               ,,#################################,,                 
                          ,,##########################################,,             
                       ,#########################################, ''#####,          
                    ,#############################################,,   '####,        
                  ,##################################################,,,,####,       
                ,###########''''           ''''###############################       
              ,#####''   ,,,,##########,,,,          '''####'''          '####       
            ,##' ,,,,###########################,,,                        '##       
           ' ,,###''''                  '''############,,,                           
         ,,##''                                '''############,,,,        ,,,,,,###''
      ,#''                                            '''#######################'''  
     '                                                          ''''####''''         
             ,#######,   #######,   ,#######,      ##                                
            ,#'     '#,  ##    ##  ,#'     '#,    #''#        ######   ,####,        
            ##       ##  ##   ,#'  ##            #'  '#       #        #'  '#        
            ##       ##  #######   ##           ,######,      #####,   #    #        
            '#,     ,#'  ##    ##  '#,     ,#' ,#      #,         ##   #,  ,#        
             '#######'   ##     ##  '#######'  #'      '#     #####' # '####'        



                  #######################################################
                  #                        -***-                        #
                  #          Department of theory and spectroscopy      #
                  #    Directorship and core code : Frank Neese         #
                  #        Max Planck Institute fuer Kohlenforschung    #
                  #                Kaiser Wilhelm Platz 1               #
                  #                 D-45470 Muelheim/Ruhr               #
                  #                      Germany                        #
                  #                                                     #
                  #                  All rights reserved                #
                  #                        -***-                        #
                  #######################################################


                         Program Version 5.0.2 -  RELEASE  -


 With contributions from (in alphabetic order):
   Daniel Aravena         : Magnetic Suceptibility
   Michael Atanasov       : Ab Initio Ligand Field Theory (pilot matlab implementation)
   Alexander A. Auer      : GIAO ZORA, VPT2 properties, NMR spectrum
   Ute Becker             : Parallelization
   Giovanni Bistoni       : ED, misc. LED, open-shell LED, HFLD
   Martin Brehm           : Molecular dynamics
   Dmytro Bykov           : SCF Hessian
   Vijay G. Chilkuri      : MRCI spin determinant printing, contributions to CSF-ICE
   Dipayan Datta          : RHF DLPNO-CCSD density
   Achintya Kumar Dutta   : EOM-CC, STEOM-CC
   Dmitry Ganyushin       : Spin-Orbit,Spin-Spin,Magnetic field MRCI
   Miquel Garcia          : C-PCM and meta-GGA Hessian, CC/C-PCM, Gaussian charge scheme
   Yang Guo               : DLPNO-NEVPT2, F12-NEVPT2, CIM, IAO-localization
   Andreas Hansen         : Spin unrestricted coupled pair/coupled cluster methods
   Benjamin Helmich-Paris : MC-RPA, TRAH-SCF, COSX integrals
   Lee Huntington         : MR-EOM, pCC
   Robert Izsak           : Overlap fitted RIJCOSX, COSX-SCS-MP3, EOM
   Marcus Kettner         : VPT2
   Christian Kollmar      : KDIIS, OOCD, Brueckner-CCSD(T), CCSD density, CASPT2, CASPT2-K
   Simone Kossmann        : Meta GGA functionals, TD-DFT gradient, OOMP2, MP2 Hessian
   Martin Krupicka        : Initial AUTO-CI
   Lucas Lang             : DCDCAS
   Marvin Lechner         : AUTO-CI (C++ implementation), FIC-MRCC
   Dagmar Lenk            : GEPOL surface, SMD
   Dimitrios Liakos       : Extrapolation schemes; Compound Job, initial MDCI parallelization
   Dimitrios Manganas     : Further ROCIS development; embedding schemes
   Dimitrios Pantazis     : SARC Basis sets
   Anastasios Papadopoulos: AUTO-CI, single reference methods and gradients
   Taras Petrenko         : DFT Hessian,TD-DFT gradient, ASA, ECA, R-Raman, ABS, FL, XAS/XES, NRVS
   Peter Pinski           : DLPNO-MP2, DLPNO-MP2 Gradient
   Christoph Reimann      : Effective Core Potentials
   Marius Retegan         : Local ZFS, SOC
   Christoph Riplinger    : Optimizer, TS searches, QM/MM, DLPNO-CCSD(T), (RO)-DLPNO pert. Triples
   Tobias Risthaus        : Range-separated hybrids, TD-DFT gradient, RPA, STAB
   Michael Roemelt        : Original ROCIS implementation
   Masaaki Saitow         : Open-shell DLPNO-CCSD energy and density
   Barbara Sandhoefer     : DKH picture change effects
   Avijit Sen             : IP-ROCIS
   Kantharuban Sivalingam : CASSCF convergence, NEVPT2, FIC-MRCI
   Bernardo de Souza      : ESD, SOC TD-DFT
   Georgi Stoychev        : AutoAux, RI-MP2 NMR, DLPNO-MP2 response
   Willem Van den Heuvel  : Paramagnetic NMR
   Boris Wezisla          : Elementary symmetry handling
   Frank Wennmohs         : Technical directorship


 We gratefully acknowledge several colleagues who have allowed us to
 interface, adapt or use parts of their codes:
   Stefan Grimme, W. Hujo, H. Kruse, P. Pracht,  : VdW corrections, initial TS optimization,
                  C. Bannwarth, S. Ehlert          DFT functionals, gCP, sTDA/sTD-DF
   Ed Valeev, F. Pavosevic, A. Kumar             : LibInt (2-el integral package), F12 methods
   Garnet Chan, S. Sharma, J. Yang, R. Olivares  : DMRG
   Ulf Ekstrom                                   : XCFun DFT Library
   Mihaly Kallay                                 : mrcc  (arbitrary order and MRCC methods)
   Jiri Pittner, Ondrej Demel                    : Mk-CCSD
   Frank Weinhold                                : gennbo (NPA and NBO analysis)
   Christopher J. Cramer and Donald G. Truhlar   : smd solvation model
   Lars Goerigk                                  : TD-DFT with DH, B97 family of functionals
   V. Asgeirsson, H. Jonsson                     : NEB implementation
   FAccTs GmbH                                   : IRC, NEB, NEB-TS, DLPNO-Multilevel, CI-OPT
                                                   MM, QMMM, 2- and 3-layer-ONIOM, Crystal-QMMM,
                                                   LR-CPCM, SF, NACMEs, symmetry and pop. for TD-DFT,
                                                   nearIR, NL-DFT gradient (VV10), updates on ESD,
                                                   ML-optimized integration grids
   S Lehtola, MJT Oliveira, MAL Marques          : LibXC Library
   Liviu Ungur et al                             : ANISO software


 Your calculation uses the libint2 library for the computation of 2-el integrals
 For citations please refer to: http://libint.valeyev.net

 Your ORCA version has been built with support for libXC version: 5.1.0
 For citations please refer to: https://tddft.org/programs/libxc/

 This ORCA versions uses:
   CBLAS   interface :  Fast vector & matrix operations
   LAPACKE interface :  Fast linear algebra routines
   SCALAPACK package :  Parallel linear algebra routines
   Shared memory     :  Shared parallel matrices
   BLAS/LAPACK       :  OpenBLAS 0.3.15  USE64BITINT DYNAMIC_ARCH NO_AFFINITY SkylakeX SINGLE_THREADED
        Core in use  :  SkylakeX
   Copyright (c) 2011-2014, The OpenBLAS Project


Your calculation utilizes the SMD solvation module
Please cite in your paper:
A.V. Marenich, C.J. Cramer, D.G. Truhlar J. Phys. Chem. B, 113, (2009), 6378 

================================================================================

----- Orbital basis set information -----
Your calculation utilizes the basis: aug-cc-pVTZ 
    H, B-Ne : Obtained from the ccRepo (grant-hill.group.shef.ac.uk/ccrepo) Feb. 2017
              R. A. Kendall, T. H. Dunning, Jr., R. J. Harrison, J. Chem. Phys. 96, 6796 (1992)
         He : Obtained from the ccRepo (grant-hill.group.shef.ac.uk/ccrepo) Feb. 2017
              D. E. Woon, T. H. Dunning, Jr., J. Chem. Phys. 100, 2975 (1994)
  Li-Be, Na : Obtained from the ccRepo (grant-hill.group.shef.ac.uk/ccrepo) Feb. 2017
              B. P. Prascher, D. E. Woon, K. A. Peterson, T. H. Dunning, Jr., A. K. Wilson, Theor. Chem. Acc. 128, 69 (2011)
         Mg : Obtained from the Peterson Research Group Website (tyr0.chem.wsu.edu/~kipeters) Feb. 2017
              B. P. Prascher, D. E. Woon, K. A. Peterson, T. H. Dunning, Jr., A. K. Wilson, Theor. Chem. Acc. 128, 69 (2011)
      Al-Ar : Obtained from the ccRepo (grant-hill.group.shef.ac.uk/ccrepo) Feb. 2017
              D. E. Woon, T. H. Dunning, Jr., J. Chem. Phys. 98, 1358 (1993)
      Sc-Zn : Obtained from the ccRepo (grant-hill.group.shef.ac.uk/ccrepo) Feb. 2017
              N. B. Balabanov, K. A. Peterson, J. Chem. Phys. 123, 064107 (2005)
              N. B. Balabanov, K. A. Peterson, J. Chem. Phys. 125, 074110 (2006)
      Ga-Kr : Obtained from the ccRepo (grant-hill.group.shef.ac.uk/ccrepo) Feb. 2017
              A. K. Wilson, D. E. Woon, K. A. Peterson, T. H. Dunning, Jr., J. Chem. Phys. 110, 7667 (1999)
     Ag, Au : Obtained from the Peterson Research Group Website (tyr0.chem.wsu.edu/~kipeters) Feb. 2017
              K. A. Peterson, C. Puzzarini, Theor. Chem. Acc. 114, 283 (2005)

The basis set includes element-specific modifications.

Your calculation utilizes the basis: cc-pVTZ 
       H, B-Ne : Obtained from the ccRepo (grant-hill.group.shef.ac.uk/ccrepo) Feb. 2017
                 T. H. Dunning, Jr., J. Chem. Phys. 90, 1007 (1989)
            He : Obtained from the ccRepo (grant-hill.group.shef.ac.uk/ccrepo) Feb. 2017
                 D. E. Woon, T. H. Dunning, Jr., J. Chem. Phys. 100, 2975 (1994)
  Li-Be, Na-Mg : Obtained from the ccRepo (grant-hill.group.shef.ac.uk/ccrepo) Feb. 2017
                 B. P. Prascher, D. E. Woon, K. A. Peterson, T. H. Dunning, Jr., A. K. Wilson, Theor. Chem. Acc. 128, 69 (2011)
         Al-Ar : Obtained from the ccRepo (grant-hill.group.shef.ac.uk/ccrepo) Feb. 2017
                 D. E. Woon, T. H. Dunning, Jr., J. Chem. Phys. 98, 1358 (1993)
            Ca : Obtained from the Peterson Research Group Website (tyr0.chem.wsu.edu/~kipeters) Feb. 2017
                 J. Koput, K. A. Peterson, J. Phys. Chem. 106, 9595 (2002)
         Sc-Zn : Obtained from the ccRepo (grant-hill.group.shef.ac.uk/ccrepo) Feb. 2017
                 N. B. Balabanov, K. A. Peterson, J. Chem. Phys. 123, 064107 (2005)
                 N. B. Balabanov, K. A. Peterson, J. Chem. Phys. 125, 074110 (2006)
         Ga-Kr : Obtained from the ccRepo (grant-hill.group.shef.ac.uk/ccrepo) Feb. 2017
                 A. K. Wilson, D. E. Woon, K. A. Peterson, T. H. Dunning, Jr., J. Chem. Phys. 110, 7667 (1999)
             Y : Obtained from the ccRepo (grant-hill.group.shef.ac.uk/ccrepo) Feb. 2017
                 K. A. Peterson, D. Figgen, M. Dolg, H. Stoll, J. Chem. Phys. 126, 124101 (2007)
        Ag, Au : Obtained from the Peterson Research Group Website (tyr0.chem.wsu.edu/~kipeters) Feb. 2017
                 K. A. Peterson, C. Puzzarini, Theor. Chem. Acc. 114, 283 (2005)

----- AuxJ basis set information -----
Your calculation utilizes the auxiliary basis: aug-cc-pVTZ/JK 
  H, B-F, Al-Cl, Ga-Br : Obtained from the TURBOMOLE 7.0 basis set library

The basis set includes element-specific modifications.

Your calculation utilizes the auxiliary basis: cc-pVTZ/JK 
  H, B-F, Al-Cl, Ga-Br : Obtained from the TURBOMOLE 7.0 basis set library

----- AuxC basis set information -----
Your calculation utilizes the auxiliary basis: aug-cc-pVTZ/C 
  H-He, B-F, Al-Ar, Ga-Kr : Obtained from the EMSL Basis Set Exchange (bse.pnl.gov) Feb. 2017
                            F. Weigend, A. Kohn, C. Hattig, J. Chem. Phys. 116, 3175 (2002)
                   Be, Mg : Obtained from the TURBOMOLE 7.0 basis set library
                            C. Haettig, Phys. Chem. Chem. Phys. 7, 59 (2005)
                       Ne : Obtained from the EMSL Basis Set Exchange (bse.pnl.gov) Feb. 2017
                            C. Haettig, Phys. Chem. Chem. Phys. 7, 59 (2005)
                            F. Weigend, A. Kohn, C. Hattig, J. Chem. Phys. 116, 3175 (2002)
                    Sc-Zn : Obtained from the EMSL Basis Set Exchange (bse.pnl.gov) Feb. 2017
                            J. G. Hill, J. A. Platts, J. Chem. Phys. 128, 044104 (2008)

The basis set includes element-specific modifications.

Your calculation utilizes the auxiliary basis: cc-pVTZ/C 
  Obtained from the EMSL Basis Set Exchange (bse.pnl.gov) Feb. 2017
  H-He, B-F, Al-Ar, Ga-Kr : F. Weigend, A. Kohn, C. Hattig, J. Chem. Phys. 116, 3175 (2002)
             Li-Be, Na-Mg : C. Haettig, Phys. Chem. Chem. Phys. 7, 59 (2005)
                       Ne : C. Haettig, Phys. Chem. Chem. Phys. 7, 59 (2005)
                            F. Weigend, A. Kohn, C. Hattig, J. Chem. Phys. 116, 3175 (2002)
                    Sc-Zn : J. G. Hill, J. A. Platts, J. Chem. Phys. 128, 044104 (2008)

================================================================================
                                        WARNINGS
                       Please study these warnings very carefully!
================================================================================


WARNING: Geometry Optimization
  ===> : Switching off AutoStart
         For restart on a previous wavefunction, please use MOREAD

INFO   : the flag for use of the SHARK integral package has been found!



***************************************
The coordinates will be read from file: 
***************************************


Your calculation utilizes the SMD solvation module
Please cite in your paper:
A.V. Marenich, C.J. Cramer, D.G. Truhlar J. Phys. Chem. B, 113, (2009), 6378 

================================================================================

----- Orbital basis set information -----
Your calculation utilizes the basis: aug-cc-pVTZ 
    H, B-Ne : Obtained from the ccRepo (grant-hill.group.shef.ac.uk/ccrepo) Feb. 2017
              R. A. Kendall, T. H. Dunning, Jr., R. J. Harrison, J. Chem. Phys. 96, 6796 (1992)
         He : Obtained from the ccRepo (grant-hill.group.shef.ac.uk/ccrepo) Feb. 2017
              D. E. Woon, T. H. Dunning, Jr., J. Chem. Phys. 100, 2975 (1994)
  Li-Be, Na : Obtained from the ccRepo (grant-hill.group.shef.ac.uk/ccrepo) Feb. 2017
              B. P. Prascher, D. E. Woon, K. A. Peterson, T. H. Dunning, Jr., A. K. Wilson, Theor. Chem. Acc. 128, 69 (2011)
         Mg : Obtained from the Peterson Research Group Website (tyr0.chem.wsu.edu/~kipeters) Feb. 2017
              B. P. Prascher, D. E. Woon, K. A. Peterson, T. H. Dunning, Jr., A. K. Wilson, Theor. Chem. Acc. 128, 69 (2011)
      Al-Ar : Obtained from the ccRepo (grant-hill.group.shef.ac.uk/ccrepo) Feb. 2017
              D. E. Woon, T. H. Dunning, Jr., J. Chem. Phys. 98, 1358 (1993)
      Sc-Zn : Obtained from the ccRepo (grant-hill.group.shef.ac.uk/ccrepo) Feb. 2017
              N. B. Balabanov, K. A. Peterson, J. Chem. Phys. 123, 064107 (2005)
              N. B. Balabanov, K. A. Peterson, J. Chem. Phys. 125, 074110 (2006)
      Ga-Kr : Obtained from the ccRepo (grant-hill.group.shef.ac.uk/ccrepo) Feb. 2017
              A. K. Wilson, D. E. Woon, K. A. Peterson, T. H. Dunning, Jr., J. Chem. Phys. 110, 7667 (1999)
     Ag, Au : Obtained from the Peterson Research Group Website (tyr0.chem.wsu.edu/~kipeters) Feb. 2017
              K. A. Peterson, C. Puzzarini, Theor. Chem. Acc. 114, 283 (2005)

The basis set includes element-specific modifications.

Your calculation utilizes the basis: cc-pVTZ 
       H, B-Ne : Obtained from the ccRepo (grant-hill.group.shef.ac.uk/ccrepo) Feb. 2017
                 T. H. Dunning, Jr., J. Chem. Phys. 90, 1007 (1989)
            He : Obtained from the ccRepo (grant-hill.group.shef.ac.uk/ccrepo) Feb. 2017
                 D. E. Woon, T. H. Dunning, Jr., J. Chem. Phys. 100, 2975 (1994)
  Li-Be, Na-Mg : Obtained from the ccRepo (grant-hill.group.shef.ac.uk/ccrepo) Feb. 2017
                 B. P. Prascher, D. E. Woon, K. A. Peterson, T. H. Dunning, Jr., A. K. Wilson, Theor. Chem. Acc. 128, 69 (2011)
         Al-Ar : Obtained from the ccRepo (grant-hill.group.shef.ac.uk/ccrepo) Feb. 2017
                 D. E. Woon, T. H. Dunning, Jr., J. Chem. Phys. 98, 1358 (1993)
            Ca : Obtained from the Peterson Research Group Website (tyr0.chem.wsu.edu/~kipeters) Feb. 2017
                 J. Koput, K. A. Peterson, J. Phys. Chem. 106, 9595 (2002)
         Sc-Zn : Obtained from the ccRepo (grant-hill.group.shef.ac.uk/ccrepo) Feb. 2017
                 N. B. Balabanov, K. A. Peterson, J. Chem. Phys. 123, 064107 (2005)
                 N. B. Balabanov, K. A. Peterson, J. Chem. Phys. 125, 074110 (2006)
         Ga-Kr : Obtained from the ccRepo (grant-hill.group.shef.ac.uk/ccrepo) Feb. 2017
                 A. K. Wilson, D. E. Woon, K. A. Peterson, T. H. Dunning, Jr., J. Chem. Phys. 110, 7667 (1999)
             Y : Obtained from the ccRepo (grant-hill.group.shef.ac.uk/ccrepo) Feb. 2017
                 K. A. Peterson, D. Figgen, M. Dolg, H. Stoll, J. Chem. Phys. 126, 124101 (2007)
        Ag, Au : Obtained from the Peterson Research Group Website (tyr0.chem.wsu.edu/~kipeters) Feb. 2017
                 K. A. Peterson, C. Puzzarini, Theor. Chem. Acc. 114, 283 (2005)

----- AuxJ basis set information -----
Your calculation utilizes the auxiliary basis: aug-cc-pVTZ/JK 
  H, B-F, Al-Cl, Ga-Br : Obtained from the TURBOMOLE 7.0 basis set library

The basis set includes element-specific modifications.

Your calculation utilizes the auxiliary basis: cc-pVTZ/JK 
  H, B-F, Al-Cl, Ga-Br : Obtained from the TURBOMOLE 7.0 basis set library

----- AuxC basis set information -----
Your calculation utilizes the auxiliary basis: aug-cc-pVTZ/C 
  H-He, B-F, Al-Ar, Ga-Kr : Obtained from the EMSL Basis Set Exchange (bse.pnl.gov) Feb. 2017
                            F. Weigend, A. Kohn, C. Hattig, J. Chem. Phys. 116, 3175 (2002)
                   Be, Mg : Obtained from the TURBOMOLE 7.0 basis set library
                            C. Haettig, Phys. Chem. Chem. Phys. 7, 59 (2005)
                       Ne : Obtained from the EMSL Basis Set Exchange (bse.pnl.gov) Feb. 2017
                            C. Haettig, Phys. Chem. Chem. Phys. 7, 59 (2005)
                            F. Weigend, A. Kohn, C. Hattig, J. Chem. Phys. 116, 3175 (2002)
                    Sc-Zn : Obtained from the EMSL Basis Set Exchange (bse.pnl.gov) Feb. 2017
                            J. G. Hill, J. A. Platts, J. Chem. Phys. 128, 044104 (2008)

The basis set includes element-specific modifications.

Your calculation utilizes the auxiliary basis: cc-pVTZ/C 
  Obtained from the EMSL Basis Set Exchange (bse.pnl.gov) Feb. 2017
  H-He, B-F, Al-Ar, Ga-Kr : F. Weigend, A. Kohn, C. Hattig, J. Chem. Phys. 116, 3175 (2002)
             Li-Be, Na-Mg : C. Haettig, Phys. Chem. Chem. Phys. 7, 59 (2005)
                       Ne : C. Haettig, Phys. Chem. Chem. Phys. 7, 59 (2005)
                            F. Weigend, A. Kohn, C. Hattig, J. Chem. Phys. 116, 3175 (2002)
                    Sc-Zn : J. G. Hill, J. A. Platts, J. Chem. Phys. 128, 044104 (2008)

================================================================================
                                        WARNINGS
                       Please study these warnings very carefully!
================================================================================

INFO   : Checking CIS options ...

INFO   : the flag for use of the SHARK integral package has been found!

================================================================================
                                       INPUT FILE
================================================================================
NAME = pbe0-train-0.inp
|  1> ! pbe0 aug-cc-PVTZ RIJCOSX Opt
|  2> %maxcore 4000
|  3> %basis
|  4>  AuxJ "aug-cc-PVTZ/JK"
|  5>  AuxC "aug-cc-PVTZ/C"
|  6>  newGTO H "cc-PVTZ" end
|  7>  newAuxJGTO H "cc-PVTZ/JK" end
|  8>  newAuxCGTO H "cc-PVTZ/C" end
|  9> end
| 10> %cpcm
| 11>  SMD true
| 12>  SMDsolvent "benzene"
| 13> end
| 14> %pal nprocs 4 end
| 15> * xyz 0 1
| 16> C         -4.49800        0.16580        0.04130
| 17> C         -3.64810        1.25580        0.17290
| 18> C         -2.28180        1.07950        0.13650
| 19> C         -1.74760       -0.20460       -0.03390
| 20> N         -0.39610       -0.49050       -0.08470
| 21> N          0.39620        0.49240        0.06880
| 22> C          1.74770        0.20610        0.01640
| 23> C          2.61130        1.28860        0.21030
| 24> C          3.97790        1.09780        0.17750
| 25> C          4.49790       -0.16760       -0.04920
| 26> C          3.64700       -1.24720       -0.24490
| 27> C          2.28080       -1.06910       -0.21380
| 28> C         -2.61030       -1.29680       -0.16830
| 29> C         -3.97690       -1.10790       -0.12920
| 30> H         -5.56800        0.31100        0.07160
| 31> H         -4.06100        2.24580        0.30460
| 32> H         -1.60150        1.91160        0.23620
| 33> H          2.18550        2.26460        0.38580
| 34> H          4.64350        1.93500        0.32870
| 35> H          5.56780       -0.31440       -0.07400
| 36> H          4.05900       -2.23040       -0.42170
| 37> H          1.59970       -1.89300       -0.36320
| 38> H         -2.18350       -2.27940       -0.29950
| 39> H         -4.64170       -1.95310       -0.23180
| 40> *
| 41> 
| 42> 
| 43> $new_job
| 44> ! pbe0 aug-cc-PVTZ RIJCOSX SP
| 45> %maxcore 4000
| 46> %basis
| 47>  AuxJ "aug-cc-PVTZ/JK"
| 48>  AuxC "aug-cc-PVTZ/C"
| 49>  newGTO H "cc-PVTZ" end
| 50>  newAuxJGTO H "cc-PVTZ/JK" end
| 51>  newAuxCGTO H "cc-PVTZ/C" end
| 52> end
| 53> %cpcm
| 54>  SMD true
| 55>  SMDsolvent "benzene"
| 56> end
| 57> %pal nprocs 4 end
| 58> %tddft
| 59>  nroots 10
| 60>  maxdim 7
| 61> end
| 62> * xyzfile 0 1
| 63> 
| 64>                          ****END OF INPUT****
================================================================================


                 $$$$$$$$$$$$$$$$$$$$$$$$$$$$$$$$$$$$$$$$$$$$$$ 
                 $ THERE ARE  2 JOBS TO BE PROCESSED THIS RUN $
                 $$$$$$$$$$$$$$$$$$$$$$$$$$$$$$$$$$$$$$$$$$$$$$ 




                 $$$$$$$$$$$$$$$$  JOB NUMBER  1 $$$$$$$$$$$$$$


                       *****************************
                       * Geometry Optimization Run *
                       *****************************

Geometry optimization settings:
Update method            Update   .... BFGS
Choice of coordinates    CoordSys .... Z-matrix Internals
Initial Hessian          InHess   .... Almoef's Model

Convergence Tolerances:
Energy Change            TolE     ....  5.0000e-06 Eh
Max. Gradient            TolMAXG  ....  3.0000e-04 Eh/bohr
RMS Gradient             TolRMSG  ....  1.0000e-04 Eh/bohr
Max. Displacement        TolMAXD  ....  4.0000e-03 bohr
RMS Displacement         TolRMSD  ....  2.0000e-03 bohr
Strict Convergence                ....  False
------------------------------------------------------------------------------
                        ORCA OPTIMIZATION COORDINATE SETUP
------------------------------------------------------------------------------

The optimization will be done in new redundant internal coordinates
Making redundant internal coordinates   ...  (new redundants) done
Evaluating the initial hessian          ...  (Almloef) done
Evaluating the coordinates              ...  done
Calculating the B-matrix                .... done
Calculating the G-matrix                .... done
Diagonalizing the G-matrix              .... done
Small eigenvalue found = 3.794e-03
Small eigenvalue found = 1.454e-02
Small eigenvalue found = 2.593e-02
Small eigenvalue found = 2.847e-02
The first mode is                       ....   50
The number of degrees of freedom        ....   66

    -----------------------------------------------------------------
                    Redundant Internal Coordinates


    -----------------------------------------------------------------
         Definition                    Initial Value    Approx d2E/dq
    -----------------------------------------------------------------
      1. B(C   1,C   0)                  1.3884         0.628402   
      2. B(C   2,C   1)                  1.3781         0.652696   
      3. B(C   3,C   2)                  1.4012         0.599645   
      4. B(N   4,C   3)                  1.3823         0.575562   
      5. B(N   5,N   4)                  1.2718         0.773827   
      6. B(C   6,N   5)                  1.3825         0.575261   
      7. B(C   7,C   6)                  1.3983         0.606061   
      8. B(C   8,C   7)                  1.3802         0.647593   
      9. B(C   9,C   8)                  1.3867         0.632339   
     10. B(C  10,C   9)                  1.3885         0.628304   
     11. B(C  11,C  10)                  1.3781         0.652690   
     12. B(C  11,C   6)                  1.4012         0.599642   
     13. B(C  12,C   3)                  1.3983         0.606055   
     14. B(C  13,C  12)                  1.3801         0.647824   
     15. B(C  13,C   0)                  1.3867         0.632425   
     16. B(H  14,C   0)                  1.0802         0.373256   
     17. B(H  15,C   1)                  1.0807         0.372603   
     18. B(H  16,C   2)                  1.0794         0.374377   
     19. B(H  17,C   7)                  1.0792         0.374668   
     20. B(H  18,C   8)                  1.0802         0.373328   
     21. B(H  19,C   9)                  1.0802         0.373288   
     22. B(H  20,C  10)                  1.0806         0.372760   
     23. B(H  21,C  11)                  1.0794         0.374447   
     24. B(H  22,C  12)                  1.0793         0.374546   
     25. B(H  23,C  13)                  1.0802         0.373290   
     26. A(C   1,C   0,H  14)          119.8775         0.355873   
     27. A(C  13,C   0,H  14)          119.9429         0.356259   
     28. A(C   1,C   0,C  13)          120.1795         0.436677   
     29. A(C   0,C   1,H  15)          119.7913         0.355767   
     30. A(C   0,C   1,C   2)          120.2616         0.439168   
     31. A(C   2,C   1,H  15)          119.9471         0.358067   
     32. A(C   1,C   2,C   3)          119.8964         0.435476   
     33. A(C   3,C   2,H  16)          118.5167         0.353238   
     34. A(C   1,C   2,H  16)          121.5869         0.358357   
     35. A(N   4,C   3,C  12)          115.9841         0.423786   
     36. A(C   2,C   3,N   4)          124.5240         0.422981   
     37. A(C   2,C   3,C  12)          119.4917         0.429710   
     38. A(C   3,N   4,N   5)          116.4112         0.436968   
     39. A(N   4,N   5,C   6)          116.3850         0.436927   
     40. A(C   7,C   6,C  11)          119.4956         0.429710   
     41. A(N   5,C   6,C  11)          124.5158         0.422941   
     42. A(N   5,C   6,C   7)          115.9886         0.423747   
     43. A(C   8,C   7,H  17)          121.3008         0.357926   
     44. A(C   6,C   7,H  17)          118.6201         0.353922   
     45. A(C   6,C   7,C   8)          120.0791         0.435695   
     46. A(C   9,C   8,H  18)          119.9381         0.356262   
     47. A(C   7,C   8,H  18)          119.9758         0.357708   
     48. A(C   7,C   8,C   9)          120.0861         0.439041   
     49. A(C  10,C   9,H  19)          119.8729         0.355869   
     50. A(C   8,C   9,H  19)          119.9448         0.356256   
     51. A(C   8,C   9,C  10)          120.1823         0.436654   
     52. A(C   9,C  10,H  20)          119.7931         0.355783   
     53. A(C   9,C  10,C  11)          120.2562         0.439155   
     54. A(C  11,C  10,H  20)          119.9508         0.358092   
     55. A(C   6,C  11,C  10)          119.9006         0.435474   
     56. A(C  10,C  11,H  21)          121.5871         0.358368   
     57. A(C   6,C  11,H  21)          118.5122         0.353249   
     58. A(C  13,C  12,H  22)          121.3063         0.357928   
     59. A(C   3,C  12,H  22)          118.6088         0.353901   
     60. A(C   3,C  12,C  13)          120.0847         0.435722   
     61. A(C  12,C  13,H  23)          119.9744         0.357723   
     62. A(C   0,C  13,H  23)          119.9398         0.356264   
     63. A(C   0,C  13,C  12)          120.0858         0.439080   
     64. D(C   2,C   1,C   0,C  13)     -0.0712         0.027371   
     65. D(H  15,C   1,C   0,C  13)    179.9449         0.027371   
     66. D(C   2,C   1,C   0,H  14)    179.9468         0.027371   
     67. D(H  15,C   1,C   0,H  14)     -0.0372         0.027371   
     68. D(H  16,C   2,C   1,H  15)     -0.0436         0.029679   
     69. D(C   3,C   2,C   1,C   0)     -0.0032         0.029679   
     70. D(C   3,C   2,C   1,H  15)    179.9808         0.029679   
     71. D(H  16,C   2,C   1,C   0)    179.9724         0.029679   
     72. D(C  12,C   3,C   2,H  16)   -179.8497         0.024787   
     73. D(C  12,C   3,C   2,C   1)      0.1266         0.024787   
     74. D(N   4,C   3,C   2,C   1)    179.9769         0.024787   
     75. D(N   4,C   3,C   2,H  16)      0.0005         0.024787   
     76. D(N   5,N   4,C   3,C  12)   -178.3685         0.024072   
     77. D(N   5,N   4,C   3,C   2)      1.7765         0.024072   
     78. D(C   6,N   5,N   4,C   3)   -179.9298         0.047896   
     79. D(C  11,C   6,N   5,N   4)      1.1500         0.024045   
     80. D(C   7,C   6,N   5,N   4)   -178.8836         0.024045   
     81. D(H  17,C   7,C   6,C  11)    179.9578         0.025349   
     82. D(H  17,C   7,C   6,N   5)     -0.0104         0.025349   
     83. D(C   8,C   7,C   6,C  11)     -0.1475         0.025349   
     84. D(C   8,C   7,C   6,N   5)    179.8843         0.025349   
     85. D(H  18,C   8,C   7,H  17)     -0.0334         0.029185   
     86. D(H  18,C   8,C   7,C   6)   -179.9252         0.029185   
     87. D(C   9,C   8,C   7,H  17)    179.9588         0.029185   
     88. D(C   9,C   8,C   7,C   6)      0.0670         0.029185   
     89. D(H  19,C   9,C   8,H  18)      0.0173         0.027737   
     90. D(H  19,C   9,C   8,C   7)   -179.9749         0.027737   
     91. D(C  10,C   9,C   8,H  18)   -179.9657         0.027737   
     92. D(C  10,C   9,C   8,C   7)      0.0422         0.027737   
     93. D(C  11,C  10,C   9,H  19)    179.9471         0.027362   
     94. D(C  11,C  10,C   9,C   8)     -0.0700         0.027362   
     95. D(H  20,C  10,C   9,H  19)     -0.0233         0.027362   
     96. D(H  20,C  10,C   9,C   8)    179.9597         0.027362   
     97. D(H  21,C  11,C  10,H  20)     -0.0312         0.029679   
     98. D(H  21,C  11,C  10,C   9)    179.9984         0.029679   
     99. D(C   6,C  11,C  10,H  20)    179.9586         0.029679   
    100. D(C   6,C  11,C  10,C   9)     -0.0117         0.029679   
    101. D(H  21,C  11,C   6,C   7)   -179.8901         0.024786   
    102. D(H  21,C  11,C   6,N   5)      0.0753         0.024786   
    103. D(C  10,C  11,C   6,C   7)      0.1197         0.024786   
    104. D(C  10,C  11,C   6,N   5)   -179.9149         0.024786   
    105. D(H  22,C  12,C   3,N   4)      0.0974         0.025349   
    106. D(H  22,C  12,C   3,C   2)    179.9601         0.025349   
    107. D(C  13,C  12,C   3,N   4)    179.9598         0.025349   
    108. D(C  13,C  12,C   3,C   2)     -0.1775         0.025349   
    109. D(H  23,C  13,C  12,H  22)     -0.0543         0.029207   
    110. D(H  23,C  13,C  12,C   3)   -179.9129         0.029207   
    111. D(C   0,C  13,C  12,H  22)    179.9631         0.029207   
    112. D(C   0,C  13,C  12,C   3)      0.1045         0.029207   
    113. D(H  23,C  13,C   0,H  14)      0.0196         0.027745   
    114. D(H  23,C  13,C   0,C   1)   -179.9624         0.027745   
    115. D(C  12,C  13,C   0,H  14)   -179.9978         0.027745   
    116. D(C  12,C  13,C   0,C   1)      0.0202         0.027745   
    -----------------------------------------------------------------

Number of atoms                         .... 24
Number of degrees of freedom            .... 116

         *************************************************************
         *                GEOMETRY OPTIMIZATION CYCLE   1            *
         *************************************************************
---------------------------------
CARTESIAN COORDINATES (ANGSTROEM)
---------------------------------
  C     -4.498000    0.165800    0.041300
  C     -3.648100    1.255800    0.172900
  C     -2.281800    1.079500    0.136500
  C     -1.747600   -0.204600   -0.033900
  N     -0.396100   -0.490500   -0.084700
  N      0.396200    0.492400    0.068800
  C      1.747700    0.206100    0.016400
  C      2.611300    1.288600    0.210300
  C      3.977900    1.097800    0.177500
  C      4.497900   -0.167600   -0.049200
  C      3.647000   -1.247200   -0.244900
  C      2.280800   -1.069100   -0.213800
  C     -2.610300   -1.296800   -0.168300
  C     -3.976900   -1.107900   -0.129200
  H     -5.568000    0.311000    0.071600
  H     -4.061000    2.245800    0.304600
  H     -1.601500    1.911600    0.236200
  H      2.185500    2.264600    0.385800
  H      4.643500    1.935000    0.328700
  H      5.567800   -0.314400   -0.074000
  H      4.059000   -2.230400   -0.421700
  H      1.599700   -1.893000   -0.363200
  H     -2.183500   -2.279400   -0.299500
  H     -4.641700   -1.953100   -0.231800

----------------------------
CARTESIAN COORDINATES (A.U.)
----------------------------
  NO LB      ZA    FRAG     MASS         X           Y           Z
   0 C     6.0000    0    12.011   -8.499988    0.313317    0.078046
   1 C     6.0000    0    12.011   -6.893910    2.373118    0.326734
   2 C     6.0000    0    12.011   -4.311977    2.039959    0.257948
   3 C     6.0000    0    12.011   -3.302485   -0.386638   -0.064062
   4 N     7.0000    0    14.007   -0.748521   -0.926911   -0.160060
   5 N     7.0000    0    14.007    0.748709    0.930501    0.130013
   6 C     6.0000    0    12.011    3.302674    0.389473    0.030992
   7 C     6.0000    0    12.011    4.934642    2.435101    0.397409
   8 C     6.0000    0    12.011    7.517142    2.074541    0.335426
   9 C     6.0000    0    12.011    8.499799   -0.316718   -0.092975
  10 C     6.0000    0    12.011    6.891831   -2.356866   -0.462794
  11 C     6.0000    0    12.011    4.310087   -2.020306   -0.404023
  12 C     6.0000    0    12.011   -4.932752   -2.450597   -0.318041
  13 C     6.0000    0    12.011   -7.515252   -2.093628   -0.244153
  14 H     1.0000    0     1.008  -10.521995    0.587705    0.135304
  15 H     1.0000    0     1.008   -7.674178    4.243947    0.575611
  16 H     1.0000    0     1.008   -3.026396    3.612400    0.446353
  17 H     1.0000    0     1.008    4.129996    4.279474    0.729056
  18 H     1.0000    0     1.008    8.774943    3.656620    0.621153
  19 H     1.0000    0     1.008   10.521617   -0.594130   -0.139840
  20 H     1.0000    0     1.008    7.670398   -4.214845   -0.796898
  21 H     1.0000    0     1.008    3.022995   -3.577252   -0.686349
  22 H     1.0000    0     1.008   -4.126217   -4.307442   -0.565973
  23 H     1.0000    0     1.008   -8.771542   -3.690824   -0.438039

--------------------------------
INTERNAL COORDINATES (ANGSTROEM)
--------------------------------
 C      0   0   0     0.000000000000     0.00000000     0.00000000
 C      1   0   0     1.388433855104     0.00000000     0.00000000
 C      2   1   0     1.378108246837   120.26157454     0.00000000
 C      3   2   1     1.401184716588   119.89640254     0.00000000
 N      4   3   2     1.382342830126   124.52403695   179.97687066
 N      5   4   3     1.271768040957   116.41118021     1.77653303
 C      6   5   4     1.382485334461   116.38500841   180.07018789
 C      7   6   5     1.398287674264   115.98861298   181.11643585
 C      8   7   6     1.380244920295   120.07905042   179.88429380
 C      9   8   7     1.386733590132   120.08610835     0.06697544
 C     10   9   8     1.388475948657   120.18227578     0.04216527
 C     11  10   9     1.378110757523   120.25618147   359.93004310
 C      4   3   2     1.398290202354   119.49174315     0.12664993
 C     13   4   3     1.380147666013   120.08473803   359.82250539
 H      1   2   3     1.080231979715   119.87754285   179.94681108
 H      2   1   3     1.080708702658   119.79130019   180.01602508
 H      3   2   1     1.079415855915   121.58685731   179.97242509
 H      8   7   6     1.079204285573   118.62008240     0.00000000
 H      9   8   7     1.080179910941   119.97583724   180.07479857
 H     10   9   8     1.080208910350   119.94480258   180.02507930
 H     11  10   9     1.080594503040   119.79305369   179.95965072
 H     12  11  10     1.079364989241   121.58711090   179.99840511
 H     13   4   3     1.079293491132   118.60879550   179.96013143
 H     14  13   4     1.080207776310   119.97438081   180.08710608

---------------------------
INTERNAL COORDINATES (A.U.)
---------------------------
 C      0   0   0     0.000000000000     0.00000000     0.00000000
 C      1   0   0     2.623759741212     0.00000000     0.00000000
 C      2   1   0     2.604247169420   120.26157454     0.00000000
 C      3   2   1     2.647855377388   119.89640254     0.00000000
 N      4   3   2     2.612249372127   124.52403695   179.97687066
 N      5   4   3     2.403293303283   116.41118021     1.77653303
 C      6   5   4     2.612518666294   116.38500841   180.07018789
 C      7   6   5     2.642380760798   115.98861298   181.11643585
 C      8   7   6     2.608284897093   120.07905042   179.88429380
 C      9   8   7     2.620546706059   120.08610835     0.06697544
 C     10   9   8     2.623839286499   120.18227578     0.04216527
 C     11  10   9     2.604251913929   120.25618147   359.93004310
 C      4   3   2     2.642385538195   119.49174315     0.12664993
 C     13   4   3     2.608101113134   120.08473803   359.82250539
 H      1   2   3     2.041342602766   119.87754285   179.94681108
 H      2   1   3     2.042243478568   119.79130019   180.01602508
 H      3   2   1     2.039800352291   121.58685731   179.97242509
 H      8   7   6     2.039400542288   118.62008240     0.00000000
 H      9   8   7     2.041244207041   119.97583724   180.07479857
 H     10   9   8     2.041299007983   119.94480258   180.02507930
 H     11  10   9     2.042027672566   119.79305369   179.95965072
 H     12  11  10     2.039704228209   121.58711090   179.99840511
 H     13   4   3     2.039569116363   118.60879550   179.96013143
 H     14  13   4     2.041296864957   119.97438081   180.08710608

---------------------
BASIS SET INFORMATION
---------------------
There are 3 groups of distinct atoms

 Group   1 Type C   : 19s6p3d2f contracted to 5s4p3d2f pattern {88111/3111/111/11}
 Group   2 Type N   : 19s6p3d2f contracted to 5s4p3d2f pattern {88111/3111/111/11}
 Group   3 Type H   : 5s2p1d contracted to 3s2p1d pattern {311/11/1}

Atom   0C    basis set group =>   1
Atom   1C    basis set group =>   1
Atom   2C    basis set group =>   1
Atom   3C    basis set group =>   1
Atom   4N    basis set group =>   2
Atom   5N    basis set group =>   2
Atom   6C    basis set group =>   1
Atom   7C    basis set group =>   1
Atom   8C    basis set group =>   1
Atom   9C    basis set group =>   1
Atom  10C    basis set group =>   1
Atom  11C    basis set group =>   1
Atom  12C    basis set group =>   1
Atom  13C    basis set group =>   1
Atom  14H    basis set group =>   3
Atom  15H    basis set group =>   3
Atom  16H    basis set group =>   3
Atom  17H    basis set group =>   3
Atom  18H    basis set group =>   3
Atom  19H    basis set group =>   3
Atom  20H    basis set group =>   3
Atom  21H    basis set group =>   3
Atom  22H    basis set group =>   3
Atom  23H    basis set group =>   3
---------------------------------
AUXILIARY/J BASIS SET INFORMATION
---------------------------------
There are 3 groups of distinct atoms

 Group   1 Type C   : 10s7p5d2f1g contracted to 10s7p5d2f1g pattern {1111111111/1111111/11111/11/1}
 Group   2 Type N   : 10s7p5d2f1g contracted to 10s7p5d2f1g pattern {1111111111/1111111/11111/11/1}
 Group   3 Type H   : 4s3p2d1f contracted to 4s3p2d1f pattern {1111/111/11/1}

Atom   0C    basis set group =>   1
Atom   1C    basis set group =>   1
Atom   2C    basis set group =>   1
Atom   3C    basis set group =>   1
Atom   4N    basis set group =>   2
Atom   5N    basis set group =>   2
Atom   6C    basis set group =>   1
Atom   7C    basis set group =>   1
Atom   8C    basis set group =>   1
Atom   9C    basis set group =>   1
Atom  10C    basis set group =>   1
Atom  11C    basis set group =>   1
Atom  12C    basis set group =>   1
Atom  13C    basis set group =>   1
Atom  14H    basis set group =>   3
Atom  15H    basis set group =>   3
Atom  16H    basis set group =>   3
Atom  17H    basis set group =>   3
Atom  18H    basis set group =>   3
Atom  19H    basis set group =>   3
Atom  20H    basis set group =>   3
Atom  21H    basis set group =>   3
Atom  22H    basis set group =>   3
Atom  23H    basis set group =>   3
---------------------------------
AUXILIARY/C BASIS SET INFORMATION
---------------------------------
There are 3 groups of distinct atoms

 Group   1 Type C   : 9s7p6d4f2g contracted to 9s7p6d4f2g pattern {111111111/1111111/111111/1111/11}
 Group   2 Type N   : 9s7p6d4f2g contracted to 9s7p6d4f2g pattern {111111111/1111111/111111/1111/11}
 Group   3 Type H   : 4s3p2d1f contracted to 4s3p2d1f pattern {1111/111/11/1}

Atom   0C    basis set group =>   1
Atom   1C    basis set group =>   1
Atom   2C    basis set group =>   1
Atom   3C    basis set group =>   1
Atom   4N    basis set group =>   2
Atom   5N    basis set group =>   2
Atom   6C    basis set group =>   1
Atom   7C    basis set group =>   1
Atom   8C    basis set group =>   1
Atom   9C    basis set group =>   1
Atom  10C    basis set group =>   1
Atom  11C    basis set group =>   1
Atom  12C    basis set group =>   1
Atom  13C    basis set group =>   1
Atom  14H    basis set group =>   3
Atom  15H    basis set group =>   3
Atom  16H    basis set group =>   3
Atom  17H    basis set group =>   3
Atom  18H    basis set group =>   3
Atom  19H    basis set group =>   3
Atom  20H    basis set group =>   3
Atom  21H    basis set group =>   3
Atom  22H    basis set group =>   3
Atom  23H    basis set group =>   3


           ************************************************************
           *        Program running with 4 parallel MPI-processes     *
           *              working on a common directory               *
           ************************************************************
------------------------------------------------------------------------------
                           ORCA GTO INTEGRAL CALCULATION
                           -- RI-GTO INTEGRALS CHOSEN --
------------------------------------------------------------------------------
------------------------------------------------------------------------------
                   ___                                                        
                  /   \      - P O W E R E D   B Y -                         
                 /     \                                                     
                 |  |  |   _    _      __       _____    __    __             
                 |  |  |  | |  | |    /  \     |  _  \  |  |  /  |          
                  \  \/   | |  | |   /    \    | | | |  |  | /  /          
                 / \  \   | |__| |  /  /\  \   | |_| |  |  |/  /          
                |  |  |   |  __  | /  /__\  \  |    /   |      \           
                |  |  |   | |  | | |   __   |  |    \   |  |\   \          
                \     /   | |  | | |  |  |  |  | |\  \  |  | \   \       
                 \___/    |_|  |_| |__|  |__|  |_| \__\ |__|  \__/        
                                                                              
                      - O R C A' S   B I G   F R I E N D -                    
                                      &                                       
                       - I N T E G R A L  F E E D E R -                       
                                                                              
 v1 FN, 2020, v2 2021                                                         
------------------------------------------------------------------------------


Reading SHARK input file pbe0-train-0.SHARKINP.tmp ... ok
----------------------
SHARK INTEGRAL PACKAGE
----------------------

Number of atoms                             ...     24
Number of basis functions                   ...    868
Number of shells                            ...    340
Maximum angular momentum                    ...      3
Integral batch strategy                     ... SHARK/LIBINT Hybrid
RI-J (if used) integral strategy            ... SPLIT-RIJ (Revised 2003 algorithm where possible)
Printlevel                                  ...      1
Contraction scheme used                     ... PARTIAL GENERAL contraction
Coulomb Range Separation                    ... NOT USED
Exchange Range Separation                   ... NOT USED
Finite Nucleus Model                        ... NOT USED
Auxiliary Coulomb fitting basis             ... AVAILABLE
   # of basis functions in Aux-J            ...   1406
   # of shells in Aux-J                     ...    450
   Maximum angular momentum in Aux-J        ...      4
Auxiliary J/K fitting basis                 ... NOT available
Auxiliary Correlation fitting basis         ... AVAILABLE
   # of basis functions in Aux-C            ...   1784
   # of shells in Aux-C                     ...    492
   Maximum angular momentum in Aux-C        ...      4
Auxiliary 'external' fitting basis          ... NOT available
Integral threshold                          ...     2.500000e-11
Primitive cut-off                           ...     2.500000e-12
Primitive pair pre-selection threshold      ...     2.500000e-12

Calculating pre-screening integrals         ... done (  0.1 sec) Dimension = 340
Calculating pre-screening integrals (ORCA)  ... done (  0.3 sec) Dimension = 256
Organizing shell pair data                  ... done (  4.6 sec)
Shell pair information
Total number of shell pairs                 ...     57970
Shell pairs after pre-screening             ...     40430
Total number of primitive shell pairs       ...     75538
Primitive shell pairs kept                  ...     47956
          la=0 lb=0:   9392 shell pairs
          la=1 lb=0:  10268 shell pairs
          la=1 lb=1:   2452 shell pairs
          la=2 lb=0:   6858 shell pairs
          la=2 lb=1:   3264 shell pairs
          la=2 lb=2:   1129 shell pairs
          la=3 lb=0:   3724 shell pairs
          la=3 lb=1:   1778 shell pairs
          la=3 lb=2:   1212 shell pairs
          la=3 lb=3:    353 shell pairs

Calculating one electron integrals          ... done (  0.1 sec)
Calculating RI/J V-Matrix + Cholesky decomp.... done (  0.6 sec)
Calculating RI/C V-Matrix + Cholesky decomp.... done (  0.2 sec)
Calculating Nuclear repulsion               ... done (  0.0 sec) ENN=    754.763724847319 Eh

SHARK setup successfully completed in   7.4 seconds

Maximum memory used throughout the entire GTOINT-calculation: 62.7 MB


           ************************************************************
           *        Program running with 4 parallel MPI-processes     *
           *              working on a common directory               *
           ************************************************************
-------------------------------------------------------------------------------
                                 ORCA SCF
-------------------------------------------------------------------------------

------------
SCF SETTINGS
------------
Hamiltonian:
 Density Functional     Method          .... DFT(GTOs)
 Exchange Functional    Exchange        .... PBE
   PBE kappa parameter   XKappa         ....  0.804000
   PBE mue parameter    XMuePBE         ....  0.219520
 Correlation Functional Correlation     .... PBE
   PBE beta parameter  CBetaPBE         ....  0.066725
 LDA part of GGA corr.  LDAOpt          .... PW91-LDA
 Gradients option       PostSCFGGA      .... off
 Hybrid DFT is turned on
   Fraction HF Exchange ScalHFX         ....  0.250000
   Scaling of DF-GGA-X  ScalDFX         ....  0.750000
   Scaling of DF-GGA-C  ScalDFC         ....  1.000000
   Scaling of DF-LDA-C  ScalLDAC        ....  1.000000
   Perturbative correction              ....  0.000000
   Density functional embedding theory  .... OFF
   NL short-range parameter             ....  6.900000
 RI-approximation to the Coulomb term is turned on
   Number of AuxJ basis functions       .... 1406
   RIJ-COSX (HFX calculated with COS-X)).... on


General Settings:
 Integral files         IntName         .... pbe0-train-0
 Hartree-Fock type      HFTyp           .... RHF
 Total Charge           Charge          ....    0
 Multiplicity           Mult            ....    1
 Number of Electrons    NEL             ....   96
 Basis Dimension        Dim             ....  784
 Nuclear Repulsion      ENuc            ....    754.7637248473 Eh

Convergence Acceleration:
 DIIS                   CNVDIIS         .... on
   Start iteration      DIISMaxIt       ....    12
   Startup error        DIISStart       ....  0.200000
   # of expansion vecs  DIISMaxEq       ....     5
   Bias factor          DIISBfac        ....   1.050
   Max. coefficient     DIISMaxC        ....  10.000
 Trust-Rad. Augm. Hess. CNVTRAH         .... auto
   Auto Start mean grad. ratio tolernc. ....  1.125000
   Auto Start start iteration           ....    20
   Auto Start num. interpolation iter.  ....    10
   Max. Number of Micro iterations      ....    16
   Max. Number of Macro iterations      .... Maxiter - #DIIS iter
   Number of Davidson start vectors     ....     2
   Converg. threshold I  (grad. norm)   ....   1.000e-05
   Converg. threshold II (energy diff.) ....   1.000e-08
   Grad. Scal. Fac. for Micro threshold ....   0.100
   Minimum threshold for Micro iter.    ....   0.010
   NR start threshold (gradient norm)   ....   0.001
   Initial trust radius                 ....   0.400
   Minimum AH scaling param. (alpha)    ....   1.000
   Maximum AH scaling param. (alpha)    .... 1000.000
   Orbital update algorithm             .... Taylor
   White noise on init. David. guess    .... on
   Maximum white noise                  ....   0.010
   Quad. conv. algorithm                .... NR
 SOSCF                  CNVSOSCF        .... on
   Start iteration      SOSCFMaxIt      ....   150
   Startup grad/error   SOSCFStart      ....  0.003300
 Level Shifting         CNVShift        .... on
   Level shift para.    LevelShift      ....    0.2500
   Turn off err/grad.   ShiftErr        ....    0.0010
 Zerner damping         CNVZerner       .... off
 Static damping         CNVDamp         .... on
   Fraction old density DampFac         ....    0.7000
   Max. Damping (<1)    DampMax         ....    0.9800
   Min. Damping (>=0)   DampMin         ....    0.0000
   Turn off err/grad.   DampErr         ....    0.1000
 Fernandez-Rico         CNVRico         .... off

SCF Procedure:
 Maximum # iterations   MaxIter         ....   125
 SCF integral mode      SCFMode         .... Direct
   Integral package                     .... SHARK and LIBINT hybrid scheme
 Reset frequency        DirectResetFreq ....    20
 Integral Threshold     Thresh          ....  2.500e-11 Eh
 Primitive CutOff       TCut            ....  2.500e-12 Eh

Convergence Tolerance:
 Convergence Check Mode ConvCheckMode   .... Total+1el-Energy
 Convergence forced     ConvForced      .... 0
 Energy Change          TolE            ....  1.000e-08 Eh
 1-El. energy change                    ....  1.000e-05 Eh
 Orbital Gradient       TolG            ....  1.000e-05
 Orbital Rotation angle TolX            ....  1.000e-05
 DIIS Error             TolErr          ....  5.000e-07


Diagonalization of the overlap matrix:
Smallest eigenvalue                        ... 1.183e-06
Time for diagonalization                   ...    0.183 sec
Threshold for overlap eigenvalues          ... 1.000e-08
Number of eigenvalues below threshold      ... 0
Time for construction of square roots      ...    0.101 sec
Total time needed                          ...    0.288 sec

Time for model grid setup =    0.399 sec

------------------------------
INITIAL GUESS: MODEL POTENTIAL
------------------------------
Loading Hartree-Fock densities                     ... done
Calculating cut-offs                               ... done
Initializing the effective Hamiltonian             ... done
Setting up the integral package (SHARK)            ... done
Starting the Coulomb interaction                   ... done (   1.1 sec)
Reading the grid                                   ... done
Mapping shells                                     ... done
Starting the XC term evaluation                    ... done (   1.1 sec)
  promolecular density results
     # of electrons  =     95.993679595
     EX              =    -77.397727581
     EC              =     -3.194484167
     EX+EC           =    -80.592211747
Transforming the Hamiltonian                       ... done (   0.1 sec)
Diagonalizing the Hamiltonian                      ... done (   0.2 sec)
Back transforming the eigenvectors                 ... done (   0.0 sec)
Now organizing SCF variables                       ... done
                      ------------------
                      INITIAL GUESS DONE (   3.0 sec)
                      ------------------
-------------------
DFT GRID GENERATION
-------------------

General Integration Accuracy     IntAcc      ... 4.388
Radial Grid Type                 RadialGrid  ... OptM3 with GC (2021)
Angular Grid (max. ang.)         AngularGrid ... 4 (Lebedev-302)
Angular grid pruning method      GridPruning ... 4 (adaptive)
Weight generation scheme         WeightScheme... Becke
Basis function cutoff            BFCut       ... 1.0000e-11
Integration weight cutoff        WCut        ... 1.0000e-14
Angular grids for H and He will be reduced by one unit
Partially contracted basis set               ... off
Rotationally invariant grid construction     ... off

Total number of grid points                  ...   119759
Total number of batches                      ...     1886
Average number of points per batch           ...       63
Average number of grid points per atom       ...     4990
Time for grid setup =    1.273 sec

--------------------
COSX GRID GENERATION
--------------------

GRIDX 1
-------
General Integration Accuracy     IntAcc      ... 3.816
Radial Grid Type                 RadialGrid  ... OptM3 with GC (2021)
Angular Grid (max. ang.)         AngularGrid ... 1 (Lebedev-50)
Angular grid pruning method      GridPruning ... 4 (adaptive)
Weight generation scheme         WeightScheme... Becke
Basis function cutoff            BFCut       ... 1.0000e-11
Integration weight cutoff        WCut        ... 1.0000e-14
Angular grids for H and He will be reduced by one unit
Partially contracted basis set               ... on
Rotationally invariant grid construction     ... off

Total number of grid points                  ...    15306
Total number of batches                      ...      256
Average number of points per batch           ...       59
Average number of grid points per atom       ...      638
UseSFitting                                  ... on

GRIDX 2
-------
General Integration Accuracy     IntAcc      ... 4.020
Radial Grid Type                 RadialGrid  ... OptM3 with GC (2021)
Angular Grid (max. ang.)         AngularGrid ... 2 (Lebedev-110)
Angular grid pruning method      GridPruning ... 4 (adaptive)
Weight generation scheme         WeightScheme... Becke
Basis function cutoff            BFCut       ... 1.0000e-11
Integration weight cutoff        WCut        ... 1.0000e-14
Angular grids for H and He will be reduced by one unit
Partially contracted basis set               ... on
Rotationally invariant grid construction     ... off

Total number of grid points                  ...    36690
Total number of batches                      ...      583
Average number of points per batch           ...       62
Average number of grid points per atom       ...     1529
UseSFitting                                  ... on

GRIDX 3
-------
General Integration Accuracy     IntAcc      ... 4.338
Radial Grid Type                 RadialGrid  ... OptM3 with GC (2021)
Angular Grid (max. ang.)         AngularGrid ... 3 (Lebedev-194)
Angular grid pruning method      GridPruning ... 4 (adaptive)
Weight generation scheme         WeightScheme... Becke
Basis function cutoff            BFCut       ... 1.0000e-11
Integration weight cutoff        WCut        ... 1.0000e-14
Angular grids for H and He will be reduced by one unit
Partially contracted basis set               ... on
Rotationally invariant grid construction     ... off

Total number of grid points                  ...    79133
Total number of batches                      ...     1248
Average number of points per batch           ...       63
Average number of grid points per atom       ...     3297
UseSFitting                                  ... on

Time for X-Grid setup             =    3.172 sec


--------------------
CPCM SOLVATION MODEL
--------------------
CPCM parameters:
  Epsilon                                         ...       2.2706
  Refrac                                          ...       1.5011
  Rsolv                                           ...       1.3000
  Surface type                                    ... GAUSSIAN VDW
  Epsilon function type                           ...         CPCM
Solvent:                                     ... BENZENE
SMD-CDS solvent descriptors:
  Soln                                       ...    1.5011
  Soln25                                     ...    1.4972
  Sola                                       ...    0.0000
  Solb                                       ...    0.1400
  Solg                                       ...   40.6200
  Solc                                       ...    1.0000
  Solh                                       ...    0.0000
Radii:
 Radius for C  used is    3.4960 Bohr (=   1.8500 Ang.)
 Radius for N  used is    3.5716 Bohr (=   1.8900 Ang.)
 Radius for H  used is    2.2677 Bohr (=   1.2000 Ang.)
Calculating surface                               ...        done! (  0.0s)
GEPOL surface points                              ...         1407
GEPOL Volume                                      ...    1324.4442
GEPOL Surface-area                                ...     771.4012
Calculating surface distance matrix               ...        done! (  0.0s)
Performing Cholesky decomposition & store         ...        done! (  0.2s)
Overall time for CPCM initialization              ...                 0.2s
 re-compute Schwartz prescreening matrix in partically contracted basis (1) ...done (   0.177 sec)
--------------
SCF ITERATIONS
--------------
ITER       Energy         Delta-E        Max-DP      RMS-DP      [F,P]     Damp
               ***  Starting incremental Fock matrix formation  ***
  0   -572.0170928209   0.000000000000 0.08898598  0.00079761  0.1359327 0.7000
  1   -572.1281589264  -0.111066105517 0.06267022  0.00059074  0.0742519 0.7000
                               ***Turning on DIIS***
  2   -572.1813221390  -0.053163212531 0.12353167  0.00128021  0.0355292 0.0000
  3   -572.2601269536  -0.078804814600 0.02939151  0.00028409  0.0371732 0.0000
  4   -572.2770929554  -0.016966001877 0.01600875  0.00010844  0.0071704 0.0000
                      *** Initiating the SOSCF procedure ***
                           *** Shutting down DIIS ***
                      *** Re-Reading the Fockian *** 
                      *** Removing any level shift *** 
ITER      Energy       Delta-E        Grad      Rot      Max-DP    RMS-DP
  5   -572.27771626  -0.0006233035  0.001048  0.001048  0.003016  0.000030
               *** Restarting incremental Fock matrix formation ***
  6   -572.27776585  -0.0000495949  0.000336  0.001385  0.015068  0.000252
  7   -572.27777012  -0.0000042674  0.000385  0.001516  0.003944  0.000067
  8   -572.27777236  -0.0000022353  0.000189  0.000592  0.003860  0.000065
  9   -572.27777272  -0.0000003652  0.000049  0.000076  0.000813  0.000011
 10   -572.27777292  -0.0000001978  0.000017  0.000091  0.002787  0.000018
 11   -572.27777293  -0.0000000131  0.000012  0.000023  0.002383  0.000013
 12   -572.27777296  -0.0000000284  0.000005  0.000027  0.002495  0.000016
                  ***Gradient check signals convergence***
              ***Rediagonalizing the Fockian in SOSCF/NRSCF***

               *****************************************************
               *                     SUCCESS                       *
               *           SCF CONVERGED AFTER  13 CYCLES          *
               *****************************************************

Old exchange energy                            =    -19.743834138 Eh
New exchange energy                            =    -19.743805805 Eh
Exchange energy change after final integration =      0.000028333 Eh
Total energy after final integration           =   -572.277744637 Eh
Final COS-X integration done in                =    61.161 sec

SMD CDS free energy correction energy :                -5.78691     Kcal/mol
Total Energy after SMD CDS correction =              -572.286966659 Eh

----------------
TOTAL SCF ENERGY
----------------

Total Energy       :         -572.28696666 Eh          -15572.72006 eV

Components:
Nuclear Repulsion  :          754.76372485 Eh           20538.16509 eV
Electronic Energy  :        -1327.05069151 Eh          -36110.88516 eV
One Electron Energy:        -2270.29429932 Eh          -61777.84861 eV
Two Electron Energy:          943.24360781 Eh           25666.96345 eV
Max COSX asymmetry :            0.00001224 Eh               0.00033 eV
CPCM Dielectric    :           -0.00644550 Eh              -0.17539 eV
SMD CDS (Gcds)     :           -0.00922202 Eh              -0.25094 eV

Virial components:
Potential Energy   :        -1141.32008294 Eh          -31056.89836 eV
Kinetic Energy     :          569.03311628 Eh           15484.17829 eV
Virial Ratio       :            2.00571821


DFT components:
N(Alpha)           :       48.000022987254 electrons
N(Beta)            :       48.000022987254 electrons
N(Total)           :       96.000045974509 electrons
E(X)               :      -59.089536758041 Eh       
E(C)               :       -3.199852180569 Eh       
E(XC)              :      -62.289388938610 Eh       
DFET-embed. en.    :        0.000000000000 Eh       
CPCM Solvation Model Properties:
Surface-charge          :           -0.05613998
Charge-correction       :            0.00008966 Eh               0.00244 eV
Free-energy (cav+disp)  :           -0.00922202 Eh              -0.25094 eV

---------------
SCF CONVERGENCE
---------------

  Last Energy change         ...   -8.8010e-09  Tolerance :   1.0000e-08
  Last MAX-Density change    ...    4.2188e-15  Tolerance :   1.0000e-07
  Last RMS-Density change    ...    1.5753e-17  Tolerance :   5.0000e-09
  Last Orbital Gradient      ...    1.7302e-06  Tolerance :   1.0000e-05
  Last Orbital Rotation      ...    3.1131e-06  Tolerance :   1.0000e-05

             **** THE GBW FILE WAS UPDATED (pbe0-train-0.gbw) ****
             **** DENSITY pbe0-train-0.scfp WAS UPDATED ****
             **** ENERGY FILE WAS UPDATED (pbe0-train-0.en.tmp) ****
             **** THE GBW FILE WAS UPDATED (pbe0-train-0.gbw) ****
             **** DENSITY pbe0-train-0.scfp WAS UPDATED ****
----------------
ORBITAL ENERGIES
----------------

  NO   OCC          E(Eh)            E(eV) 
   0   2.0000     -14.433651      -392.7596 
   1   2.0000     -14.433155      -392.7461 
   2   2.0000     -10.261497      -279.2295 
   3   2.0000     -10.261486      -279.2292 
   4   2.0000     -10.236553      -278.5508 
   5   2.0000     -10.236545      -278.5506 
   6   2.0000     -10.235596      -278.5247 
   7   2.0000     -10.235588      -278.5245 
   8   2.0000     -10.234256      -278.4883 
   9   2.0000     -10.234231      -278.4876 
  10   2.0000     -10.233421      -278.4655 
  11   2.0000     -10.233419      -278.4655 
  12   2.0000     -10.233336      -278.4632 
  13   2.0000     -10.233304      -278.4624 
  14   2.0000      -1.063070       -28.9276 
  15   2.0000      -0.909829       -24.7577 
  16   2.0000      -0.888124       -24.1671 
  17   2.0000      -0.834463       -22.7069 
  18   2.0000      -0.782191       -21.2845 
  19   2.0000      -0.781096       -21.2547 
  20   2.0000      -0.768610       -20.9149 
  21   2.0000      -0.709045       -19.2941 
  22   2.0000      -0.645421       -17.5628 
  23   2.0000      -0.637744       -17.3539 
  24   2.0000      -0.621705       -16.9175 
  25   2.0000      -0.588248       -16.0071 
  26   2.0000      -0.554220       -15.0811 
  27   2.0000      -0.525944       -14.3117 
  28   2.0000      -0.504566       -13.7300 
  29   2.0000      -0.493938       -13.4407 
  30   2.0000      -0.470796       -12.8110 
  31   2.0000      -0.457467       -12.4483 
  32   2.0000      -0.455260       -12.3883 
  33   2.0000      -0.447008       -12.1637 
  34   2.0000      -0.443265       -12.0618 
  35   2.0000      -0.440878       -11.9969 
  36   2.0000      -0.413203       -11.2438 
  37   2.0000      -0.402482       -10.9521 
  38   2.0000      -0.378174       -10.2906 
  39   2.0000      -0.375157       -10.2085 
  40   2.0000      -0.372795       -10.1443 
  41   2.0000      -0.358941        -9.7673 
  42   2.0000      -0.356334        -9.6963 
  43   2.0000      -0.297729        -8.1016 
  44   2.0000      -0.277331        -7.5466 
  45   2.0000      -0.277072        -7.5395 
  46   2.0000      -0.247950        -6.7471 
  47   2.0000      -0.242859        -6.6085 
  48   0.0000      -0.094417        -2.5692 
  49   0.0000      -0.015162        -0.4126 
  50   0.0000      -0.012002        -0.3266 
  51   0.0000      -0.000068        -0.0019 
  52   0.0000       0.008452         0.2300 
  53   0.0000       0.011067         0.3012 
  54   0.0000       0.019816         0.5392 
  55   0.0000       0.028337         0.7711 
  56   0.0000       0.030727         0.8361 
  57   0.0000       0.038410         1.0452 
  58   0.0000       0.045169         1.2291 
  59   0.0000       0.045689         1.2433 
  60   0.0000       0.045882         1.2485 
  61   0.0000       0.047690         1.2977 
  62   0.0000       0.055190         1.5018 
  63   0.0000       0.061123         1.6633 
  64   0.0000       0.068011         1.8507 
  65   0.0000       0.069219         1.8835 
  66   0.0000       0.071649         1.9497 
  67   0.0000       0.073001         1.9865 
  68   0.0000       0.082402         2.2423 
  69   0.0000       0.092024         2.5041 
  70   0.0000       0.092713         2.5228 
  71   0.0000       0.103134         2.8064 
  72   0.0000       0.103790         2.8243 
  73   0.0000       0.105538         2.8718 
  74   0.0000       0.111558         3.0356 
  75   0.0000       0.115407         3.1404 
  76   0.0000       0.117560         3.1990 
  77   0.0000       0.124607         3.3907 
  78   0.0000       0.124643         3.3917 
  79   0.0000       0.129083         3.5125 
  80   0.0000       0.132178         3.5967 
  81   0.0000       0.134659         3.6643 
  82   0.0000       0.134747         3.6667 
  83   0.0000       0.141528         3.8512 
  84   0.0000       0.143685         3.9099 
  85   0.0000       0.148034         4.0282 
  86   0.0000       0.150101         4.0845 
  87   0.0000       0.151233         4.1153 
  88   0.0000       0.153519         4.1775 
  89   0.0000       0.155017         4.2182 
  90   0.0000       0.155825         4.2402 
  91   0.0000       0.164701         4.4817 
  92   0.0000       0.166649         4.5347 
  93   0.0000       0.171896         4.6775 
  94   0.0000       0.172655         4.6982 
  95   0.0000       0.176117         4.7924 
  96   0.0000       0.177103         4.8192 
  97   0.0000       0.181708         4.9445 
  98   0.0000       0.186596         5.0775 
  99   0.0000       0.187373         5.0987 
 100   0.0000       0.194825         5.3015 
 101   0.0000       0.198469         5.4006 
 102   0.0000       0.205208         5.5840 
 103   0.0000       0.206338         5.6147 
 104   0.0000       0.215921         5.8755 
 105   0.0000       0.219483         5.9724 
 106   0.0000       0.220812         6.0086 
 107   0.0000       0.226995         6.1769 
 108   0.0000       0.229816         6.2536 
 109   0.0000       0.233769         6.3612 
 110   0.0000       0.237593         6.4652 
 111   0.0000       0.237621         6.4660 
 112   0.0000       0.245055         6.6683 
 113   0.0000       0.245163         6.6712 
 114   0.0000       0.249870         6.7993 
 115   0.0000       0.251427         6.8417 
 116   0.0000       0.255611         6.9555 
 117   0.0000       0.258984         7.0473 
 118   0.0000       0.264958         7.2099 
 119   0.0000       0.266224         7.2443 
 120   0.0000       0.274630         7.4731 
 121   0.0000       0.280852         7.6424 
 122   0.0000       0.282590         7.6897 
 123   0.0000       0.289107         7.8670 
 124   0.0000       0.293599         7.9892 
 125   0.0000       0.298196         8.1143 
 126   0.0000       0.298963         8.1352 
 127   0.0000       0.305209         8.3052 
 128   0.0000       0.307050         8.3552 
 129   0.0000       0.309234         8.4147 
 130   0.0000       0.314445         8.5565 
 131   0.0000       0.319359         8.6902 
 132   0.0000       0.320314         8.7162 
 133   0.0000       0.325152         8.8478 
 134   0.0000       0.329873         8.9763 
 135   0.0000       0.343618         9.3503 
 136   0.0000       0.348372         9.4797 
 137   0.0000       0.348834         9.4923 
 138   0.0000       0.349205         9.5024 
 139   0.0000       0.350764         9.5448 
 140   0.0000       0.358655         9.7595 
 141   0.0000       0.367736        10.0066 
 142   0.0000       0.371591        10.1115 
 143   0.0000       0.377651        10.2764 
 144   0.0000       0.379694        10.3320 
 145   0.0000       0.381699        10.3865 
 146   0.0000       0.385546        10.4912 
 147   0.0000       0.387774        10.5519 
 148   0.0000       0.392100        10.6696 
 149   0.0000       0.394303        10.7295 
 150   0.0000       0.397928        10.8282 
 151   0.0000       0.402665        10.9571 
 152   0.0000       0.405214        11.0264 
 153   0.0000       0.405690        11.0394 
 154   0.0000       0.406919        11.0728 
 155   0.0000       0.413716        11.2578 
 156   0.0000       0.414104        11.2683 
 157   0.0000       0.418162        11.3788 
 158   0.0000       0.418954        11.4003 
 159   0.0000       0.420646        11.4464 
 160   0.0000       0.429063        11.6754 
 161   0.0000       0.430590        11.7170 
 162   0.0000       0.432995        11.7824 
 163   0.0000       0.438597        11.9348 
 164   0.0000       0.438885        11.9427 
 165   0.0000       0.440243        11.9796 
 166   0.0000       0.443192        12.0599 
 167   0.0000       0.447535        12.1781 
 168   0.0000       0.458198        12.4682 
 169   0.0000       0.458426        12.4744 
 170   0.0000       0.472004        12.8439 
 171   0.0000       0.475618        12.9422 
 172   0.0000       0.480000        13.0615 
 173   0.0000       0.486633        13.2420 
 174   0.0000       0.488696        13.2981 
 175   0.0000       0.489008        13.3066 
 176   0.0000       0.494930        13.4677 
 177   0.0000       0.502708        13.6794 
 178   0.0000       0.503445        13.6994 
 179   0.0000       0.509256        13.8575 
 180   0.0000       0.511231        13.9113 
 181   0.0000       0.520381        14.1603 
 182   0.0000       0.520642        14.1674 
 183   0.0000       0.524321        14.2675 
 184   0.0000       0.537578        14.6282 
 185   0.0000       0.539276        14.6745 
 186   0.0000       0.543630        14.7929 
 187   0.0000       0.552695        15.0396 
 188   0.0000       0.565332        15.3835 
 189   0.0000       0.568834        15.4788 
 190   0.0000       0.590179        16.0596 
 191   0.0000       0.592349        16.1186 
 192   0.0000       0.593832        16.1590 
 193   0.0000       0.602174        16.3860 
 194   0.0000       0.606212        16.4959 
 195   0.0000       0.608907        16.5692 
 196   0.0000       0.611029        16.6269 
 197   0.0000       0.630866        17.1667 
 198   0.0000       0.638551        17.3759 
 199   0.0000       0.641221        17.4485 
 200   0.0000       0.647931        17.6311 
 201   0.0000       0.648016        17.6334 
 202   0.0000       0.654375        17.8065 
 203   0.0000       0.654727        17.8160 
 204   0.0000       0.660887        17.9837 
 205   0.0000       0.663656        18.0590 
 206   0.0000       0.675037        18.3687 
 207   0.0000       0.676484        18.4081 
 208   0.0000       0.678708        18.4686 
 209   0.0000       0.688267        18.7287 
 210   0.0000       0.688751        18.7419 
 211   0.0000       0.693722        18.8771 
 212   0.0000       0.696195        18.9444 
 213   0.0000       0.698863        19.0170 
 214   0.0000       0.707385        19.2489 
 215   0.0000       0.710587        19.3360 
 216   0.0000       0.714504        19.4426 
 217   0.0000       0.715513        19.4701 
 218   0.0000       0.718489        19.5511 
 219   0.0000       0.719687        19.5837 
 220   0.0000       0.732622        19.9357 
 221   0.0000       0.741995        20.1907 
 222   0.0000       0.750899        20.4330 
 223   0.0000       0.751724        20.4555 
 224   0.0000       0.753041        20.4913 
 225   0.0000       0.754623        20.5343 
 226   0.0000       0.763194        20.7676 
 227   0.0000       0.764630        20.8066 
 228   0.0000       0.765838        20.8395 
 229   0.0000       0.772024        21.0078 
 230   0.0000       0.773401        21.0453 
 231   0.0000       0.780127        21.2283 
 232   0.0000       0.782390        21.2899 
 233   0.0000       0.783144        21.3104 
 234   0.0000       0.787983        21.4421 
 235   0.0000       0.795815        21.6552 
 236   0.0000       0.796855        21.6835 
 237   0.0000       0.814385        22.1605 
 238   0.0000       0.819436        22.2980 
 239   0.0000       0.819900        22.3106 
 240   0.0000       0.833838        22.6899 
 241   0.0000       0.835171        22.7262 
 242   0.0000       0.841605        22.9012 
 243   0.0000       0.846595        23.0370 
 244   0.0000       0.850823        23.1521 
 245   0.0000       0.851820        23.1792 
 246   0.0000       0.867253        23.5991 
 247   0.0000       0.869874        23.6705 
 248   0.0000       0.875278        23.8175 
 249   0.0000       0.879698        23.9378 
 250   0.0000       0.880893        23.9703 
 251   0.0000       0.888599        24.1800 
 252   0.0000       0.896349        24.3909 
 253   0.0000       0.899893        24.4873 
 254   0.0000       0.901464        24.5301 
 255   0.0000       0.907377        24.6910 
 256   0.0000       0.911938        24.8151 
 257   0.0000       0.915317        24.9070 
 258   0.0000       0.918499        24.9936 
 259   0.0000       0.919897        25.0317 
 260   0.0000       0.931201        25.3393 
 261   0.0000       0.933946        25.4140 
 262   0.0000       0.934364        25.4253 
 263   0.0000       0.942770        25.6541 
 264   0.0000       0.949704        25.8428 
 265   0.0000       0.957954        26.0673 
 266   0.0000       0.960122        26.1263 
 267   0.0000       0.972779        26.4707 
 268   0.0000       0.976118        26.5615 
 269   0.0000       0.979979        26.6666 
 270   0.0000       0.991768        26.9874 
 271   0.0000       0.992782        27.0150 
 272   0.0000       0.998658        27.1749 
 273   0.0000       1.001723        27.2583 
 274   0.0000       1.010269        27.4908 
 275   0.0000       1.013079        27.5673 
 276   0.0000       1.018328        27.7101 
 277   0.0000       1.028775        27.9944 
 278   0.0000       1.052121        28.6297 
 279   0.0000       1.059749        28.8372 
 280   0.0000       1.070541        29.1309 
 281   0.0000       1.081292        29.4234 
 282   0.0000       1.086471        29.5644 
 283   0.0000       1.089707        29.6524 
 284   0.0000       1.099020        29.9059 
 285   0.0000       1.117927        30.4204 
 286   0.0000       1.122581        30.5470 
 287   0.0000       1.126273        30.6474 
 288   0.0000       1.131388        30.7866 
 289   0.0000       1.148326        31.2475 
 290   0.0000       1.156432        31.4681 
 291   0.0000       1.163674        31.6652 
 292   0.0000       1.177614        32.0445 
 293   0.0000       1.180474        32.1223 
 294   0.0000       1.201459        32.6934 
 295   0.0000       1.214239        33.0411 
 296   0.0000       1.224196        33.3121 
 297   0.0000       1.226428        33.3728 
 298   0.0000       1.236761        33.6540 
 299   0.0000       1.243420        33.8352 
 300   0.0000       1.246307        33.9137 
 301   0.0000       1.246669        33.9236 
 302   0.0000       1.247295        33.9406 
 303   0.0000       1.255982        34.1770 
 304   0.0000       1.270705        34.5776 
 305   0.0000       1.277785        34.7703 
 306   0.0000       1.293399        35.1952 
 307   0.0000       1.296036        35.2669 
 308   0.0000       1.306710        35.5574 
 309   0.0000       1.310114        35.6500 
 310   0.0000       1.311638        35.6915 
 311   0.0000       1.326091        36.0848 
 312   0.0000       1.328133        36.1403 
 313   0.0000       1.331320        36.2271 
 314   0.0000       1.334885        36.3241 
 315   0.0000       1.346232        36.6328 
 316   0.0000       1.354586        36.8602 
 317   0.0000       1.358293        36.9610 
 318   0.0000       1.360253        37.0144 
 319   0.0000       1.367441        37.2100 
 320   0.0000       1.371076        37.3089 
 321   0.0000       1.377411        37.4812 
 322   0.0000       1.378471        37.5101 
 323   0.0000       1.378513        37.5112 
 324   0.0000       1.383289        37.6412 
 325   0.0000       1.385537        37.7024 
 326   0.0000       1.391228        37.8572 
 327   0.0000       1.397719        38.0339 
 328   0.0000       1.402345        38.1598 
 329   0.0000       1.403356        38.1873 
 330   0.0000       1.413054        38.4511 
 331   0.0000       1.416476        38.5443 
 332   0.0000       1.419405        38.6240 
[...]
B(  4-N ,  6-C ) :   0.4555 B(  4-N ,  7-C ) :   0.1052 B(  5-N ,  6-C ) :   0.1712 
B(  5-N , 11-C ) :  -0.2108 B(  5-N , 12-C ) :   0.1102 B(  6-C ,  7-C ) :   1.0424 
B(  6-C , 11-C ) :   1.1808 B(  7-C ,  8-C ) :   1.2072 B(  7-C , 17-H ) :   0.9238 
B(  8-C ,  9-C ) :   1.2635 B(  8-C , 18-H ) :   0.9253 B(  9-C , 10-C ) :   1.2985 
B(  9-C , 19-H ) :   0.9011 B( 10-C , 11-C ) :   1.1726 B( 10-C , 20-H ) :   0.9272 
B( 11-C , 21-H ) :   0.9468 B( 12-C , 13-C ) :   1.2063 B( 12-C , 22-H ) :   0.9206 
B( 13-C , 23-H ) :   0.9225 

-------
TIMINGS
-------

Total SCF time: 0 days 0 hours 2 min 26 sec 

Total time                  ....     146.695 sec
Sum of individual times     ....     144.329 sec  ( 98.4%)

Fock matrix formation       ....     138.417 sec  ( 94.4%)
  Split-RI-J                ....       7.203 sec  (  5.2% of F)
  Chain of spheres X        ....     118.849 sec  ( 85.9% of F)
  XC integration            ....       7.291 sec  (  5.3% of F)
    Basis function eval.    ....       1.322 sec  ( 18.1% of XC)
    Density eval.           ....       2.632 sec  ( 36.1% of XC)
    XC-Functional eval.     ....       0.098 sec  (  1.4% of XC)
    XC-Potential eval.      ....       3.069 sec  ( 42.1% of XC)
Diagonalization             ....       0.324 sec  (  0.2%)
Density matrix formation    ....       0.026 sec  (  0.0%)
Population analysis         ....       0.222 sec  (  0.2%)
Initial guess               ....       0.399 sec  (  0.3%)
Orbital Transformation      ....       0.000 sec  (  0.0%)
Orbital Orthonormalization  ....       0.346 sec  (  0.2%)
DIIS solution               ....       0.116 sec  (  0.1%)
SOSCF solution              ....       0.263 sec  (  0.2%)
Grid generation             ....       4.561 sec  (  3.1%)

Maximum memory used throughout the entire SCF-calculation: 181.7 MB


           ************************************************************
           *        Program running with 4 parallel MPI-processes     *
           *              working on a common directory               *
           ************************************************************
------------------------------------------------------------------------------
                        ORCA TD-DFT/TDA CALCULATION
------------------------------------------------------------------------------

Input orbitals are from        ... pbe0-train-0_job2.gbw
CI-vector output               ... pbe0-train-0_job2.cis
Tamm-Dancoff approximation     ... operative
CIS-Integral strategy          ... AO-integrals
Integral handling              ... AO integral Direct
Max. core memory used          ... 4000 MB
Reference state                ... RHF
Generation of triplets         ... off
Follow IRoot                   ... off
Number of operators            ... 1
Orbital ranges used for CIS calculation:
 Operator 0:  Orbitals  14... 47  to  48...783
XAS localization array:
 Operator 0:  Orbitals  -1... -1

-------------------
XC-INTEGRATION GRID
-------------------

General Integration Accuracy     IntAcc      ... 3.467
Radial Grid Type                 RadialGrid  ... OptM3 with GC (2021)
Angular Grid (max. ang.)         AngularGrid ... 1 (Lebedev-50)
Angular grid pruning method      GridPruning ... 4 (adaptive)
Weight generation scheme         WeightScheme... Becke
Basis function cutoff            BFCut       ... 1.0000e-11
Integration weight cutoff        WCut        ... 1.0000e-14
Angular grids for H and He will be reduced by one unit
Partially contracted basis set               ... off
Rotationally invariant grid construction     ... off

Total number of grid points                  ...    17915
Total number of batches                      ...      292
Average number of points per batch           ...       61
Average number of grid points per atom       ...      746

---------------------
COSX-INTEGRATION GRID
---------------------

General Integration Accuracy     IntAcc      ... 3.067
Radial Grid Type                 RadialGrid  ... OptM3 with GC (2021)
Angular Grid (max. ang.)         AngularGrid ... 1 (Lebedev-50)
Angular grid pruning method      GridPruning ... 4 (adaptive)
Weight generation scheme         WeightScheme... Becke
Basis function cutoff            BFCut       ... 1.0000e-11
Integration weight cutoff        WCut        ... 1.0000e-14
Angular grids for H and He will be reduced by one unit
Partially contracted basis set               ... on
Rotationally invariant grid construction     ... off

Total number of grid points                  ...     8122
Total number of batches                      ...      138
Average number of points per batch           ...       58
Average number of grid points per atom       ...      338

---------------
TD-DFT XC SETUP
---------------

DFT calculation                         ... on
Name of the grid file                   ... pbe0-train-0_job2.grid_cis.tmp
Exchange functional (TD-DFT)            ... PBE
   PBE kappa parameter  XKappa (TD-DFT) ...  0.804000
   PBE mue parameter   XMuePBE (TD-DFT) ...  0.219520
Correlation functional (TD-DFT)         ... PBE
   PBE beta parameter CBetaPBE (TD-DFT) ...  0.066725
 LDA part of GGA corr.  LDAOpt (TD-DFT) ... PW91-LDA
Hybrid DFT                              ... on
   Exchange mixing (TD-DFT)             ...  0.250
   GGA exch. scaling (TD-DFT)           ...  0.750
   GGA corr. scaling (TD-DFT)           ...  1.000

Building densities             ... done
Calculating rho(r) on the grid ... done
Building xc-kernel on the grid ... done
                    *** TD-DFT CALCULATION INITIALIZED ***

---------------------------------
    LR-CPCM (non-equilibrium)
---------------------------------

Setting up LR-CPCM             ... done

------------------------
DAVIDSON-DIAGONALIZATION
------------------------

Dimension of the eigenvalue problem            ...  25024
Number of roots to be determined               ...     10
Maximum size of the expansion space            ...     70
Maximum number of iterations                   ...    100
Convergence tolerance for the residual         ...    1.000e-06
Convergence tolerance for the energies         ...    1.000e-06
Orthogonality tolerance                        ...    1.000e-14
Level Shift                                    ...    0.000e+00
Constructing the preconditioner                ... o.k.
Building the initial guess                     ... o.k.
Number of trial vectors determined             ...     70


                       ****Iteration    0****

   Memory handling for direct AO based CIS:
   Memory per vector needed      ...    28 MB
   Memory needed                 ...   844 MB
   Memory available              ...  4000 MB
   Number of vectors per batch   ...   142
   Number of batches             ...     1
   Time for densities:            0.351
   Time for RI-J (Direct):        9.427
   Time for K (COSX):            49.924
   Time for XC-Integration:      26.832
   Time for LR-CPCM terms:       12.863
   Time for Sigma-Completion:     0.190
   Size of expansion space: 30
   Lowest Energy          :     0.100529813655
   Maximum Energy change  :     0.215216834825 (vector 9)
   Maximum residual norm  :     0.018085696581

                       ****Iteration    1****
   Time for densities:            0.093
   Time for RI-J (Direct):        6.091
   Time for K (COSX):            18.665
   Time for XC-Integration:       9.411
   Time for LR-CPCM terms:        6.284
   Time for Sigma-Completion:     0.064
   Size of expansion space: 40
   Lowest Energy          :     0.096821051305
   Maximum Energy change  :     0.014742193238 (vector 1)
   Maximum residual norm  :     0.000636124995

                       ****Iteration    2****
   Time for densities:            0.094
   Time for RI-J (Direct):        6.096
   Time for K (COSX):            18.836
   Time for XC-Integration:       9.456
   Time for LR-CPCM terms:        6.128
   Time for Sigma-Completion:     0.082
   Size of expansion space: 50
   Lowest Energy          :     0.096702732961
   Maximum Energy change  :     0.000769947630 (vector 4)
   Maximum residual norm  :     0.000090087010

                       ****Iteration    3****
   Time for densities:            0.094
   Time for RI-J (Direct):        6.181
   Time for K (COSX):            18.960
   Time for XC-Integration:       9.573
   Time for LR-CPCM terms:        6.181
   Time for Sigma-Completion:     0.065
   Size of expansion space: 60
   Lowest Energy          :     0.096700968059
   Maximum Energy change  :     0.000113091673 (vector 8)
   Maximum residual norm  :     0.000002365313

                       ****Iteration    4****
   Time for densities:            0.094
   Time for RI-J (Direct):        6.111
   Time for K (COSX):            19.141
   Time for XC-Integration:       9.647
   Time for LR-CPCM terms:        6.197
   Time for Sigma-Completion:     0.064
   Size of expansion space: 70
   Lowest Energy          :     0.096700913357
   Maximum Energy change  :     0.000003740033 (vector 8)
   Maximum residual norm  :     0.000000139818

      *** CONVERGENCE OF RESIDUAL NORM REACHED ***

Storing the converged CI vectors               ... pbe0-train-0_job2.cis1

                 *** DAVIDSON DONE ***

Total time for solving the CIS problem:   265.999sec

------------------------------------
TD-DFT/TDA EXCITED STATES (SINGLETS)
------------------------------------

the weight of the individual excitations are printed if larger than 1.0e-02

STATE  1:  E=   0.096701 au      2.631 eV    21223.4 cm**-1 <S**2> =   0.000000
    46a ->  48a  :     0.707907 (c=  0.84137202)
    46a ->  57a  :     0.010280 (c= -0.10139231)
    47a ->  48a  :     0.273448 (c=  0.52292213)

STATE  2:  E=   0.138720 au      3.775 eV    30445.5 cm**-1 <S**2> =   0.000000
    46a ->  48a  :     0.271622 (c= -0.52117354)
    47a ->  48a  :     0.702243 (c=  0.83799961)

STATE  3:  E=   0.156368 au      4.255 eV    34318.9 cm**-1 <S**2> =   0.000000
    43a ->  50a  :     0.012750 (c=  0.11291513)
    45a ->  48a  :     0.915210 (c= -0.95666599)
    46a ->  49a  :     0.015869 (c= -0.12597405)
    47a ->  49a  :     0.046895 (c=  0.21655223)

STATE  4:  E=   0.156659 au      4.263 eV    34382.8 cm**-1 <S**2> =   0.000000
    43a ->  49a  :     0.012188 (c=  0.11040111)
    44a ->  48a  :     0.923775 (c=  0.96113209)
    46a ->  50a  :     0.013633 (c= -0.11676067)
    47a ->  50a  :     0.040386 (c=  0.20096176)

STATE  5:  E=   0.183532 au      4.994 eV    40280.7 cm**-1 <S**2> =   0.000000
    43a ->  48a  :     0.876260 (c= -0.93608779)
    46a ->  51a  :     0.016457 (c=  0.12828575)
    47a ->  51a  :     0.052956 (c= -0.23012158)

STATE  6:  E=   0.191067 au      5.199 eV    41934.4 cm**-1 <S**2> =   0.000000
    46a ->  49a  :     0.703377 (c= -0.83867595)
    47a ->  49a  :     0.291739 (c= -0.54012850)

STATE  7:  E=   0.194375 au      5.289 eV    42660.4 cm**-1 <S**2> =   0.000000
    46a ->  50a  :     0.691587 (c=  0.83161696)
    47a ->  50a  :     0.295165 (c=  0.54329045)

STATE  8:  E=   0.202229 au      5.503 eV    44384.2 cm**-1 <S**2> =   0.000000
    42a ->  48a  :     0.011828 (c= -0.10875475)
    46a ->  51a  :     0.695152 (c= -0.83375795)
    47a ->  51a  :     0.273278 (c= -0.52276021)

STATE  9:  E=   0.204620 au      5.568 eV    44908.8 cm**-1 <S**2> =   0.000000
    44a ->  51a  :     0.085687 (c=  0.29272366)
    45a ->  48a  :     0.058892 (c= -0.24267648)
    45a ->  57a  :     0.019007 (c=  0.13786550)
    46a ->  49a  :     0.238916 (c=  0.48879071)
    47a ->  49a  :     0.556973 (c= -0.74630650)

STATE 10:  E=   0.206379 au      5.616 eV    45294.9 cm**-1 <S**2> =   0.000000
    44a ->  48a  :     0.051127 (c=  0.22611221)
    44a ->  49a  :     0.017982 (c= -0.13409529)
    44a ->  57a  :     0.020091 (c= -0.14174172)
    45a ->  51a  :     0.103567 (c= -0.32181785)
    46a ->  50a  :     0.235874 (c=  0.48566908)
    47a ->  50a  :     0.537140 (c= -0.73289833)


-----------------------------
TD-DFT/TDA-EXCITATION SPECTRA
-----------------------------

Center of mass = ( -0.0000, -0.0004, -0.0120)
Calculating the Dipole integrals                  ... done
Transforming integrals                            ... done
Calculating the Linear Momentum integrals         ... done
Transforming integrals                            ... done
Calculating angular momentum integrals            ... done
Transforming integrals                            ... done

-----------------------------------------------------------------------------
         ABSORPTION SPECTRUM VIA TRANSITION ELECTRIC DIPOLE MOMENTS
-----------------------------------------------------------------------------
State   Energy    Wavelength  fosc         T2        TX        TY        TZ  
        (cm-1)      (nm)                 (au**2)    (au)      (au)      (au) 
-----------------------------------------------------------------------------
   1   21223.4    471.2   0.000220221   0.00342  -0.05843   0.00148   0.00049
   2   30445.5    328.5   1.216372205  13.15284  -3.62416   0.13001   0.03768
   3   34318.9    291.4   0.067588452   0.64836   0.49322   0.62927   0.09548
   4   34382.8    290.8   0.000029402   0.00028  -0.00069  -0.00037  -0.01676
   5   40280.7    248.3   0.000010791   0.00009   0.00104  -0.00210   0.00909
   6   41934.4    238.5   0.000296863   0.00233   0.01607   0.04494   0.00726
   7   42660.4    234.4   0.000050417   0.00039  -0.01598   0.01129  -0.00246
   8   44384.2    225.3   0.001620430   0.01202  -0.00859  -0.02911   0.10535
   9   44908.8    222.7   0.320238113   2.34756   1.16359   0.98550   0.14974
  10   45294.9    220.8   0.000113623   0.00083   0.00075   0.00490  -0.02831

-----------------------------------------------------------------------------
         ABSORPTION SPECTRUM VIA TRANSITION VELOCITY DIPOLE MOMENTS
-----------------------------------------------------------------------------
State   Energy    Wavelength   fosc        P2         PX        PY        PZ  
        (cm-1)      (nm)                 (au**2)     (au)      (au)      (au) 
-----------------------------------------------------------------------------
   1   21223.4    471.2   0.000047256   0.00001   0.00261  -0.00022  -0.00005
   2   30445.5    328.5   0.526070017   0.10946   0.32888  -0.03552  -0.00610
   3   34318.9    291.4   0.006555945   0.00154  -0.03836   0.00799   0.00151
   4   34382.8    290.8   0.000001110   0.00000   0.00005   0.00004  -0.00051
   5   40280.7    248.3   0.000003193   0.00000  -0.00014  -0.00008   0.00092
   6   41934.4    238.5   0.000016474   0.00000  -0.00156  -0.00150  -0.00023
   7   42660.4    234.4   0.001631288   0.00048   0.00242   0.00286  -0.02148
   8   44384.2    225.3   0.000468867   0.00014   0.00119  -0.00173   0.01174
   9   44908.8    222.7   0.084864449   0.02605  -0.15750  -0.03499  -0.00426
  10   45294.9    220.8   0.000000046   0.00000  -0.00009  -0.00007  -0.00004

-------------------------------------------------------------------
                             CD SPECTRUM
-------------------------------------------------------------------
State  Energy     Wavelength     R         MX        MY        MZ   
       (cm-1)       (nm)     (1e40*cgs)   (au)      (au)      (au)  
-------------------------------------------------------------------
   1   21223.4    471.2     -9.27368   0.34066   0.15180   0.01639
   2   30445.5    328.5      1.78408  -0.00128  -0.00601  -0.00150
   3   34318.9    291.4      0.11265   0.00208  -0.00107  -0.00115
   4   34382.8    290.8      1.41807  -0.00132   0.02705  -0.18000
   5   40280.7    248.3      0.92045  -0.00028  -0.03122   0.20751
   6   41934.4    238.5     -1.57607  -0.01683  -0.06703  -0.00828
   7   42660.4    234.4     -0.04015  -0.00013  -0.00343   0.01973
   8   44384.2    225.3     -0.50727   0.00004   0.00101  -0.00993
   9   44908.8    222.7     -3.23024   0.00071  -0.00755  -0.00157
  10   45294.9    220.8      6.52382  -0.00166   0.07266  -0.47632

-------------------------------------------------------------------
         CD SPECTRUM VIA TRANSITION VELOCITY DIPOLE MOMENTS        
-------------------------------------------------------------------
State  Energy     Wavelength     R         MX        MY        MZ   
       (cm-1)       (nm)     (1e40*cgs)   (au)      (au)      (au)  
-------------------------------------------------------------------
   1   21223.4    471.2      4.16863   0.34066   0.15180   0.01639
   2   30445.5    328.5     -0.66845  -0.00128  -0.00601  -0.00150
   3   34318.9    291.4     -0.27113   0.00208  -0.00107  -0.00115
   4   34382.8    290.8      0.27762  -0.00132   0.02705  -0.18000
   5   40280.7    248.3      0.49908  -0.00028  -0.03122   0.20751
   6   41934.4    238.5      0.31691  -0.01683  -0.06703  -0.00828
   7   42660.4    234.4     -1.05253  -0.00013  -0.00343   0.01973
   8   44384.2    225.3     -0.27579   0.00004   0.00101  -0.00993
   9   44908.8    222.7      0.36767   0.00071  -0.00755  -0.00157
  10   45294.9    220.8      0.03294  -0.00166   0.07266  -0.47632

Total run time:      271.132 sec

           *** ORCA-CIS/TD-DFT FINISHED WITHOUT ERROR ***

Maximum memory used throughout the entire CIS-calculation: 794.7 MB

-----------------------
CIS/TD-DFT TOTAL ENERGY
-----------------------

    E(SCF)  =   -572.288876406 Eh
    DE(CIS) =      0.096700913 Eh (Root  1)
    ----------------------------- ---------
    E(tot)  =   -572.192175492 Eh


-------------------------   --------------------
FINAL SINGLE POINT ENERGY      -572.192175492197
-------------------------   --------------------


                            ***************************************
                            *     ORCA property calculations      *
                            ***************************************

                                    ---------------------
                                    Active property flags
                                    ---------------------
   (+) Dipole Moment


------------------------------------------------------------------------------
                       ORCA ELECTRIC PROPERTIES CALCULATION
------------------------------------------------------------------------------

Dipole Moment Calculation                       ... on
Quadrupole Moment Calculation                   ... off
Polarizability Calculation                      ... off
GBWName                                         ... pbe0-train-0_job2.gbw
Electron density                                ... pbe0-train-0_job2.scfp
The origin for moment calculation is the CENTER OF MASS  = (-0.000037, -0.000391 -0.011995)

-------------
DIPOLE MOMENT
-------------
                                X             Y             Z
Electronic contribution:      0.00009      -0.00359       0.00575
Nuclear contribution   :      0.00026       0.00469      -0.01068
                        -----------------------------------------
Total Dipole Moment    :      0.00036       0.00110      -0.00493
                        -----------------------------------------
Magnitude (a.u.)       :      0.00506
Magnitude (Debye)      :      0.01286



--------------------
Rotational spectrum 
--------------------
 
Rotational constants in cm-1:     0.092145     0.009842     0.008893 
Rotational constants in MHz :  2762.433728   295.047209   266.604062 

 Dipole components along the rotational axes: 
x,y,z [a.u.] :     0.000382     0.000330    -0.005036 
x,y,z [Debye]:     0.000971     0.000838    -0.012801 

 

Timings for individual modules:

Sum of individual times         ...      421.976 sec (=   7.033 min)
GTO integral calculation        ...        2.678 sec (=   0.045 min)   0.6 %
SCF iterations                  ...      147.320 sec (=   2.455 min)  34.9 %
CIS module                      ...      271.978 sec (=   4.533 min)  64.5 %



                             ****ORCA TERMINATED NORMALLY****
TOTAL RUN TIME: 0 days 1 hours 3 minutes 29 seconds 379 msec
