
                                 *****************
                                 * O   R   C   A *
                                 *****************

                                            #,                                       
                                            ###                                      
                                            ####                                     
                                            #####                                    
                                            ######                                   
                                           ########,                                 
                                     ,,################,,,,,                         
                               ,,#################################,,                 
                          ,,##########################################,,             
                       ,#########################################, ''#####,          
                    ,#############################################,,   '####,        
                  ,##################################################,,,,####,       
                ,###########''''           ''''###############################       
              ,#####''   ,,,,##########,,,,          '''####'''          '####       
            ,##' ,,,,###########################,,,                        '##       
           ' ,,###''''                  '''############,,,                           
         ,,##''                                '''############,,,,        ,,,,,,###''
      ,#''                                            '''#######################'''  
     '                                                          ''''####''''         
             ,#######,   #######,   ,#######,      ##                                
            ,#'     '#,  ##    ##  ,#'     '#,    #''#        ######   ,####,        
            ##       ##  ##   ,#'  ##            #'  '#       #        #'  '#        
            ##       ##  #######   ##           ,######,      #####,   #    #        
            '#,     ,#'  ##    ##  '#,     ,#' ,#      #,         ##   #,  ,#        
             '#######'   ##     ##  '#######'  #'      '#     #####' # '####'        



                  #######################################################
                  #                        -***-                        #
                  #          Department of theory and spectroscopy      #
                  #    Directorship and core code : Frank Neese         #
                  #        Max Planck Institute fuer Kohlenforschung    #
                  #                Kaiser Wilhelm Platz 1               #
                  #                 D-45470 Muelheim/Ruhr               #
                  #                      Germany                        #
                  #                                                     #
                  #                  All rights reserved                #
                  #                        -***-                        #
                  #######################################################


                         Program Version 5.0.2 -  RELEASE  -


 With contributions from (in alphabetic order):
   Daniel Aravena         : Magnetic Suceptibility
   Michael Atanasov       : Ab Initio Ligand Field Theory (pilot matlab implementation)
   Alexander A. Auer      : GIAO ZORA, VPT2 properties, NMR spectrum
   Ute Becker             : Parallelization
   Giovanni Bistoni       : ED, misc. LED, open-shell LED, HFLD
   Martin Brehm           : Molecular dynamics
   Dmytro Bykov           : SCF Hessian
   Vijay G. Chilkuri      : MRCI spin determinant printing, contributions to CSF-ICE
   Dipayan Datta          : RHF DLPNO-CCSD density
   Achintya Kumar Dutta   : EOM-CC, STEOM-CC
   Dmitry Ganyushin       : Spin-Orbit,Spin-Spin,Magnetic field MRCI
   Miquel Garcia          : C-PCM and meta-GGA Hessian, CC/C-PCM, Gaussian charge scheme
   Yang Guo               : DLPNO-NEVPT2, F12-NEVPT2, CIM, IAO-localization
   Andreas Hansen         : Spin unrestricted coupled pair/coupled cluster methods
   Benjamin Helmich-Paris : MC-RPA, TRAH-SCF, COSX integrals
   Lee Huntington         : MR-EOM, pCC
   Robert Izsak           : Overlap fitted RIJCOSX, COSX-SCS-MP3, EOM
   Marcus Kettner         : VPT2
   Christian Kollmar      : KDIIS, OOCD, Brueckner-CCSD(T), CCSD density, CASPT2, CASPT2-K
   Simone Kossmann        : Meta GGA functionals, TD-DFT gradient, OOMP2, MP2 Hessian
   Martin Krupicka        : Initial AUTO-CI
   Lucas Lang             : DCDCAS
   Marvin Lechner         : AUTO-CI (C++ implementation), FIC-MRCC
   Dagmar Lenk            : GEPOL surface, SMD
   Dimitrios Liakos       : Extrapolation schemes; Compound Job, initial MDCI parallelization
   Dimitrios Manganas     : Further ROCIS development; embedding schemes
   Dimitrios Pantazis     : SARC Basis sets
   Anastasios Papadopoulos: AUTO-CI, single reference methods and gradients
   Taras Petrenko         : DFT Hessian,TD-DFT gradient, ASA, ECA, R-Raman, ABS, FL, XAS/XES, NRVS
   Peter Pinski           : DLPNO-MP2, DLPNO-MP2 Gradient
   Christoph Reimann      : Effective Core Potentials
   Marius Retegan         : Local ZFS, SOC
   Christoph Riplinger    : Optimizer, TS searches, QM/MM, DLPNO-CCSD(T), (RO)-DLPNO pert. Triples
   Tobias Risthaus        : Range-separated hybrids, TD-DFT gradient, RPA, STAB
   Michael Roemelt        : Original ROCIS implementation
   Masaaki Saitow         : Open-shell DLPNO-CCSD energy and density
   Barbara Sandhoefer     : DKH picture change effects
   Avijit Sen             : IP-ROCIS
   Kantharuban Sivalingam : CASSCF convergence, NEVPT2, FIC-MRCI
   Bernardo de Souza      : ESD, SOC TD-DFT
   Georgi Stoychev        : AutoAux, RI-MP2 NMR, DLPNO-MP2 response
   Willem Van den Heuvel  : Paramagnetic NMR
   Boris Wezisla          : Elementary symmetry handling
   Frank Wennmohs         : Technical directorship


 We gratefully acknowledge several colleagues who have allowed us to
 interface, adapt or use parts of their codes:
   Stefan Grimme, W. Hujo, H. Kruse, P. Pracht,  : VdW corrections, initial TS optimization,
                  C. Bannwarth, S. Ehlert          DFT functionals, gCP, sTDA/sTD-DF
   Ed Valeev, F. Pavosevic, A. Kumar             : LibInt (2-el integral package), F12 methods
   Garnet Chan, S. Sharma, J. Yang, R. Olivares  : DMRG
   Ulf Ekstrom                                   : XCFun DFT Library
   Mihaly Kallay                                 : mrcc  (arbitrary order and MRCC methods)
   Jiri Pittner, Ondrej Demel                    : Mk-CCSD
   Frank Weinhold                                : gennbo (NPA and NBO analysis)
   Christopher J. Cramer and Donald G. Truhlar   : smd solvation model
   Lars Goerigk                                  : TD-DFT with DH, B97 family of functionals
   V. Asgeirsson, H. Jonsson                     : NEB implementation
   FAccTs GmbH                                   : IRC, NEB, NEB-TS, DLPNO-Multilevel, CI-OPT
                                                   MM, QMMM, 2- and 3-layer-ONIOM, Crystal-QMMM,
                                                   LR-CPCM, SF, NACMEs, symmetry and pop. for TD-DFT,
                                                   nearIR, NL-DFT gradient (VV10), updates on ESD,
                                                   ML-optimized integration grids
   S Lehtola, MJT Oliveira, MAL Marques          : LibXC Library
   Liviu Ungur et al                             : ANISO software


 Your calculation uses the libint2 library for the computation of 2-el integrals
 For citations please refer to: http://libint.valeyev.net

 Your ORCA version has been built with support for libXC version: 5.1.0
 For citations please refer to: https://tddft.org/programs/libxc/

 This ORCA versions uses:
   CBLAS   interface :  Fast vector & matrix operations
   LAPACKE interface :  Fast linear algebra routines
   SCALAPACK package :  Parallel linear algebra routines
   Shared memory     :  Shared parallel matrices
   BLAS/LAPACK       :  OpenBLAS 0.3.15  USE64BITINT DYNAMIC_ARCH NO_AFFINITY Sandybridge SINGLE_THREADED
        Core in use  :  Sandybridge
   Copyright (c) 2011-2014, The OpenBLAS Project


Your calculation utilizes the atom-pairwise dispersion correction
with the zero-damping scheme (D30)
Cite in your paper:
S.Grimme, J.Antony, S.Ehrlich and H.Krieg, J.Chem.Phys., 132, (2010), 154104 
   

Your calculation utilizes the SMD solvation module
Please cite in your paper:
A.V. Marenich, C.J. Cramer, D.G. Truhlar J. Phys. Chem. B, 113, (2009), 6378 

XCFun DFT library Copyright 2009-2010 Ulf Ekstrom and contributors.
See http://admol.org/xcfun for more information.
This is free software; see the source code for copying conditions.
There is ABSOLUTELY NO WARRANTY; not even for MERCHANTABILITY or FITNESS FOR A PARTICULAR PURPOSE.
For details see the documentation.
Scientific users of this library should cite U. Ekstrom, L. Visscher, R. Bast, A. J. Thorvaldsen and K. Ruud;
J.Chem.Theor.Comp. 2010, DOI: 10.1021/ct100117s
XCFun Version 0.99 

================================================================================

----- Orbital basis set information -----
Your calculation utilizes the basis: aug-cc-pVTZ 
    H, B-Ne : Obtained from the ccRepo (grant-hill.group.shef.ac.uk/ccrepo) Feb. 2017
              R. A. Kendall, T. H. Dunning, Jr., R. J. Harrison, J. Chem. Phys. 96, 6796 (1992)
         He : Obtained from the ccRepo (grant-hill.group.shef.ac.uk/ccrepo) Feb. 2017
              D. E. Woon, T. H. Dunning, Jr., J. Chem. Phys. 100, 2975 (1994)
  Li-Be, Na : Obtained from the ccRepo (grant-hill.group.shef.ac.uk/ccrepo) Feb. 2017
              B. P. Prascher, D. E. Woon, K. A. Peterson, T. H. Dunning, Jr., A. K. Wilson, Theor. Chem. Acc. 128, 69 (2011)
         Mg : Obtained from the Peterson Research Group Website (tyr0.chem.wsu.edu/~kipeters) Feb. 2017
              B. P. Prascher, D. E. Woon, K. A. Peterson, T. H. Dunning, Jr., A. K. Wilson, Theor. Chem. Acc. 128, 69 (2011)
      Al-Ar : Obtained from the ccRepo (grant-hill.group.shef.ac.uk/ccrepo) Feb. 2017
              D. E. Woon, T. H. Dunning, Jr., J. Chem. Phys. 98, 1358 (1993)
      Sc-Zn : Obtained from the ccRepo (grant-hill.group.shef.ac.uk/ccrepo) Feb. 2017
              N. B. Balabanov, K. A. Peterson, J. Chem. Phys. 123, 064107 (2005)
              N. B. Balabanov, K. A. Peterson, J. Chem. Phys. 125, 074110 (2006)
      Ga-Kr : Obtained from the ccRepo (grant-hill.group.shef.ac.uk/ccrepo) Feb. 2017
              A. K. Wilson, D. E. Woon, K. A. Peterson, T. H. Dunning, Jr., J. Chem. Phys. 110, 7667 (1999)
     Ag, Au : Obtained from the Peterson Research Group Website (tyr0.chem.wsu.edu/~kipeters) Feb. 2017
              K. A. Peterson, C. Puzzarini, Theor. Chem. Acc. 114, 283 (2005)

The basis set includes element-specific modifications.

Your calculation utilizes the basis: cc-pVTZ 
       H, B-Ne : Obtained from the ccRepo (grant-hill.group.shef.ac.uk/ccrepo) Feb. 2017
                 T. H. Dunning, Jr., J. Chem. Phys. 90, 1007 (1989)
            He : Obtained from the ccRepo (grant-hill.group.shef.ac.uk/ccrepo) Feb. 2017
                 D. E. Woon, T. H. Dunning, Jr., J. Chem. Phys. 100, 2975 (1994)
  Li-Be, Na-Mg : Obtained from the ccRepo (grant-hill.group.shef.ac.uk/ccrepo) Feb. 2017
                 B. P. Prascher, D. E. Woon, K. A. Peterson, T. H. Dunning, Jr., A. K. Wilson, Theor. Chem. Acc. 128, 69 (2011)
         Al-Ar : Obtained from the ccRepo (grant-hill.group.shef.ac.uk/ccrepo) Feb. 2017
                 D. E. Woon, T. H. Dunning, Jr., J. Chem. Phys. 98, 1358 (1993)
            Ca : Obtained from the Peterson Research Group Website (tyr0.chem.wsu.edu/~kipeters) Feb. 2017
                 J. Koput, K. A. Peterson, J. Phys. Chem. 106, 9595 (2002)
         Sc-Zn : Obtained from the ccRepo (grant-hill.group.shef.ac.uk/ccrepo) Feb. 2017
                 N. B. Balabanov, K. A. Peterson, J. Chem. Phys. 123, 064107 (2005)
                 N. B. Balabanov, K. A. Peterson, J. Chem. Phys. 125, 074110 (2006)
         Ga-Kr : Obtained from the ccRepo (grant-hill.group.shef.ac.uk/ccrepo) Feb. 2017
                 A. K. Wilson, D. E. Woon, K. A. Peterson, T. H. Dunning, Jr., J. Chem. Phys. 110, 7667 (1999)
             Y : Obtained from the ccRepo (grant-hill.group.shef.ac.uk/ccrepo) Feb. 2017
                 K. A. Peterson, D. Figgen, M. Dolg, H. Stoll, J. Chem. Phys. 126, 124101 (2007)
        Ag, Au : Obtained from the Peterson Research Group Website (tyr0.chem.wsu.edu/~kipeters) Feb. 2017
                 K. A. Peterson, C. Puzzarini, Theor. Chem. Acc. 114, 283 (2005)

----- AuxJ basis set information -----
Your calculation utilizes the auxiliary basis: aug-cc-pVTZ/JK 
  H, B-F, Al-Cl, Ga-Br : Obtained from the TURBOMOLE 7.0 basis set library

The basis set includes element-specific modifications.

Your calculation utilizes the auxiliary basis: cc-pVTZ/JK 
  H, B-F, Al-Cl, Ga-Br : Obtained from the TURBOMOLE 7.0 basis set library

----- AuxC basis set information -----
Your calculation utilizes the auxiliary basis: aug-cc-pVTZ/C 
  H-He, B-F, Al-Ar, Ga-Kr : Obtained from the EMSL Basis Set Exchange (bse.pnl.gov) Feb. 2017
                            F. Weigend, A. Kohn, C. Hattig, J. Chem. Phys. 116, 3175 (2002)
                   Be, Mg : Obtained from the TURBOMOLE 7.0 basis set library
                            C. Haettig, Phys. Chem. Chem. Phys. 7, 59 (2005)
                       Ne : Obtained from the EMSL Basis Set Exchange (bse.pnl.gov) Feb. 2017
                            C. Haettig, Phys. Chem. Chem. Phys. 7, 59 (2005)
                            F. Weigend, A. Kohn, C. Hattig, J. Chem. Phys. 116, 3175 (2002)
                    Sc-Zn : Obtained from the EMSL Basis Set Exchange (bse.pnl.gov) Feb. 2017
                            J. G. Hill, J. A. Platts, J. Chem. Phys. 128, 044104 (2008)

The basis set includes element-specific modifications.

Your calculation utilizes the auxiliary basis: cc-pVTZ/C 
  Obtained from the EMSL Basis Set Exchange (bse.pnl.gov) Feb. 2017
  H-He, B-F, Al-Ar, Ga-Kr : F. Weigend, A. Kohn, C. Hattig, J. Chem. Phys. 116, 3175 (2002)
             Li-Be, Na-Mg : C. Haettig, Phys. Chem. Chem. Phys. 7, 59 (2005)
                       Ne : C. Haettig, Phys. Chem. Chem. Phys. 7, 59 (2005)
                            F. Weigend, A. Kohn, C. Hattig, J. Chem. Phys. 116, 3175 (2002)
                    Sc-Zn : J. G. Hill, J. A. Platts, J. Chem. Phys. 128, 044104 (2008)

================================================================================
                                        WARNINGS
                       Please study these warnings very carefully!
================================================================================


WARNING: Geometry Optimization
  ===> : Switching off AutoStart
         For restart on a previous wavefunction, please use MOREAD

INFO   : the flag for use of the SHARK integral package has been found!



***************************************
The coordinates will be read from file: 
***************************************


Your calculation utilizes the atom-pairwise dispersion correction
with the zero-damping scheme (D30)
Cite in your paper:
S.Grimme, J.Antony, S.Ehrlich and H.Krieg, J.Chem.Phys., 132, (2010), 154104 
   

Your calculation utilizes the SMD solvation module
Please cite in your paper:
A.V. Marenich, C.J. Cramer, D.G. Truhlar J. Phys. Chem. B, 113, (2009), 6378 

XCFun DFT library Copyright 2009-2010 Ulf Ekstrom and contributors.
See http://admol.org/xcfun for more information.
This is free software; see the source code for copying conditions.
There is ABSOLUTELY NO WARRANTY; not even for MERCHANTABILITY or FITNESS FOR A PARTICULAR PURPOSE.
For details see the documentation.
Scientific users of this library should cite U. Ekstrom, L. Visscher, R. Bast, A. J. Thorvaldsen and K. Ruud;
J.Chem.Theor.Comp. 2010, DOI: 10.1021/ct100117s
XCFun Version 0.99 

================================================================================

----- Orbital basis set information -----
Your calculation utilizes the basis: aug-cc-pVTZ 
    H, B-Ne : Obtained from the ccRepo (grant-hill.group.shef.ac.uk/ccrepo) Feb. 2017
              R. A. Kendall, T. H. Dunning, Jr., R. J. Harrison, J. Chem. Phys. 96, 6796 (1992)
         He : Obtained from the ccRepo (grant-hill.group.shef.ac.uk/ccrepo) Feb. 2017
              D. E. Woon, T. H. Dunning, Jr., J. Chem. Phys. 100, 2975 (1994)
  Li-Be, Na : Obtained from the ccRepo (grant-hill.group.shef.ac.uk/ccrepo) Feb. 2017
              B. P. Prascher, D. E. Woon, K. A. Peterson, T. H. Dunning, Jr., A. K. Wilson, Theor. Chem. Acc. 128, 69 (2011)
         Mg : Obtained from the Peterson Research Group Website (tyr0.chem.wsu.edu/~kipeters) Feb. 2017
              B. P. Prascher, D. E. Woon, K. A. Peterson, T. H. Dunning, Jr., A. K. Wilson, Theor. Chem. Acc. 128, 69 (2011)
      Al-Ar : Obtained from the ccRepo (grant-hill.group.shef.ac.uk/ccrepo) Feb. 2017
              D. E. Woon, T. H. Dunning, Jr., J. Chem. Phys. 98, 1358 (1993)
      Sc-Zn : Obtained from the ccRepo (grant-hill.group.shef.ac.uk/ccrepo) Feb. 2017
              N. B. Balabanov, K. A. Peterson, J. Chem. Phys. 123, 064107 (2005)
              N. B. Balabanov, K. A. Peterson, J. Chem. Phys. 125, 074110 (2006)
      Ga-Kr : Obtained from the ccRepo (grant-hill.group.shef.ac.uk/ccrepo) Feb. 2017
              A. K. Wilson, D. E. Woon, K. A. Peterson, T. H. Dunning, Jr., J. Chem. Phys. 110, 7667 (1999)
     Ag, Au : Obtained from the Peterson Research Group Website (tyr0.chem.wsu.edu/~kipeters) Feb. 2017
              K. A. Peterson, C. Puzzarini, Theor. Chem. Acc. 114, 283 (2005)

The basis set includes element-specific modifications.

Your calculation utilizes the basis: cc-pVTZ 
       H, B-Ne : Obtained from the ccRepo (grant-hill.group.shef.ac.uk/ccrepo) Feb. 2017
                 T. H. Dunning, Jr., J. Chem. Phys. 90, 1007 (1989)
            He : Obtained from the ccRepo (grant-hill.group.shef.ac.uk/ccrepo) Feb. 2017
                 D. E. Woon, T. H. Dunning, Jr., J. Chem. Phys. 100, 2975 (1994)
  Li-Be, Na-Mg : Obtained from the ccRepo (grant-hill.group.shef.ac.uk/ccrepo) Feb. 2017
                 B. P. Prascher, D. E. Woon, K. A. Peterson, T. H. Dunning, Jr., A. K. Wilson, Theor. Chem. Acc. 128, 69 (2011)
         Al-Ar : Obtained from the ccRepo (grant-hill.group.shef.ac.uk/ccrepo) Feb. 2017
                 D. E. Woon, T. H. Dunning, Jr., J. Chem. Phys. 98, 1358 (1993)
            Ca : Obtained from the Peterson Research Group Website (tyr0.chem.wsu.edu/~kipeters) Feb. 2017
                 J. Koput, K. A. Peterson, J. Phys. Chem. 106, 9595 (2002)
         Sc-Zn : Obtained from the ccRepo (grant-hill.group.shef.ac.uk/ccrepo) Feb. 2017
                 N. B. Balabanov, K. A. Peterson, J. Chem. Phys. 123, 064107 (2005)
                 N. B. Balabanov, K. A. Peterson, J. Chem. Phys. 125, 074110 (2006)
         Ga-Kr : Obtained from the ccRepo (grant-hill.group.shef.ac.uk/ccrepo) Feb. 2017
                 A. K. Wilson, D. E. Woon, K. A. Peterson, T. H. Dunning, Jr., J. Chem. Phys. 110, 7667 (1999)
             Y : Obtained from the ccRepo (grant-hill.group.shef.ac.uk/ccrepo) Feb. 2017
                 K. A. Peterson, D. Figgen, M. Dolg, H. Stoll, J. Chem. Phys. 126, 124101 (2007)
        Ag, Au : Obtained from the Peterson Research Group Website (tyr0.chem.wsu.edu/~kipeters) Feb. 2017
                 K. A. Peterson, C. Puzzarini, Theor. Chem. Acc. 114, 283 (2005)

----- AuxJ basis set information -----
Your calculation utilizes the auxiliary basis: aug-cc-pVTZ/JK 
  H, B-F, Al-Cl, Ga-Br : Obtained from the TURBOMOLE 7.0 basis set library

The basis set includes element-specific modifications.

Your calculation utilizes the auxiliary basis: cc-pVTZ/JK 
  H, B-F, Al-Cl, Ga-Br : Obtained from the TURBOMOLE 7.0 basis set library

----- AuxC basis set information -----
Your calculation utilizes the auxiliary basis: aug-cc-pVTZ/C 
  H-He, B-F, Al-Ar, Ga-Kr : Obtained from the EMSL Basis Set Exchange (bse.pnl.gov) Feb. 2017
                            F. Weigend, A. Kohn, C. Hattig, J. Chem. Phys. 116, 3175 (2002)
                   Be, Mg : Obtained from the TURBOMOLE 7.0 basis set library
                            C. Haettig, Phys. Chem. Chem. Phys. 7, 59 (2005)
                       Ne : Obtained from the EMSL Basis Set Exchange (bse.pnl.gov) Feb. 2017
                            C. Haettig, Phys. Chem. Chem. Phys. 7, 59 (2005)
                            F. Weigend, A. Kohn, C. Hattig, J. Chem. Phys. 116, 3175 (2002)
                    Sc-Zn : Obtained from the EMSL Basis Set Exchange (bse.pnl.gov) Feb. 2017
                            J. G. Hill, J. A. Platts, J. Chem. Phys. 128, 044104 (2008)

The basis set includes element-specific modifications.

Your calculation utilizes the auxiliary basis: cc-pVTZ/C 
  Obtained from the EMSL Basis Set Exchange (bse.pnl.gov) Feb. 2017
  H-He, B-F, Al-Ar, Ga-Kr : F. Weigend, A. Kohn, C. Hattig, J. Chem. Phys. 116, 3175 (2002)
             Li-Be, Na-Mg : C. Haettig, Phys. Chem. Chem. Phys. 7, 59 (2005)
                       Ne : C. Haettig, Phys. Chem. Chem. Phys. 7, 59 (2005)
                            F. Weigend, A. Kohn, C. Hattig, J. Chem. Phys. 116, 3175 (2002)
                    Sc-Zn : J. G. Hill, J. A. Platts, J. Chem. Phys. 128, 044104 (2008)

================================================================================
                                        WARNINGS
                       Please study these warnings very carefully!
================================================================================

INFO   : Checking CIS options ...

INFO   : the flag for use of the SHARK integral package has been found!

================================================================================
                                       INPUT FILE
================================================================================
NAME = wb97x-d3-train-0.inp
|  1> ! wb97x-d3 aug-cc-PVTZ RIJCOSX Opt
|  2> %maxcore 4000
|  3> %basis
|  4>  AuxJ "aug-cc-PVTZ/JK"
|  5>  AuxC "aug-cc-PVTZ/C"
|  6>  newGTO H "cc-PVTZ" end
|  7>  newAuxJGTO H "cc-PVTZ/JK" end
|  8>  newAuxCGTO H "cc-PVTZ/C" end
|  9> end
| 10> %cpcm
| 11>  SMD true
| 12>  SMDsolvent "benzene"
| 13> end
| 14> %pal nprocs 4 end
| 15> * xyz 0 1
| 16> C         -4.49800        0.16580        0.04130
| 17> C         -3.64810        1.25580        0.17290
| 18> C         -2.28180        1.07950        0.13650
| 19> C         -1.74760       -0.20460       -0.03390
| 20> N         -0.39610       -0.49050       -0.08470
| 21> N          0.39620        0.49240        0.06880
| 22> C          1.74770        0.20610        0.01640
| 23> C          2.61130        1.28860        0.21030
| 24> C          3.97790        1.09780        0.17750
| 25> C          4.49790       -0.16760       -0.04920
| 26> C          3.64700       -1.24720       -0.24490
| 27> C          2.28080       -1.06910       -0.21380
| 28> C         -2.61030       -1.29680       -0.16830
| 29> C         -3.97690       -1.10790       -0.12920
| 30> H         -5.56800        0.31100        0.07160
| 31> H         -4.06100        2.24580        0.30460
| 32> H         -1.60150        1.91160        0.23620
| 33> H          2.18550        2.26460        0.38580
| 34> H          4.64350        1.93500        0.32870
| 35> H          5.56780       -0.31440       -0.07400
| 36> H          4.05900       -2.23040       -0.42170
| 37> H          1.59970       -1.89300       -0.36320
| 38> H         -2.18350       -2.27940       -0.29950
| 39> H         -4.64170       -1.95310       -0.23180
| 40> *
| 41> 
| 42> 
| 43> $new_job
| 44> ! wb97x-d3 aug-cc-PVTZ RIJCOSX SP
| 45> %maxcore 4000
| 46> %basis
| 47>  AuxJ "aug-cc-PVTZ/JK"
| 48>  AuxC "aug-cc-PVTZ/C"
| 49>  newGTO H "cc-PVTZ" end
| 50>  newAuxJGTO H "cc-PVTZ/JK" end
| 51>  newAuxCGTO H "cc-PVTZ/C" end
| 52> end
| 53> %cpcm
| 54>  SMD true
| 55>  SMDsolvent "benzene"
| 56> end
| 57> %pal nprocs 4 end
| 58> %tddft
| 59>  nroots 10
| 60>  maxdim 7
| 61> end
| 62> * xyzfile 0 1
| 63> 
| 64>                          ****END OF INPUT****
================================================================================


                 $$$$$$$$$$$$$$$$$$$$$$$$$$$$$$$$$$$$$$$$$$$$$$ 
                 $ THERE ARE  2 JOBS TO BE PROCESSED THIS RUN $
                 $$$$$$$$$$$$$$$$$$$$$$$$$$$$$$$$$$$$$$$$$$$$$$ 




                 $$$$$$$$$$$$$$$$  JOB NUMBER  1 $$$$$$$$$$$$$$


                       *****************************
                       * Geometry Optimization Run *
                       *****************************

Geometry optimization settings:
Update method            Update   .... BFGS
Choice of coordinates    CoordSys .... Z-matrix Internals
Initial Hessian          InHess   .... Almoef's Model

Convergence Tolerances:
Energy Change            TolE     ....  5.0000e-06 Eh
Max. Gradient            TolMAXG  ....  3.0000e-04 Eh/bohr
RMS Gradient             TolRMSG  ....  1.0000e-04 Eh/bohr
Max. Displacement        TolMAXD  ....  4.0000e-03 bohr
RMS Displacement         TolRMSD  ....  2.0000e-03 bohr
Strict Convergence                ....  False
------------------------------------------------------------------------------
                        ORCA OPTIMIZATION COORDINATE SETUP
------------------------------------------------------------------------------

The optimization will be done in new redundant internal coordinates
Making redundant internal coordinates   ...  (new redundants) done
Evaluating the initial hessian          ...  (Almloef) done
Evaluating the coordinates              ...  done
Calculating the B-matrix                .... done
Calculating the G-matrix                .... done
Diagonalizing the G-matrix              .... done
Small eigenvalue found = 3.794e-03
Small eigenvalue found = 1.454e-02
Small eigenvalue found = 2.593e-02
Small eigenvalue found = 2.847e-02
The first mode is                       ....   50
The number of degrees of freedom        ....   66

    -----------------------------------------------------------------
                    Redundant Internal Coordinates


    -----------------------------------------------------------------
         Definition                    Initial Value    Approx d2E/dq
    -----------------------------------------------------------------
      1. B(C   1,C   0)                  1.3884         0.628402   
      2. B(C   2,C   1)                  1.3781         0.652696   
      3. B(C   3,C   2)                  1.4012         0.599645   
      4. B(N   4,C   3)                  1.3823         0.575562   
      5. B(N   5,N   4)                  1.2718         0.773827   
      6. B(C   6,N   5)                  1.3825         0.575261   
      7. B(C   7,C   6)                  1.3983         0.606061   
      8. B(C   8,C   7)                  1.3802         0.647593   
      9. B(C   9,C   8)                  1.3867         0.632339   
     10. B(C  10,C   9)                  1.3885         0.628304   
     11. B(C  11,C  10)                  1.3781         0.652690   
     12. B(C  11,C   6)                  1.4012         0.599642   
     13. B(C  12,C   3)                  1.3983         0.606055   
     14. B(C  13,C  12)                  1.3801         0.647824   
     15. B(C  13,C   0)                  1.3867         0.632425   
     16. B(H  14,C   0)                  1.0802         0.373256   
     17. B(H  15,C   1)                  1.0807         0.372603   
     18. B(H  16,C   2)                  1.0794         0.374377   
     19. B(H  17,C   7)                  1.0792         0.374668   
     20. B(H  18,C   8)                  1.0802         0.373328   
     21. B(H  19,C   9)                  1.0802         0.373288   
     22. B(H  20,C  10)                  1.0806         0.372760   
     23. B(H  21,C  11)                  1.0794         0.374447   
     24. B(H  22,C  12)                  1.0793         0.374546   
     25. B(H  23,C  13)                  1.0802         0.373290   
     26. A(C   1,C   0,H  14)          119.8775         0.355873   
     27. A(C  13,C   0,H  14)          119.9429         0.356259   
     28. A(C   1,C   0,C  13)          120.1795         0.436677   
     29. A(C   0,C   1,H  15)          119.7913         0.355767   
     30. A(C   0,C   1,C   2)          120.2616         0.439168   
     31. A(C   2,C   1,H  15)          119.9471         0.358067   
     32. A(C   1,C   2,C   3)          119.8964         0.435476   
     33. A(C   3,C   2,H  16)          118.5167         0.353238   
     34. A(C   1,C   2,H  16)          121.5869         0.358357   
     35. A(N   4,C   3,C  12)          115.9841         0.423786   
     36. A(C   2,C   3,N   4)          124.5240         0.422981   
     37. A(C   2,C   3,C  12)          119.4917         0.429710   
     38. A(C   3,N   4,N   5)          116.4112         0.436968   
     39. A(N   4,N   5,C   6)          116.3850         0.436927   
     40. A(C   7,C   6,C  11)          119.4956         0.429710   
     41. A(N   5,C   6,C  11)          124.5158         0.422941   
     42. A(N   5,C   6,C   7)          115.9886         0.423747   
     43. A(C   8,C   7,H  17)          121.3008         0.357926   
     44. A(C   6,C   7,H  17)          118.6201         0.353922   
     45. A(C   6,C   7,C   8)          120.0791         0.435695   
     46. A(C   9,C   8,H  18)          119.9381         0.356262   
     47. A(C   7,C   8,H  18)          119.9758         0.357708   
     48. A(C   7,C   8,C   9)          120.0861         0.439041   
     49. A(C  10,C   9,H  19)          119.8729         0.355869   
     50. A(C   8,C   9,H  19)          119.9448         0.356256   
     51. A(C   8,C   9,C  10)          120.1823         0.436654   
     52. A(C   9,C  10,H  20)          119.7931         0.355783   
     53. A(C   9,C  10,C  11)          120.2562         0.439155   
     54. A(C  11,C  10,H  20)          119.9508         0.358092   
     55. A(C   6,C  11,C  10)          119.9006         0.435474   
     56. A(C  10,C  11,H  21)          121.5871         0.358368   
     57. A(C   6,C  11,H  21)          118.5122         0.353249   
     58. A(C  13,C  12,H  22)          121.3063         0.357928   
     59. A(C   3,C  12,H  22)          118.6088         0.353901   
     60. A(C   3,C  12,C  13)          120.0847         0.435722   
     61. A(C  12,C  13,H  23)          119.9744         0.357723   
     62. A(C   0,C  13,H  23)          119.9398         0.356264   
     63. A(C   0,C  13,C  12)          120.0858         0.439080   
     64. D(C   2,C   1,C   0,C  13)     -0.0712         0.027371   
     65. D(H  15,C   1,C   0,C  13)    179.9449         0.027371   
     66. D(C   2,C   1,C   0,H  14)    179.9468         0.027371   
     67. D(H  15,C   1,C   0,H  14)     -0.0372         0.027371   
     68. D(H  16,C   2,C   1,H  15)     -0.0436         0.029679   
     69. D(C   3,C   2,C   1,C   0)     -0.0032         0.029679   
     70. D(C   3,C   2,C   1,H  15)    179.9808         0.029679   
     71. D(H  16,C   2,C   1,C   0)    179.9724         0.029679   
     72. D(C  12,C   3,C   2,H  16)   -179.8497         0.024787   
     73. D(C  12,C   3,C   2,C   1)      0.1266         0.024787   
     74. D(N   4,C   3,C   2,C   1)    179.9769         0.024787   
     75. D(N   4,C   3,C   2,H  16)      0.0005         0.024787   
     76. D(N   5,N   4,C   3,C  12)   -178.3685         0.024072   
     77. D(N   5,N   4,C   3,C   2)      1.7765         0.024072   
     78. D(C   6,N   5,N   4,C   3)   -179.9298         0.047896   
     79. D(C  11,C   6,N   5,N   4)      1.1500         0.024045   
     80. D(C   7,C   6,N   5,N   4)   -178.8836         0.024045   
     81. D(H  17,C   7,C   6,C  11)    179.9578         0.025349   
     82. D(H  17,C   7,C   6,N   5)     -0.0104         0.025349   
     83. D(C   8,C   7,C   6,C  11)     -0.1475         0.025349   
     84. D(C   8,C   7,C   6,N   5)    179.8843         0.025349   
     85. D(H  18,C   8,C   7,H  17)     -0.0334         0.029185   
     86. D(H  18,C   8,C   7,C   6)   -179.9252         0.029185   
     87. D(C   9,C   8,C   7,H  17)    179.9588         0.029185   
     88. D(C   9,C   8,C   7,C   6)      0.0670         0.029185   
     89. D(H  19,C   9,C   8,H  18)      0.0173         0.027737   
     90. D(H  19,C   9,C   8,C   7)   -179.9749         0.027737   
     91. D(C  10,C   9,C   8,H  18)   -179.9657         0.027737   
     92. D(C  10,C   9,C   8,C   7)      0.0422         0.027737   
     93. D(C  11,C  10,C   9,H  19)    179.9471         0.027362   
     94. D(C  11,C  10,C   9,C   8)     -0.0700         0.027362   
     95. D(H  20,C  10,C   9,H  19)     -0.0233         0.027362   
     96. D(H  20,C  10,C   9,C   8)    179.9597         0.027362   
     97. D(H  21,C  11,C  10,H  20)     -0.0312         0.029679   
     98. D(H  21,C  11,C  10,C   9)    179.9984         0.029679   
     99. D(C   6,C  11,C  10,H  20)    179.9586         0.029679   
    100. D(C   6,C  11,C  10,C   9)     -0.0117         0.029679   
    101. D(H  21,C  11,C   6,C   7)   -179.8901         0.024786   
    102. D(H  21,C  11,C   6,N   5)      0.0753         0.024786   
    103. D(C  10,C  11,C   6,C   7)      0.1197         0.024786   
    104. D(C  10,C  11,C   6,N   5)   -179.9149         0.024786   
    105. D(H  22,C  12,C   3,N   4)      0.0974         0.025349   
    106. D(H  22,C  12,C   3,C   2)    179.9601         0.025349   
    107. D(C  13,C  12,C   3,N   4)    179.9598         0.025349   
    108. D(C  13,C  12,C   3,C   2)     -0.1775         0.025349   
    109. D(H  23,C  13,C  12,H  22)     -0.0543         0.029207   
    110. D(H  23,C  13,C  12,C   3)   -179.9129         0.029207   
    111. D(C   0,C  13,C  12,H  22)    179.9631         0.029207   
    112. D(C   0,C  13,C  12,C   3)      0.1045         0.029207   
    113. D(H  23,C  13,C   0,H  14)      0.0196         0.027745   
    114. D(H  23,C  13,C   0,C   1)   -179.9624         0.027745   
    115. D(C  12,C  13,C   0,H  14)   -179.9978         0.027745   
    116. D(C  12,C  13,C   0,C   1)      0.0202         0.027745   
    -----------------------------------------------------------------

Number of atoms                         .... 24
Number of degrees of freedom            .... 116

         *************************************************************
         *                GEOMETRY OPTIMIZATION CYCLE   1            *
         *************************************************************
---------------------------------
CARTESIAN COORDINATES (ANGSTROEM)
---------------------------------
  C     -4.498000    0.165800    0.041300
  C     -3.648100    1.255800    0.172900
  C     -2.281800    1.079500    0.136500
  C     -1.747600   -0.204600   -0.033900
  N     -0.396100   -0.490500   -0.084700
  N      0.396200    0.492400    0.068800
  C      1.747700    0.206100    0.016400
  C      2.611300    1.288600    0.210300
  C      3.977900    1.097800    0.177500
  C      4.497900   -0.167600   -0.049200
  C      3.647000   -1.247200   -0.244900
  C      2.280800   -1.069100   -0.213800
  C     -2.610300   -1.296800   -0.168300
  C     -3.976900   -1.107900   -0.129200
  H     -5.568000    0.311000    0.071600
  H     -4.061000    2.245800    0.304600
  H     -1.601500    1.911600    0.236200
  H      2.185500    2.264600    0.385800
  H      4.643500    1.935000    0.328700
  H      5.567800   -0.314400   -0.074000
  H      4.059000   -2.230400   -0.421700
  H      1.599700   -1.893000   -0.363200
  H     -2.183500   -2.279400   -0.299500
  H     -4.641700   -1.953100   -0.231800

----------------------------
CARTESIAN COORDINATES (A.U.)
----------------------------
  NO LB      ZA    FRAG     MASS         X           Y           Z
   0 C     6.0000    0    12.011   -8.499988    0.313317    0.078046
   1 C     6.0000    0    12.011   -6.893910    2.373118    0.326734
   2 C     6.0000    0    12.011   -4.311977    2.039959    0.257948
   3 C     6.0000    0    12.011   -3.302485   -0.386638   -0.064062
   4 N     7.0000    0    14.007   -0.748521   -0.926911   -0.160060
   5 N     7.0000    0    14.007    0.748709    0.930501    0.130013
   6 C     6.0000    0    12.011    3.302674    0.389473    0.030992
   7 C     6.0000    0    12.011    4.934642    2.435101    0.397409
   8 C     6.0000    0    12.011    7.517142    2.074541    0.335426
   9 C     6.0000    0    12.011    8.499799   -0.316718   -0.092975
  10 C     6.0000    0    12.011    6.891831   -2.356866   -0.462794
  11 C     6.0000    0    12.011    4.310087   -2.020306   -0.404023
  12 C     6.0000    0    12.011   -4.932752   -2.450597   -0.318041
  13 C     6.0000    0    12.011   -7.515252   -2.093628   -0.244153
  14 H     1.0000    0     1.008  -10.521995    0.587705    0.135304
  15 H     1.0000    0     1.008   -7.674178    4.243947    0.575611
  16 H     1.0000    0     1.008   -3.026396    3.612400    0.446353
  17 H     1.0000    0     1.008    4.129996    4.279474    0.729056
  18 H     1.0000    0     1.008    8.774943    3.656620    0.621153
  19 H     1.0000    0     1.008   10.521617   -0.594130   -0.139840
  20 H     1.0000    0     1.008    7.670398   -4.214845   -0.796898
  21 H     1.0000    0     1.008    3.022995   -3.577252   -0.686349
  22 H     1.0000    0     1.008   -4.126217   -4.307442   -0.565973
  23 H     1.0000    0     1.008   -8.771542   -3.690824   -0.438039

--------------------------------
INTERNAL COORDINATES (ANGSTROEM)
--------------------------------
 C      0   0   0     0.000000000000     0.00000000     0.00000000
 C      1   0   0     1.388433855104     0.00000000     0.00000000
 C      2   1   0     1.378108246837   120.26157454     0.00000000
 C      3   2   1     1.401184716588   119.89640254     0.00000000
 N      4   3   2     1.382342830126   124.52403695   179.97687066
 N      5   4   3     1.271768040957   116.41118021     1.77653303
 C      6   5   4     1.382485334461   116.38500841   180.07018789
 C      7   6   5     1.398287674264   115.98861298   181.11643585
 C      8   7   6     1.380244920295   120.07905042   179.88429380
 C      9   8   7     1.386733590132   120.08610835     0.06697544
 C     10   9   8     1.388475948657   120.18227578     0.04216527
 C     11  10   9     1.378110757523   120.25618147   359.93004310
 C      4   3   2     1.398290202354   119.49174315     0.12664993
 C     13   4   3     1.380147666013   120.08473803   359.82250539
 H      1   2   3     1.080231979715   119.87754285   179.94681108
 H      2   1   3     1.080708702658   119.79130019   180.01602508
 H      3   2   1     1.079415855915   121.58685731   179.97242509
 H      8   7   6     1.079204285573   118.62008240     0.00000000
 H      9   8   7     1.080179910941   119.97583724   180.07479857
 H     10   9   8     1.080208910350   119.94480258   180.02507930
 H     11  10   9     1.080594503040   119.79305369   179.95965072
 H     12  11  10     1.079364989241   121.58711090   179.99840511
 H     13   4   3     1.079293491132   118.60879550   179.96013143
 H     14  13   4     1.080207776310   119.97438081   180.08710608

---------------------------
INTERNAL COORDINATES (A.U.)
---------------------------
 C      0   0   0     0.000000000000     0.00000000     0.00000000
 C      1   0   0     2.623759741212     0.00000000     0.00000000
 C      2   1   0     2.604247169420   120.26157454     0.00000000
 C      3   2   1     2.647855377388   119.89640254     0.00000000
 N      4   3   2     2.612249372127   124.52403695   179.97687066
 N      5   4   3     2.403293303283   116.41118021     1.77653303
 C      6   5   4     2.612518666294   116.38500841   180.07018789
 C      7   6   5     2.642380760798   115.98861298   181.11643585
 C      8   7   6     2.608284897093   120.07905042   179.88429380
 C      9   8   7     2.620546706059   120.08610835     0.06697544
 C     10   9   8     2.623839286499   120.18227578     0.04216527
 C     11  10   9     2.604251913929   120.25618147   359.93004310
 C      4   3   2     2.642385538195   119.49174315     0.12664993
 C     13   4   3     2.608101113134   120.08473803   359.82250539
 H      1   2   3     2.041342602766   119.87754285   179.94681108
 H      2   1   3     2.042243478568   119.79130019   180.01602508
 H      3   2   1     2.039800352291   121.58685731   179.97242509
 H      8   7   6     2.039400542288   118.62008240     0.00000000
 H      9   8   7     2.041244207041   119.97583724   180.07479857
 H     10   9   8     2.041299007983   119.94480258   180.02507930
 H     11  10   9     2.042027672566   119.79305369   179.95965072
 H     12  11  10     2.039704228209   121.58711090   179.99840511
 H     13   4   3     2.039569116363   118.60879550   179.96013143
 H     14  13   4     2.041296864957   119.97438081   180.08710608

---------------------
BASIS SET INFORMATION
---------------------
There are 3 groups of distinct atoms

 Group   1 Type C   : 19s6p3d2f contracted to 5s4p3d2f pattern {88111/3111/111/11}
 Group   2 Type N   : 19s6p3d2f contracted to 5s4p3d2f pattern {88111/3111/111/11}
 Group   3 Type H   : 5s2p1d contracted to 3s2p1d pattern {311/11/1}

Atom   0C    basis set group =>   1
Atom   1C    basis set group =>   1
Atom   2C    basis set group =>   1
Atom   3C    basis set group =>   1
Atom   4N    basis set group =>   2
Atom   5N    basis set group =>   2
Atom   6C    basis set group =>   1
Atom   7C    basis set group =>   1
Atom   8C    basis set group =>   1
Atom   9C    basis set group =>   1
Atom  10C    basis set group =>   1
Atom  11C    basis set group =>   1
Atom  12C    basis set group =>   1
Atom  13C    basis set group =>   1
Atom  14H    basis set group =>   3
Atom  15H    basis set group =>   3
Atom  16H    basis set group =>   3
Atom  17H    basis set group =>   3
Atom  18H    basis set group =>   3
Atom  19H    basis set group =>   3
Atom  20H    basis set group =>   3
Atom  21H    basis set group =>   3
Atom  22H    basis set group =>   3
Atom  23H    basis set group =>   3
---------------------------------
AUXILIARY/J BASIS SET INFORMATION
---------------------------------
There are 3 groups of distinct atoms

 Group   1 Type C   : 10s7p5d2f1g contracted to 10s7p5d2f1g pattern {1111111111/1111111/11111/11/1}
 Group   2 Type N   : 10s7p5d2f1g contracted to 10s7p5d2f1g pattern {1111111111/1111111/11111/11/1}
 Group   3 Type H   : 4s3p2d1f contracted to 4s3p2d1f pattern {1111/111/11/1}

Atom   0C    basis set group =>   1
Atom   1C    basis set group =>   1
Atom   2C    basis set group =>   1
Atom   3C    basis set group =>   1
Atom   4N    basis set group =>   2
Atom   5N    basis set group =>   2
Atom   6C    basis set group =>   1
Atom   7C    basis set group =>   1
Atom   8C    basis set group =>   1
Atom   9C    basis set group =>   1
Atom  10C    basis set group =>   1
Atom  11C    basis set group =>   1
Atom  12C    basis set group =>   1
Atom  13C    basis set group =>   1
Atom  14H    basis set group =>   3
Atom  15H    basis set group =>   3
Atom  16H    basis set group =>   3
Atom  17H    basis set group =>   3
Atom  18H    basis set group =>   3
Atom  19H    basis set group =>   3
Atom  20H    basis set group =>   3
Atom  21H    basis set group =>   3
Atom  22H    basis set group =>   3
Atom  23H    basis set group =>   3
---------------------------------
AUXILIARY/C BASIS SET INFORMATION
---------------------------------
There are 3 groups of distinct atoms

 Group   1 Type C   : 9s7p6d4f2g contracted to 9s7p6d4f2g pattern {111111111/1111111/111111/1111/11}
 Group   2 Type N   : 9s7p6d4f2g contracted to 9s7p6d4f2g pattern {111111111/1111111/111111/1111/11}
 Group   3 Type H   : 4s3p2d1f contracted to 4s3p2d1f pattern {1111/111/11/1}

Atom   0C    basis set group =>   1
Atom   1C    basis set group =>   1
Atom   2C    basis set group =>   1
Atom   3C    basis set group =>   1
Atom   4N    basis set group =>   2
Atom   5N    basis set group =>   2
Atom   6C    basis set group =>   1
Atom   7C    basis set group =>   1
Atom   8C    basis set group =>   1
Atom   9C    basis set group =>   1
Atom  10C    basis set group =>   1
Atom  11C    basis set group =>   1
Atom  12C    basis set group =>   1
Atom  13C    basis set group =>   1
Atom  14H    basis set group =>   3
Atom  15H    basis set group =>   3
Atom  16H    basis set group =>   3
Atom  17H    basis set group =>   3
Atom  18H    basis set group =>   3
Atom  19H    basis set group =>   3
Atom  20H    basis set group =>   3
Atom  21H    basis set group =>   3
Atom  22H    basis set group =>   3
Atom  23H    basis set group =>   3


           ************************************************************
           *        Program running with 4 parallel MPI-processes     *
           *              working on a common directory               *
           ************************************************************
------------------------------------------------------------------------------
                           ORCA GTO INTEGRAL CALCULATION
                           -- RI-GTO INTEGRALS CHOSEN --
------------------------------------------------------------------------------
------------------------------------------------------------------------------
                   ___                                                        
                  /   \      - P O W E R E D   B Y -                         
                 /     \                                                     
                 |  |  |   _    _      __       _____    __    __             
                 |  |  |  | |  | |    /  \     |  _  \  |  |  /  |          
                  \  \/   | |  | |   /    \    | | | |  |  | /  /          
                 / \  \   | |__| |  /  /\  \   | |_| |  |  |/  /          
                |  |  |   |  __  | /  /__\  \  |    /   |      \           
                |  |  |   | |  | | |   __   |  |    \   |  |\   \          
                \     /   | |  | | |  |  |  |  | |\  \  |  | \   \       
                 \___/    |_|  |_| |__|  |__|  |_| \__\ |__|  \__/        
                                                                              
                      - O R C A' S   B I G   F R I E N D -                    
                                      &                                       
                       - I N T E G R A L  F E E D E R -                       
                                                                              
 v1 FN, 2020, v2 2021                                                         
------------------------------------------------------------------------------


Reading SHARK input file wb97x-d3-train-0.SHARKINP.tmp ... ok
----------------------
SHARK INTEGRAL PACKAGE
----------------------

Number of atoms                             ...     24
Number of basis functions                   ...    868
Number of shells                            ...    340
Maximum angular momentum                    ...      3
Integral batch strategy                     ... SHARK/LIBINT Hybrid
RI-J (if used) integral strategy            ... SPLIT-RIJ (Revised 2003 algorithm where possible)
Printlevel                                  ...      1
Contraction scheme used                     ... PARTIAL GENERAL contraction
Coulomb Range Separation                    ... NOT USED
Exchange Range Separation                   ... Long Range
   Mu parameter                             ...  0.250000
   Scaling (regular/separated)              ...  0.195728  0.804272
Finite Nucleus Model                        ... NOT USED
Auxiliary Coulomb fitting basis             ... AVAILABLE
   # of basis functions in Aux-J            ...   1406
   # of shells in Aux-J                     ...    450
   Maximum angular momentum in Aux-J        ...      4
Auxiliary J/K fitting basis                 ... NOT available
Auxiliary Correlation fitting basis         ... AVAILABLE
   # of basis functions in Aux-C            ...   1784
   # of shells in Aux-C                     ...    492
   Maximum angular momentum in Aux-C        ...      4
Auxiliary 'external' fitting basis          ... NOT available
Integral threshold                          ...     2.500000e-11
Primitive cut-off                           ...     2.500000e-12
Primitive pair pre-selection threshold      ...     2.500000e-12

Calculating pre-screening integrals         ... done (  0.2 sec) Dimension = 340
Calculating pre-screening integrals (ORCA)  ... done (  0.4 sec) Dimension = 256
Organizing shell pair data                  ... done (  0.5 sec)
Shell pair information
Total number of shell pairs                 ...     57970
Shell pairs after pre-screening             ...     40430
Total number of primitive shell pairs       ...     75538
Primitive shell pairs kept                  ...     47956
          la=0 lb=0:   9392 shell pairs
          la=1 lb=0:  10268 shell pairs
          la=1 lb=1:   2452 shell pairs
          la=2 lb=0:   6858 shell pairs
          la=2 lb=1:   3264 shell pairs
          la=2 lb=2:   1129 shell pairs
          la=3 lb=0:   3724 shell pairs
          la=3 lb=1:   1778 shell pairs
          la=3 lb=2:   1212 shell pairs
          la=3 lb=3:    353 shell pairs

Calculating one electron integrals          ... done (  0.1 sec)
Calculating RI/J V-Matrix + Cholesky decomp.... done (  0.2 sec)
Calculating RI/C V-Matrix + Cholesky decomp.... done (  0.3 sec)
Calculating Nuclear repulsion               ... done (  0.0 sec) ENN=    754.763724847319 Eh

SHARK setup successfully completed in   3.3 seconds

Maximum memory used throughout the entire GTOINT-calculation: 62.7 MB


           ************************************************************
           *        Program running with 4 parallel MPI-processes     *
           *              working on a common directory               *
           ************************************************************
-------------------------------------------------------------------------------
                                 ORCA SCF
-------------------------------------------------------------------------------

------------
SCF SETTINGS
------------
Hamiltonian:
 Density Functional     Method          .... DFT(GTOs)
 Exchange Functional    Exchange        .... WB97X-D3
 Correlation Functional Correlation     .... WB97X-D3
 Gradients option       PostSCFGGA      .... off
 Hybrid DFT is turned on
   Fraction HF Exchange ScalHFX         ....  0.195728
   Scaling of DF-GGA-X  ScalDFX         ....  0.000000
   Scaling of DF-GGA-C  ScalDFC         ....  1.000000
   Scaling of DF-LDA-C  ScalLDAC        ....  1.000000
   Perturbative correction              ....  0.000000
   Density functional embedding theory  .... OFF
 Long-range corrected/Screened/Range-Separated Hybrid DFT is turned on
   Amount of maximum screened exact exchange              ....  0.804272
   Range separation parameter mu (erf(mu*r12)/r12)        ....  0.250000
 RI-approximation to the Coulomb term is turned on
   Number of AuxJ basis functions       .... 1406
   RIJ-COSX (HFX calculated with COS-X)).... on


General Settings:
 Integral files         IntName         .... wb97x-d3-train-0
 Hartree-Fock type      HFTyp           .... RHF
 Total Charge           Charge          ....    0
 Multiplicity           Mult            ....    1
 Number of Electrons    NEL             ....   96
 Basis Dimension        Dim             ....  784
 Nuclear Repulsion      ENuc            ....    754.7637248473 Eh

Convergence Acceleration:
 DIIS                   CNVDIIS         .... on
   Start iteration      DIISMaxIt       ....    12
   Startup error        DIISStart       ....  0.200000
   # of expansion vecs  DIISMaxEq       ....     5
   Bias factor          DIISBfac        ....   1.050
   Max. coefficient     DIISMaxC        ....  10.000
 Trust-Rad. Augm. Hess. CNVTRAH         .... auto
   Auto Start mean grad. ratio tolernc. ....  1.125000
   Auto Start start iteration           ....    20
   Auto Start num. interpolation iter.  ....    10
   Max. Number of Micro iterations      ....    16
   Max. Number of Macro iterations      .... Maxiter - #DIIS iter
   Number of Davidson start vectors     ....     2
   Converg. threshold I  (grad. norm)   ....   1.000e-05
   Converg. threshold II (energy diff.) ....   1.000e-08
   Grad. Scal. Fac. for Micro threshold ....   0.100
   Minimum threshold for Micro iter.    ....   0.010
   NR start threshold (gradient norm)   ....   0.001
   Initial trust radius                 ....   0.400
   Minimum AH scaling param. (alpha)    ....   1.000
   Maximum AH scaling param. (alpha)    .... 1000.000
   Orbital update algorithm             .... Taylor
   White noise on init. David. guess    .... on
   Maximum white noise                  ....   0.010
   Quad. conv. algorithm                .... NR
 SOSCF                  CNVSOSCF        .... on
   Start iteration      SOSCFMaxIt      ....   150
   Startup grad/error   SOSCFStart      ....  0.003300
 Level Shifting         CNVShift        .... on
   Level shift para.    LevelShift      ....    0.2500
   Turn off err/grad.   ShiftErr        ....    0.0010
 Zerner damping         CNVZerner       .... off
 Static damping         CNVDamp         .... on
   Fraction old density DampFac         ....    0.7000
   Max. Damping (<1)    DampMax         ....    0.9800
   Min. Damping (>=0)   DampMin         ....    0.0000
   Turn off err/grad.   DampErr         ....    0.1000
 Fernandez-Rico         CNVRico         .... off

SCF Procedure:
 Maximum # iterations   MaxIter         ....   125
 SCF integral mode      SCFMode         .... Direct
   Integral package                     .... SHARK and LIBINT hybrid scheme
 Reset frequency        DirectResetFreq ....    20
 Integral Threshold     Thresh          ....  2.500e-11 Eh
 Primitive CutOff       TCut            ....  2.500e-12 Eh

Convergence Tolerance:
 Convergence Check Mode ConvCheckMode   .... Total+1el-Energy
 Convergence forced     ConvForced      .... 0
 Energy Change          TolE            ....  1.000e-08 Eh
 1-El. energy change                    ....  1.000e-05 Eh
 Orbital Gradient       TolG            ....  1.000e-05
 Orbital Rotation angle TolX            ....  1.000e-05
 DIIS Error             TolErr          ....  5.000e-07


Diagonalization of the overlap matrix:
Smallest eigenvalue                        ... 1.183e-06
Time for diagonalization                   ...    0.214 sec
Threshold for overlap eigenvalues          ... 1.000e-08
Number of eigenvalues below threshold      ... 0
Time for construction of square roots      ...    0.125 sec
Total time needed                          ...    0.342 sec

Time for model grid setup =    0.444 sec

------------------------------
INITIAL GUESS: MODEL POTENTIAL
------------------------------
Loading Hartree-Fock densities                     ... done
Calculating cut-offs                               ... done
Initializing the effective Hamiltonian             ... done
Setting up the integral package (SHARK)            ... done
Starting the Coulomb interaction                   ... done (   1.3 sec)
Reading the grid                                   ... done
Mapping shells                                     ... done
Starting the XC term evaluation                    ... done (   1.3 sec)
  promolecular density results
     # of electrons  =     95.993679595
     EX              =    -77.397727581
     EC              =     -3.194484167
     EX+EC           =    -80.592211747
Transforming the Hamiltonian                       ... done (   0.1 sec)
Diagonalizing the Hamiltonian                      ... done (   0.2 sec)
Back transforming the eigenvectors                 ... done (   0.0 sec)
Now organizing SCF variables                       ... done
                      ------------------
                      INITIAL GUESS DONE (   3.4 sec)
                      ------------------
-------------------
DFT GRID GENERATION
-------------------

General Integration Accuracy     IntAcc      ... 4.388
Radial Grid Type                 RadialGrid  ... OptM3 with GC (2021)
Angular Grid (max. ang.)         AngularGrid ... 4 (Lebedev-302)
Angular grid pruning method      GridPruning ... 4 (adaptive)
Weight generation scheme         WeightScheme... Becke
Basis function cutoff            BFCut       ... 1.0000e-11
Integration weight cutoff        WCut        ... 1.0000e-14
Angular grids for H and He will be reduced by one unit
Partially contracted basis set               ... off
Rotationally invariant grid construction     ... off

Total number of grid points                  ...   119759
Total number of batches                      ...     1886
Average number of points per batch           ...       63
Average number of grid points per atom       ...     4990
Time for grid setup =    1.758 sec

--------------------
COSX GRID GENERATION
--------------------

GRIDX 1
-------
General Integration Accuracy     IntAcc      ... 3.816
Radial Grid Type                 RadialGrid  ... OptM3 with GC (2021)
Angular Grid (max. ang.)         AngularGrid ... 1 (Lebedev-50)
Angular grid pruning method      GridPruning ... 4 (adaptive)
Weight generation scheme         WeightScheme... Becke
Basis function cutoff            BFCut       ... 1.0000e-11
Integration weight cutoff        WCut        ... 1.0000e-14
Angular grids for H and He will be reduced by one unit
Partially contracted basis set               ... on
Rotationally invariant grid construction     ... off

Total number of grid points                  ...    15306
Total number of batches                      ...      256
Average number of points per batch           ...       59
Average number of grid points per atom       ...      638
UseSFitting                                  ... on

GRIDX 2
-------
General Integration Accuracy     IntAcc      ... 4.020
Radial Grid Type                 RadialGrid  ... OptM3 with GC (2021)
Angular Grid (max. ang.)         AngularGrid ... 2 (Lebedev-110)
Angular grid pruning method      GridPruning ... 4 (adaptive)
Weight generation scheme         WeightScheme... Becke
Basis function cutoff            BFCut       ... 1.0000e-11
Integration weight cutoff        WCut        ... 1.0000e-14
Angular grids for H and He will be reduced by one unit
Partially contracted basis set               ... on
Rotationally invariant grid construction     ... off

Total number of grid points                  ...    36690
Total number of batches                      ...      583
Average number of points per batch           ...       62
Average number of grid points per atom       ...     1529
UseSFitting                                  ... on

GRIDX 3
-------
General Integration Accuracy     IntAcc      ... 4.338
Radial Grid Type                 RadialGrid  ... OptM3 with GC (2021)
Angular Grid (max. ang.)         AngularGrid ... 3 (Lebedev-194)
Angular grid pruning method      GridPruning ... 4 (adaptive)
Weight generation scheme         WeightScheme... Becke
Basis function cutoff            BFCut       ... 1.0000e-11
Integration weight cutoff        WCut        ... 1.0000e-14
Angular grids for H and He will be reduced by one unit
Partially contracted basis set               ... on
Rotationally invariant grid construction     ... off

Total number of grid points                  ...    79133
Total number of batches                      ...     1248
Average number of points per batch           ...       63
Average number of grid points per atom       ...     3297
UseSFitting                                  ... on

Time for X-Grid setup             =    3.825 sec


--------------------
CPCM SOLVATION MODEL
--------------------
CPCM parameters:
  Epsilon                                         ...       2.2706
  Refrac                                          ...       1.5011
  Rsolv                                           ...       1.3000
  Surface type                                    ... GAUSSIAN VDW
  Epsilon function type                           ...         CPCM
Solvent:                                     ... BENZENE
SMD-CDS solvent descriptors:
  Soln                                       ...    1.5011
  Soln25                                     ...    1.4972
  Sola                                       ...    0.0000
  Solb                                       ...    0.1400
  Solg                                       ...   40.6200
  Solc                                       ...    1.0000
  Solh                                       ...    0.0000
Radii:
 Radius for C  used is    3.4960 Bohr (=   1.8500 Ang.)
 Radius for N  used is    3.5716 Bohr (=   1.8900 Ang.)
 Radius for H  used is    2.2677 Bohr (=   1.2000 Ang.)
Calculating surface                               ...        done! (  0.0s)
GEPOL surface points                              ...         1407
GEPOL Volume                                      ...    1324.4442
GEPOL Surface-area                                ...     771.4012
Calculating surface distance matrix               ...        done! (  0.0s)
Performing Cholesky decomposition & store         ...        done! (  0.4s)
Overall time for CPCM initialization              ...                 0.4s
 re-compute Schwartz prescreening matrix in partically contracted basis (1) ...done (   0.194 sec)
--------------
SCF ITERATIONS
--------------
ITER       Energy         Delta-E        Max-DP      RMS-DP      [F,P]     Damp
               ***  Starting incremental Fock matrix formation  ***
  0   -572.5149377930   0.000000000000 0.08988915  0.00081581  0.1341717 0.7000
  1   -572.6127852095  -0.097847416477 0.05900280  0.00062782  0.0815954 0.7000
                               ***Turning on DIIS***
  2   -572.6679221178  -0.055136908297 0.10884834  0.00149498  0.0442979 0.0000
  3   -572.7635016193  -0.095579501433 0.05964871  0.00063320  0.0292649 0.0000
  4   -572.7738882083  -0.010386589007 0.02720834  0.00025046  0.0046710 0.0000
                      *** Initiating the SOSCF procedure ***
                           *** Shutting down DIIS ***
                      *** Re-Reading the Fockian *** 
                      *** Removing any level shift *** 
ITER      Energy       Delta-E        Grad      Rot      Max-DP    RMS-DP
  5   -572.77420416  -0.0003159473  0.002452  0.002452  0.007413  0.000073
               *** Restarting incremental Fock matrix formation ***
  6   -572.77429374  -0.0000895845  0.001119  0.003270  0.040409  0.000622
  7   -572.77432728  -0.0000335436  0.000691  0.003766  0.012722  0.000206
  8   -572.77433362  -0.0000063353  0.000316  0.000662  0.011101  0.000170
  9   -572.77433537  -0.0000017554  0.000064  0.000178  0.001007  0.000013
 10   -572.77433547  -0.0000000950  0.000012  0.000043  0.004226  0.000022
 11   -572.77433545   0.0000000209  0.000003  0.000016  0.005524  0.000025
                  ***Gradient check signals convergence***
              ***Rediagonalizing the Fockian in SOSCF/NRSCF***

               *****************************************************
               *                     SUCCESS                       *
               *           SCF CONVERGED AFTER  12 CYCLES          *
               *****************************************************

Old exchange energy                            =    -25.719376066 Eh
New exchange energy                            =    -25.719355667 Eh
Exchange energy change after final integration =      0.000020400 Eh
Total energy after final integration           =   -572.774315043 Eh
Final COS-X integration done in                =   106.479 sec

SMD CDS free energy correction energy :                -5.78691     Kcal/mol
Total Energy after SMD CDS correction =              -572.783537064 Eh

----------------
TOTAL SCF ENERGY
----------------

Total Energy       :         -572.78353706 Eh          -15586.23243 eV

Components:
Nuclear Repulsion  :          754.76372485 Eh           20538.16509 eV
Electronic Energy  :        -1327.54726191 Eh          -36124.39753 eV
One Electron Energy:        -2270.34983886 Eh          -61779.35992 eV
Two Electron Energy:          942.80257695 Eh           25654.96239 eV
Max COSX asymmetry :            0.00000855 Eh               0.00023 eV
CPCM Dielectric    :           -0.00639706 Eh              -0.17407 eV
SMD CDS (Gcds)     :           -0.00922202 Eh              -0.25094 eV

Virial components:
Potential Energy   :        -1142.43253305 Eh          -31087.16967 eV
Kinetic Energy     :          569.64899598 Eh           15500.93723 eV
Virial Ratio       :            2.00550258


DFT components:
N(Alpha)           :       48.000022852645 electrons
N(Beta)            :       48.000022852645 electrons
N(Total)           :       96.000045705290 electrons
E(XC)              :      -56.854687804922 Eh       
DFET-embed. en.    :        0.000000000000 Eh       
CPCM Solvation Model Properties:
Surface-charge          :           -0.05481280
Charge-correction       :            0.00008261 Eh               0.00225 eV
Free-energy (cav+disp)  :           -0.00922202 Eh              -0.25094 eV

---------------
SCF CONVERGENCE
---------------

  Last Energy change         ...    6.1483e-09  Tolerance :   1.0000e-08
  Last MAX-Density change    ...    2.2204e-15  Tolerance :   1.0000e-07
  Last RMS-Density change    ...    1.6006e-17  Tolerance :   5.0000e-09
  Last Orbital Gradient      ...    1.7250e-06  Tolerance :   1.0000e-05
  Last Orbital Rotation      ...    6.1577e-06  Tolerance :   1.0000e-05

             **** THE GBW FILE WAS UPDATED (wb97x-d3-train-0.gbw) ****
             **** DENSITY wb97x-d3-train-0.scfp WAS UPDATED ****
             **** ENERGY FILE WAS UPDATED (wb97x-d3-train-0.en.tmp) ****
             **** THE GBW FILE WAS UPDATED (wb97x-d3-train-0.gbw) ****
             **** DENSITY wb97x-d3-train-0.scfp WAS UPDATED ****
----------------
ORBITAL ENERGIES
----------------

  NO   OCC          E(Eh)            E(eV) 
   0   2.0000     -14.476496      -393.9255 
   1   2.0000     -14.476043      -393.9132 
   2   2.0000     -10.314315      -280.6668 
   3   2.0000     -10.314311      -280.6667 
   4   2.0000     -10.289088      -279.9803 
   5   2.0000     -10.289081      -279.9801 
   6   2.0000     -10.288514      -279.9647 
   7   2.0000     -10.288510      -279.9646 
   8   2.0000     -10.287057      -279.9250 
   9   2.0000     -10.287027      -279.9242 
  10   2.0000     -10.286294      -279.9043 
  11   2.0000     -10.286270      -279.9036 
  12   2.0000     -10.285962      -279.8953 
  13   2.0000     -10.285961      -279.8952 
  14   2.0000      -1.154826       -31.4244 
  15   2.0000      -1.002517       -27.2799 
  16   2.0000      -0.980330       -26.6761 
  17   2.0000      -0.926868       -25.2214 
  18   2.0000      -0.874506       -23.7965 
  19   2.0000      -0.873507       -23.7693 
  20   2.0000      -0.860406       -23.4128 
  21   2.0000      -0.799567       -21.7573 
  22   2.0000      -0.735134       -20.0040 
  23   2.0000      -0.727904       -19.8073 
  24   2.0000      -0.710934       -19.3455 
  25   2.0000      -0.676952       -18.4208 
  26   2.0000      -0.642418       -17.4811 
  27   2.0000      -0.614483       -16.7209 
  28   2.0000      -0.591244       -16.0886 
  29   2.0000      -0.580491       -15.7959 
  30   2.0000      -0.556366       -15.1395 
  31   2.0000      -0.545547       -14.8451 
  32   2.0000      -0.543017       -14.7762 
  33   2.0000      -0.531046       -14.4505 
  34   2.0000      -0.528298       -14.3757 
  35   2.0000      -0.525559       -14.3012 
  36   2.0000      -0.498379       -13.5616 
  37   2.0000      -0.491369       -13.3708 
  38   2.0000      -0.459626       -12.5071 
  39   2.0000      -0.458569       -12.4783 
  40   2.0000      -0.456788       -12.4298 
  41   2.0000      -0.439924       -11.9709 
  42   2.0000      -0.437572       -11.9069 
  43   2.0000      -0.371332       -10.1044 
  44   2.0000      -0.350734        -9.5440 
  45   2.0000      -0.350229        -9.5302 
  46   2.0000      -0.332810        -9.0562 
  47   2.0000      -0.309073        -8.4103 
  48   0.0000      -0.028995        -0.7890 
  49   0.0000       0.051710         1.4071 
  50   0.0000       0.052315         1.4236 
  51   0.0000       0.055264         1.5038 
  52   0.0000       0.056880         1.5478 
  53   0.0000       0.059727         1.6253 
  54   0.0000       0.064943         1.7672 
  55   0.0000       0.066027         1.7967 
  56   0.0000       0.069599         1.8939 
  57   0.0000       0.079622         2.1666 
  58   0.0000       0.081216         2.2100 
  59   0.0000       0.088977         2.4212 
  60   0.0000       0.092481         2.5165 
  61   0.0000       0.099220         2.6999 
  62   0.0000       0.099260         2.7010 
  63   0.0000       0.105480         2.8703 
  64   0.0000       0.106172         2.8891 
  65   0.0000       0.106901         2.9089 
  66   0.0000       0.112360         3.0575 
  67   0.0000       0.116282         3.1642 
  68   0.0000       0.121504         3.3063 
  69   0.0000       0.124898         3.3987 
  70   0.0000       0.128643         3.5005 
  71   0.0000       0.137879         3.7519 
  72   0.0000       0.140716         3.8291 
  73   0.0000       0.143963         3.9174 
  74   0.0000       0.148396         4.0381 
  75   0.0000       0.150022         4.0823 
  76   0.0000       0.152119         4.1394 
  77   0.0000       0.159236         4.3330 
  78   0.0000       0.163594         4.4516 
  79   0.0000       0.165754         4.5104 
  80   0.0000       0.172796         4.7020 
  81   0.0000       0.177859         4.8398 
  82   0.0000       0.181710         4.9446 
  83   0.0000       0.181908         4.9500 
  84   0.0000       0.186907         5.0860 
  85   0.0000       0.186999         5.0885 
  86   0.0000       0.188321         5.1245 
  87   0.0000       0.192889         5.2488 
  88   0.0000       0.196840         5.3563 
  89   0.0000       0.198631         5.4050 
  90   0.0000       0.201032         5.4704 
  91   0.0000       0.207629         5.6499 
  92   0.0000       0.209663         5.7052 
  93   0.0000       0.218967         5.9584 
  94   0.0000       0.219288         5.9671 
  95   0.0000       0.221622         6.0307 
  96   0.0000       0.222509         6.0548 
  97   0.0000       0.229309         6.2398 
  98   0.0000       0.237689         6.4678 
  99   0.0000       0.239621         6.5204 
 100   0.0000       0.243995         6.6395 
 101   0.0000       0.247888         6.7454 
 102   0.0000       0.253424         6.8960 
 103   0.0000       0.253919         6.9095 
 104   0.0000       0.255161         6.9433 
 105   0.0000       0.257757         7.0139 
 106   0.0000       0.276882         7.5344 
 107   0.0000       0.279657         7.6098 
 108   0.0000       0.281788         7.6678 
 109   0.0000       0.287565         7.8250 
 110   0.0000       0.295411         8.0386 
 111   0.0000       0.299818         8.1585 
 112   0.0000       0.303108         8.2480 
 113   0.0000       0.307610         8.3705 
 114   0.0000       0.310308         8.4439 
 115   0.0000       0.314561         8.5596 
 116   0.0000       0.317504         8.6397 
 117   0.0000       0.321110         8.7379 
 118   0.0000       0.322959         8.7882 
 119   0.0000       0.337927         9.1955 
 120   0.0000       0.340961         9.2780 
 121   0.0000       0.342121         9.3096 
 122   0.0000       0.342880         9.3302 
 123   0.0000       0.350383         9.5344 
 124   0.0000       0.356049         9.6886 
 125   0.0000       0.359582         9.7847 
 126   0.0000       0.359883         9.7929 
 127   0.0000       0.364349         9.9145 
 128   0.0000       0.367247         9.9933 
 129   0.0000       0.370130        10.0718 
 130   0.0000       0.378603        10.3023 
 131   0.0000       0.379583        10.3290 
 132   0.0000       0.383908        10.4467 
 133   0.0000       0.388187        10.5631 
 134   0.0000       0.390198        10.6178 
 135   0.0000       0.408934        11.1276 
 136   0.0000       0.408996        11.1294 
 137   0.0000       0.412787        11.2325 
 138   0.0000       0.416628        11.3370 
 139   0.0000       0.416669        11.3381 
 140   0.0000       0.421089        11.4584 
 141   0.0000       0.426388        11.6026 
 142   0.0000       0.433940        11.8081 
 143   0.0000       0.436084        11.8665 
 144   0.0000       0.441828        12.0228 
 145   0.0000       0.445938        12.1346 
 146   0.0000       0.452022        12.3001 
 147   0.0000       0.453152        12.3309 
 148   0.0000       0.453644        12.3443 
 149   0.0000       0.456382        12.4188 
 150   0.0000       0.460844        12.5402 
 151   0.0000       0.461578        12.5602 
 152   0.0000       0.467440        12.7197 
 153   0.0000       0.471868        12.8402 
 154   0.0000       0.475104        12.9282 
 155   0.0000       0.475960        12.9515 
 156   0.0000       0.476756        12.9732 
 157   0.0000       0.479787        13.0557 
 158   0.0000       0.481300        13.0968 
 159   0.0000       0.481876        13.1125 
 160   0.0000       0.494325        13.4513 
 161   0.0000       0.496775        13.5179 
 162   0.0000       0.499215        13.5843 
 163   0.0000       0.500813        13.6278 
 164   0.0000       0.501237        13.6394 
 165   0.0000       0.508615        13.8401 
 166   0.0000       0.512245        13.9389 
 167   0.0000       0.512929        13.9575 
 168   0.0000       0.523411        14.2427 
 169   0.0000       0.527708        14.3597 
 170   0.0000       0.539757        14.6875 
 171   0.0000       0.540811        14.7162 
 172   0.0000       0.544748        14.8233 
 173   0.0000       0.552542        15.0354 
 174   0.0000       0.553813        15.0700 
 175   0.0000       0.557375        15.1669 
 176   0.0000       0.564829        15.3698 
 177   0.0000       0.566466        15.4143 
 178   0.0000       0.568340        15.4653 
 179   0.0000       0.574976        15.6459 
 180   0.0000       0.577172        15.7056 
 181   0.0000       0.584743        15.9117 
 182   0.0000       0.591292        16.0899 
 183   0.0000       0.592144        16.1131 
 184   0.0000       0.607902        16.5419 
 185   0.0000       0.608803        16.5664 
 186   0.0000       0.613813        16.7027 
 187   0.0000       0.624616        16.9967 
 188   0.0000       0.630415        17.1545 
 189   0.0000       0.633132        17.2284 
 190   0.0000       0.653820        17.7913 
 191   0.0000       0.663505        18.0549 
 192   0.0000       0.664523        18.0826 
 193   0.0000       0.673403        18.3242 
 194   0.0000       0.678472        18.4621 
 195   0.0000       0.679979        18.5032 
 196   0.0000       0.682290        18.5661 
 197   0.0000       0.700944        19.0737 
 198   0.0000       0.711148        19.3513 
 199   0.0000       0.717462        19.5231 
 200   0.0000       0.718199        19.5432 
 201   0.0000       0.719681        19.5835 
 202   0.0000       0.726358        19.7652 
 203   0.0000       0.728557        19.8250 
 204   0.0000       0.730023        19.8649 
 205   0.0000       0.736346        20.0370 
 206   0.0000       0.743217        20.2240 
 207   0.0000       0.744597        20.2615 
 208   0.0000       0.746367        20.3097 
 209   0.0000       0.757540        20.6137 
 210   0.0000       0.758637        20.6436 
 211   0.0000       0.764650        20.8072 
 212   0.0000       0.765777        20.8379 
 213   0.0000       0.768574        20.9140 
 214   0.0000       0.777764        21.1640 
 215   0.0000       0.783153        21.3107 
 216   0.0000       0.785724        21.3806 
 217   0.0000       0.787252        21.4222 
 218   0.0000       0.789261        21.4769 
 219   0.0000       0.793130        21.5822 
 220   0.0000       0.805148        21.9092 
 221   0.0000       0.814058        22.1516 
 222   0.0000       0.819426        22.2977 
 223   0.0000       0.823120        22.3982 
 224   0.0000       0.823754        22.4155 
 225   0.0000       0.827060        22.5055 
 226   0.0000       0.835208        22.7272 
 227   0.0000       0.838837        22.8259 
 228   0.0000       0.839114        22.8334 
 229   0.0000       0.843672        22.9575 
 230   0.0000       0.844002        22.9665 
 231   0.0000       0.851254        23.1638 
 232   0.0000       0.853318        23.2200 
 233   0.0000       0.856105        23.2958 
 234   0.0000       0.857599        23.3365 
 235   0.0000       0.868578        23.6352 
 236   0.0000       0.871396        23.7119 
 237   0.0000       0.888305        24.1720 
 238   0.0000       0.890839        24.2410 
 239   0.0000       0.900384        24.5007 
 240   0.0000       0.913302        24.8522 
 241   0.0000       0.913812        24.8661 
 242   0.0000       0.916869        24.9493 
 243   0.0000       0.919359        25.0170 
 244   0.0000       0.923562        25.1314 
 245   0.0000       0.925063        25.1723 
 246   0.0000       0.948680        25.8149 
 247   0.0000       0.949874        25.8474 
 248   0.0000       0.951283        25.8857 
 249   0.0000       0.954455        25.9720 
 250   0.0000       0.958978        26.0951 
 251   0.0000       0.964974        26.2583 
 252   0.0000       0.968464        26.3532 
 253   0.0000       0.973066        26.4785 
 254   0.0000       0.982833        26.7442 
 255   0.0000       0.983778        26.7700 
 256   0.0000       0.993331        27.0299 
 257   0.0000       0.993778        27.0421 
 258   0.0000       0.995327        27.0842 
 259   0.0000       0.996122        27.1059 
 260   0.0000       1.006629        27.3918 
 261   0.0000       1.009132        27.4599 
 262   0.0000       1.013250        27.5719 
 263   0.0000       1.023109        27.8402 
 264   0.0000       1.024019        27.8650 
 265   0.0000       1.036186        28.1961 
 266   0.0000       1.040223        28.3059 
 267   0.0000       1.047391        28.5010 
 268   0.0000       1.051055        28.6006 
 269   0.0000       1.055446        28.7201 
 270   0.0000       1.063875        28.9495 
 271   0.0000       1.068995        29.0888 
 272   0.0000       1.073555        29.2129 
 273   0.0000       1.080520        29.4024 
 274   0.0000       1.090478        29.6734 
 275   0.0000       1.091190        29.6928 
 276   0.0000       1.094713        29.7886 
 277   0.0000       1.103937        30.0396 
 278   0.0000       1.132285        30.8110 
 279   0.0000       1.136952        30.9380 
 280   0.0000       1.147644        31.2290 
 281   0.0000       1.157618        31.5004 
 282   0.0000       1.165038        31.7023 
 283   0.0000       1.167043        31.7568 
 284   0.0000       1.179027        32.0830 
 285   0.0000       1.195964        32.5438 
 286   0.0000       1.200968        32.6800 
 287   0.0000       1.202876        32.7319 
 288   0.0000       1.207314        32.8527 
 289   0.0000       1.227133        33.3920 
 290   0.0000       1.236900        33.6578 
 291   0.0000       1.245385        33.8886 
 292   0.0000       1.253478        34.1089 
 293   0.0000       1.258702        34.2510 
 294   0.0000       1.280240        34.8371 
 295   0.0000       1.293130        35.1878 
 296   0.0000       1.303264        35.4636 
 297   0.0000       1.305785        35.5322 
 298   0.0000       1.314407        35.7668 
 299   0.0000       1.323402        36.0116 
 300   0.0000       1.324960        36.0540 
 301   0.0000       1.326980        36.1090 
 302   0.0000       1.328953        36.1627 
[...]
   GGA exch. scaling (TD-DFT)           ...  0.000
   GGA corr. scaling (TD-DFT)           ...  1.000
Range-Separated Exchange                ... on
   Range Range separation parameter mu  .... 0.250
   Max. amount of RS exchange (TD-DFT)  ...  0.804

Building densities             ... done
Calculating rho(r) on the grid ... done
Building xc-kernel on the grid ... done
                    *** TD-DFT CALCULATION INITIALIZED ***

---------------------------------
    LR-CPCM (non-equilibrium)
---------------------------------

Setting up LR-CPCM             ... done

------------------------
DAVIDSON-DIAGONALIZATION
------------------------

Dimension of the eigenvalue problem            ...  25024
Number of roots to be determined               ...     10
Maximum size of the expansion space            ...     70
Maximum number of iterations                   ...    100
Convergence tolerance for the residual         ...    1.000e-06
Convergence tolerance for the energies         ...    1.000e-06
Orthogonality tolerance                        ...    1.000e-14
Level Shift                                    ...    0.000e+00
Constructing the preconditioner                ... o.k.
Building the initial guess                     ... o.k.
Number of trial vectors determined             ...     70


                       ****Iteration    0****

   Memory handling for direct AO based CIS:
   Memory per vector needed      ...    35 MB
   Memory needed                 ...  1055 MB
   Memory available              ...  4000 MB
   Number of vectors per batch   ...   113
   Number of batches             ...     1
   Time for densities:            0.373
   Time for RI-J (Direct):        9.485
   Time for K (COSX):            56.877
   Time for XC-Integration:      28.819
   Time for LR-CPCM terms:       11.857
   Time for Sigma-Completion:     0.268
   Size of expansion space: 30
   Lowest Energy          :     0.119881359645
   Maximum Energy change  :     0.266505356743 (vector 9)
   Maximum residual norm  :     0.016439856072

                       ****Iteration    1****
   Time for densities:            0.126
   Time for RI-J (Direct):        5.333
   Time for K (COSX):            24.192
   Time for XC-Integration:       9.813
   Time for LR-CPCM terms:        5.454
   Time for Sigma-Completion:     0.093
   Size of expansion space: 40
   Lowest Energy          :     0.106297496838
   Maximum Energy change  :     0.025054109048 (vector 9)
   Maximum residual norm  :     0.001723535726

                       ****Iteration    2****
   Time for densities:            0.123
   Time for RI-J (Direct):        5.357
   Time for K (COSX):            23.322
   Time for XC-Integration:       9.846
   Time for LR-CPCM terms:        5.441
   Time for Sigma-Completion:     0.090
   Size of expansion space: 50
   Lowest Energy          :     0.105401416989
   Maximum Energy change  :     0.003132159618 (vector 7)
   Maximum residual norm  :     0.000427208623

                       ****Iteration    3****
   Time for densities:            0.125
   Time for RI-J (Direct):        5.338
   Time for K (COSX):            24.135
   Time for XC-Integration:       9.880
   Time for LR-CPCM terms:        5.392
   Time for Sigma-Completion:     0.088
   Size of expansion space: 60
   Lowest Energy          :     0.105335585459
   Maximum Energy change  :     0.001512235065 (vector 8)
   Maximum residual norm  :     0.000215761487

                       ****Iteration    4****
   Time for densities:            0.122
   Time for RI-J (Direct):        5.332
   Time for K (COSX):            24.018
   Time for XC-Integration:       9.909
   Time for LR-CPCM terms:        5.415
   Time for Sigma-Completion:     0.089
   Size of expansion space: 70
   Lowest Energy          :     0.105331745979
   Maximum Energy change  :     0.000542892345 (vector 8)
   Maximum residual norm  :     0.000061513958
   Rebuilding the expansion space

                       ****Iteration    5****
   Time for densities:            0.245
   Time for RI-J (Direct):        7.158
   Time for K (COSX):            40.285
   Time for XC-Integration:      19.191
   Time for LR-CPCM terms:        8.642
   Time for Sigma-Completion:     0.174
   Size of expansion space: 20
   Lowest Energy          :     0.105332441281
   Maximum Energy change  :     0.000098832808 (vector 8)
   Maximum residual norm  :     0.000021213231

                       ****Iteration    6****
   Time for densities:            0.122
   Time for RI-J (Direct):        5.317
   Time for K (COSX):            24.056
   Time for XC-Integration:       9.967
   Time for LR-CPCM terms:        5.442
   Time for Sigma-Completion:     0.086
   Size of expansion space: 30
   Lowest Energy          :     0.105332382588
   Maximum Energy change  :     0.000061982463 (vector 8)
   Maximum residual norm  :     0.000008498353

                       ****Iteration    7****
   Time for densities:            0.121
   Time for RI-J (Direct):        5.319
   Time for K (COSX):            24.148
   Time for XC-Integration:       9.939
   Time for LR-CPCM terms:        5.425
   Time for Sigma-Completion:     0.086
   Size of expansion space: 40
   Lowest Energy          :     0.105332377392
   Maximum Energy change  :     0.000026118417 (vector 7)
   Maximum residual norm  :     0.000006725202

                       ****Iteration    8****
   Time for densities:            0.125
   Time for RI-J (Direct):        5.348
   Time for K (COSX):            24.090
   Time for XC-Integration:      10.014
   Time for LR-CPCM terms:        5.422
   Time for Sigma-Completion:     0.087
   Size of expansion space: 50
   Lowest Energy          :     0.105332377001
   Maximum Energy change  :     0.000014056466 (vector 7)
   Maximum residual norm  :     0.000002020122

                       ****Iteration    9****
   Time for densities:            0.122
   Time for RI-J (Direct):        5.371
   Time for K (COSX):            24.161
   Time for XC-Integration:      10.014
   Time for LR-CPCM terms:        5.429
   Time for Sigma-Completion:     0.089
   Size of expansion space: 60
   Lowest Energy          :     0.105332376981
   Maximum Energy change  :     0.000004739232 (vector 7)
   Maximum residual norm  :     0.000000919025

      *** CONVERGENCE OF RESIDUAL NORM REACHED ***

Storing the converged CI vectors               ... wb97x-d3-train-0_job2.cis1

                 *** DAVIDSON DONE ***

Total time for solving the CIS problem:   545.133sec

------------------------------------
TD-DFT/TDA EXCITED STATES (SINGLETS)
------------------------------------

the weight of the individual excitations are printed if larger than 1.0e-02

STATE  1:  E=   0.105332 au      2.866 eV    23117.8 cm**-1 <S**2> =   0.000000
    44a ->  48a  :     0.014252 (c=  0.11938083)
    46a ->  48a  :     0.780103 (c= -0.88323442)
    46a ->  66a  :     0.036155 (c=  0.19014549)
    47a ->  48a  :     0.129817 (c=  0.36030120)

STATE  2:  E=   0.156477 au      4.258 eV    34342.8 cm**-1 <S**2> =   0.000000
    43a ->  56a  :     0.010982 (c= -0.10479706)
    46a ->  48a  :     0.129925 (c=  0.36045155)
    47a ->  48a  :     0.811537 (c=  0.90085362)

STATE  3:  E=   0.181360 au      4.935 eV    39803.9 cm**-1 <S**2> =   0.000000
    43a ->  53a  :     0.056869 (c=  0.23847235)
    44a ->  48a  :     0.607443 (c= -0.77938653)
    45a ->  48a  :     0.097323 (c= -0.31196647)
    45a ->  56a  :     0.051779 (c=  0.22755010)
    46a ->  48a  :     0.014886 (c= -0.12200637)
    47a ->  51a  :     0.123283 (c= -0.35111747)

STATE  4:  E=   0.181642 au      4.943 eV    39865.9 cm**-1 <S**2> =   0.000000
    43a ->  51a  :     0.054598 (c=  0.23366156)
    44a ->  48a  :     0.099654 (c= -0.31567995)
    44a ->  56a  :     0.050580 (c= -0.22490006)
    45a ->  48a  :     0.620416 (c=  0.78766497)
    47a ->  53a  :     0.119220 (c= -0.34528284)

STATE  5:  E=   0.206738 au      5.626 eV    45373.8 cm**-1 <S**2> =   0.000000
    37a ->  48a  :     0.018423 (c= -0.13572955)
    43a ->  48a  :     0.759936 (c= -0.87174286)
    44a ->  53a  :     0.018895 (c= -0.13746012)
    45a ->  48a  :     0.026807 (c= -0.16372831)
    45a ->  51a  :     0.029458 (c=  0.17163439)
    47a ->  53a  :     0.032332 (c= -0.17981236)
    47a ->  56a  :     0.011861 (c=  0.10890841)

STATE  6:  E=   0.227915 au      6.202 eV    50021.5 cm**-1 <S**2> =   0.000000
    43a ->  53a  :     0.085398 (c= -0.29222965)
    44a ->  48a  :     0.151396 (c= -0.38909624)
    44a ->  51a  :     0.012574 (c=  0.11213419)
    44a ->  66a  :     0.017419 (c=  0.13197961)
    45a ->  48a  :     0.024242 (c= -0.15569807)
    45a ->  56a  :     0.012250 (c= -0.11067928)
    46a ->  51a  :     0.068504 (c= -0.26173183)
    47a ->  51a  :     0.545540 (c=  0.73860647)

STATE  7:  E=   0.229848 au      6.254 eV    50445.9 cm**-1 <S**2> =   0.000000
    43a ->  48a  :     0.065203 (c=  0.25534935)
    43a ->  51a  :     0.088187 (c=  0.29696268)
    44a ->  48a  :     0.021344 (c=  0.14609674)
    45a ->  48a  :     0.136460 (c= -0.36940457)
    45a ->  66a  :     0.016110 (c=  0.12692419)
    46a ->  53a  :     0.068346 (c=  0.26143036)
    46a ->  56a  :     0.018554 (c= -0.13621153)
    47a ->  53a  :     0.496537 (c= -0.70465353)

STATE  8:  E=   0.234617 au      6.384 eV    51492.4 cm**-1 <S**2> =   0.000000
    43a ->  53a  :     0.030993 (c= -0.17604740)
    44a ->  48a  :     0.038974 (c= -0.19741768)
    45a ->  53a  :     0.010166 (c= -0.10082644)
    45a ->  56a  :     0.011952 (c= -0.10932738)
    46a ->  51a  :     0.814474 (c=  0.90248239)
    46a ->  52a  :     0.010558 (c=  0.10275455)

STATE  9:  E=   0.235940 au      6.420 eV    51782.8 cm**-1 <S**2> =   0.000000
    41a ->  48a  :     0.097789 (c= -0.31271282)
    43a ->  51a  :     0.024903 (c= -0.15780650)
    44a ->  56a  :     0.016178 (c=  0.12719156)
    45a ->  48a  :     0.021175 (c=  0.14551765)
    46a ->  50a  :     0.011046 (c= -0.10510154)
    46a ->  53a  :     0.242812 (c=  0.49275990)
    46a ->  54a  :     0.021246 (c= -0.14576091)
    46a ->  56a  :     0.310244 (c= -0.55699532)
    46a ->  59a  :     0.018014 (c= -0.13421808)
    47a ->  53a  :     0.011779 (c=  0.10852944)
    47a ->  56a  :     0.092820 (c=  0.30466376)

STATE 10:  E=   0.238858 au      6.500 eV    52423.3 cm**-1 <S**2> =   0.000000
    41a ->  51a  :     0.011502 (c=  0.10724677)
    43a ->  48a  :     0.039798 (c= -0.19949531)
    45a ->  51a  :     0.040545 (c= -0.20135727)
    46a ->  53a  :     0.512240 (c=  0.71570935)
    46a ->  56a  :     0.136792 (c=  0.36985391)
    47a ->  56a  :     0.142801 (c= -0.37788964)


-----------------------------
TD-DFT/TDA-EXCITATION SPECTRA
-----------------------------

Center of mass = (  0.0001,  0.0007, -0.0058)
Calculating the Dipole integrals                  ... done
Transforming integrals                            ... done
Calculating the Linear Momentum integrals         ... done
Transforming integrals                            ... done
Calculating angular momentum integrals            ... done
Transforming integrals                            ... done

-----------------------------------------------------------------------------
         ABSORPTION SPECTRUM VIA TRANSITION ELECTRIC DIPOLE MOMENTS
-----------------------------------------------------------------------------
State   Energy    Wavelength  fosc         T2        TX        TY        TZ  
        (cm-1)      (nm)                 (au**2)    (au)      (au)      (au) 
-----------------------------------------------------------------------------
   1   23117.8    432.6   0.008199594   0.11677   0.34154  -0.01024  -0.00358
   2   34342.8    291.2   1.111223811  10.65224   3.26233  -0.09272  -0.02882
   3   39803.9    251.2   0.047920687   0.39634   0.18153   0.59615   0.08940
   4   39865.9    250.8   0.002051464   0.01694  -0.00483   0.01527  -0.12917
   5   45373.8    220.4   0.002601518   0.01888   0.00449  -0.01433   0.13656
   6   50021.5    199.9   0.502617492   3.30793   1.08443   1.44418   0.21517
   7   50445.9    198.2   0.014389801   0.09391   0.01793  -0.03146   0.30430
   8   51492.4    194.2   0.236864342   1.51437   1.08277   0.57852   0.08544
   9   51782.8    193.1   0.005074946   0.03226   0.00973   0.03483  -0.17595
  10   52423.3    190.8   0.000534178   0.00335  -0.00220  -0.00963   0.05707

-----------------------------------------------------------------------------
         ABSORPTION SPECTRUM VIA TRANSITION VELOCITY DIPOLE MOMENTS
-----------------------------------------------------------------------------
State   Energy    Wavelength   fosc        P2         PX        PY        PZ  
        (cm-1)      (nm)                 (au**2)     (au)      (au)      (au) 
-----------------------------------------------------------------------------
   1   23117.8    432.6   0.002748463   0.00043  -0.02069   0.00234   0.00082
   2   34342.8    291.2   0.636933865   0.14950  -0.38473   0.03766   0.00779
   3   39803.9    251.2   0.001572427   0.00043  -0.01086  -0.01743  -0.00249
   4   39865.9    250.8   0.000001074   0.00000   0.00047   0.00025  -0.00008
   5   45373.8    220.4   0.000036566   0.00001  -0.00011  -0.00205   0.00267
   6   50021.5    199.9   0.110104299   0.03764  -0.16678  -0.09810  -0.01420
   7   50445.9    198.2   0.004096928   0.00141  -0.00210   0.00519  -0.03716
   8   51492.4    194.2   0.089622691   0.03154  -0.17400  -0.03533  -0.00427
   9   51782.8    193.1   0.000014202   0.00001  -0.00206  -0.00088  -0.00007
  10   52423.3    190.8   0.000746211   0.00027   0.00023   0.00261  -0.01614

-------------------------------------------------------------------
                             CD SPECTRUM
-------------------------------------------------------------------
State  Energy     Wavelength     R         MX        MY        MZ   
       (cm-1)       (nm)     (1e40*cgs)   (au)      (au)      (au)  
-------------------------------------------------------------------
   1   23117.8    432.6    -60.98828  -0.38463  -0.18651  -0.02662
   2   34342.8    291.2     15.78886   0.01173   0.05122   0.00150
   3   39803.9    251.2     -2.54178   0.01792  -0.01399  -0.00344
   4   39865.9    250.8     10.30929  -0.00057   0.02531  -0.16628
   5   45373.8    220.4     25.45123   0.00213  -0.06080   0.38886
   6   50021.5    199.9    -107.74904  -0.00015  -0.15320  -0.03320
   7   50445.9    198.2     78.82931   0.00195  -0.08485   0.54059
   8   51492.4    194.2     14.62397   0.01475   0.02554   0.00315
   9   51782.8    193.1     24.64936  -0.00020   0.04600  -0.28807
  10   52423.3    190.8     -0.75530   0.00020   0.00427  -0.02734

-------------------------------------------------------------------
         CD SPECTRUM VIA TRANSITION VELOCITY DIPOLE MOMENTS        
-------------------------------------------------------------------
State  Energy     Wavelength     R         MX        MY        MZ   
       (cm-1)       (nm)     (1e40*cgs)   (au)      (au)      (au)  
-------------------------------------------------------------------
   1   23117.8    432.6     33.56792  -0.38463  -0.18651  -0.02662
   2   34342.8    291.2     -7.75527   0.01173   0.05122   0.00150
   3   39803.9    251.2      0.14974   0.01792  -0.01399  -0.00344
   4   39865.9    250.8      0.05135  -0.00057   0.02531  -0.16628
   5   45373.8    220.4      2.64868   0.00213  -0.06080   0.38886
   6   50021.5    199.9     32.11319  -0.00015  -0.15320  -0.03320
   7   50445.9    198.2    -42.12000   0.00195  -0.08485   0.54059
   8   51492.4    194.2     -6.99795   0.01475   0.02554   0.00315
   9   51782.8    193.1     -0.03690  -0.00020   0.04600  -0.28807
  10   52423.3    190.8      0.89316   0.00020   0.00427  -0.02734

Total run time:      549.058 sec

           *** ORCA-CIS/TD-DFT FINISHED WITHOUT ERROR ***

Maximum memory used throughout the entire CIS-calculation: 936.6 MB

-----------------------
CIS/TD-DFT TOTAL ENERGY
-----------------------

    E(SCF)  =   -572.786989244 Eh
    DE(CIS) =      0.105332377 Eh (Root  1)
    ----------------------------- ---------
    E(tot)  =   -572.681656867 Eh



-------------------------------------------------------------------------------
                          DFT DISPERSION CORRECTION                            
                                                                               
                              DFTD3 V3.1  Rev 1                                
                              USING zero damping                               
-------------------------------------------------------------------------------
The omegaB97X-D3 functional is recognized. Fit by Chai et al.
Active option DFTDOPT                   ...         3   

molecular C6(AA) [au] = 7477.323573 


            DFT-D V3
 parameters
 s6 scaling factor         :     1.0000 
 rs6 scaling factor        :     1.2810 
 s8 scaling factor         :     1.0000 
 rs8 scaling factor        :     1.0940 
 Damping factor alpha6     :    14.0000 
 Damping factor alpha8     :    16.0000 
 ad hoc parameters k1-k3   :    16.0000     1.3333    -4.0000 

 Edisp/kcal,au: -4.481960833526  -0.007142458466 
 E6   /kcal   :  -2.139298517 
 E8   /kcal   :  -2.342662317 
 % E8         :  52.268692295 

-------------------------   ----------------
Dispersion correction           -0.007142458
-------------------------   ----------------


-------------------------   --------------------
FINAL SINGLE POINT ENERGY      -572.688799325428
-------------------------   --------------------


                            ***************************************
                            *     ORCA property calculations      *
                            ***************************************

                                    ---------------------
                                    Active property flags
                                    ---------------------
   (+) Dipole Moment


------------------------------------------------------------------------------
                       ORCA ELECTRIC PROPERTIES CALCULATION
------------------------------------------------------------------------------

Dipole Moment Calculation                       ... on
Quadrupole Moment Calculation                   ... off
Polarizability Calculation                      ... off
GBWName                                         ... wb97x-d3-train-0_job2.gbw
Electron density                                ... wb97x-d3-train-0_job2.scfp
The origin for moment calculation is the CENTER OF MASS  = ( 0.000115,  0.000683 -0.005839)

-------------
DIPOLE MOMENT
-------------
                                X             Y             Z
Electronic contribution:     -0.00261       0.00960       0.04826
Nuclear contribution   :     -0.00149      -0.00798      -0.08556
                        -----------------------------------------
Total Dipole Moment    :     -0.00410       0.00162      -0.03730
                        -----------------------------------------
Magnitude (a.u.)       :      0.03756
Magnitude (Debye)      :      0.09547



--------------------
Rotational spectrum 
--------------------
 
Rotational constants in cm-1:     0.092200     0.009796     0.008922 
Rotational constants in MHz :  2764.087808   293.679447   267.476742 

 Dipole components along the rotational axes: 
x,y,z [a.u.] :    -0.003968    -0.004058    -0.037127 
x,y,z [Debye]:    -0.010086    -0.010313    -0.094369 

 

Timings for individual modules:

Sum of individual times         ...      782.320 sec (=  13.039 min)
GTO integral calculation        ...        2.827 sec (=   0.047 min)   0.4 %
SCF iterations                  ...      229.957 sec (=   3.833 min)  29.4 %
CIS module                      ...      549.536 sec (=   9.159 min)  70.2 %



                             ****ORCA TERMINATED NORMALLY****
TOTAL RUN TIME: 0 days 4 hours 20 minutes 56 seconds 852 msec
