
                                 *****************
                                 * O   R   C   A *
                                 *****************

                                            #,                                       
                                            ###                                      
                                            ####                                     
                                            #####                                    
                                            ######                                   
                                           ########,                                 
                                     ,,################,,,,,                         
                               ,,#################################,,                 
                          ,,##########################################,,             
                       ,#########################################, ''#####,          
                    ,#############################################,,   '####,        
                  ,##################################################,,,,####,       
                ,###########''''           ''''###############################       
              ,#####''   ,,,,##########,,,,          '''####'''          '####       
            ,##' ,,,,###########################,,,                        '##       
           ' ,,###''''                  '''############,,,                           
         ,,##''                                '''############,,,,        ,,,,,,###''
      ,#''                                            '''#######################'''  
     '                                                          ''''####''''         
             ,#######,   #######,   ,#######,      ##                                
            ,#'     '#,  ##    ##  ,#'     '#,    #''#        ######   ,####,        
            ##       ##  ##   ,#'  ##            #'  '#       #        #'  '#        
            ##       ##  #######   ##           ,######,      #####,   #    #        
            '#,     ,#'  ##    ##  '#,     ,#' ,#      #,         ##   #,  ,#        
             '#######'   ##     ##  '#######'  #'      '#     #####' # '####'        



                  #######################################################
                  #                        -***-                        #
                  #          Department of theory and spectroscopy      #
                  #    Directorship and core code : Frank Neese         #
                  #        Max Planck Institute fuer Kohlenforschung    #
                  #                Kaiser Wilhelm Platz 1               #
                  #                 D-45470 Muelheim/Ruhr               #
                  #                      Germany                        #
                  #                                                     #
                  #                  All rights reserved                #
                  #                        -***-                        #
                  #######################################################


                         Program Version 5.0.2 -  RELEASE  -


 With contributions from (in alphabetic order):
   Daniel Aravena         : Magnetic Suceptibility
   Michael Atanasov       : Ab Initio Ligand Field Theory (pilot matlab implementation)
   Alexander A. Auer      : GIAO ZORA, VPT2 properties, NMR spectrum
   Ute Becker             : Parallelization
   Giovanni Bistoni       : ED, misc. LED, open-shell LED, HFLD
   Martin Brehm           : Molecular dynamics
   Dmytro Bykov           : SCF Hessian
   Vijay G. Chilkuri      : MRCI spin determinant printing, contributions to CSF-ICE
   Dipayan Datta          : RHF DLPNO-CCSD density
   Achintya Kumar Dutta   : EOM-CC, STEOM-CC
   Dmitry Ganyushin       : Spin-Orbit,Spin-Spin,Magnetic field MRCI
   Miquel Garcia          : C-PCM and meta-GGA Hessian, CC/C-PCM, Gaussian charge scheme
   Yang Guo               : DLPNO-NEVPT2, F12-NEVPT2, CIM, IAO-localization
   Andreas Hansen         : Spin unrestricted coupled pair/coupled cluster methods
   Benjamin Helmich-Paris : MC-RPA, TRAH-SCF, COSX integrals
   Lee Huntington         : MR-EOM, pCC
   Robert Izsak           : Overlap fitted RIJCOSX, COSX-SCS-MP3, EOM
   Marcus Kettner         : VPT2
   Christian Kollmar      : KDIIS, OOCD, Brueckner-CCSD(T), CCSD density, CASPT2, CASPT2-K
   Simone Kossmann        : Meta GGA functionals, TD-DFT gradient, OOMP2, MP2 Hessian
   Martin Krupicka        : Initial AUTO-CI
   Lucas Lang             : DCDCAS
   Marvin Lechner         : AUTO-CI (C++ implementation), FIC-MRCC
   Dagmar Lenk            : GEPOL surface, SMD
   Dimitrios Liakos       : Extrapolation schemes; Compound Job, initial MDCI parallelization
   Dimitrios Manganas     : Further ROCIS development; embedding schemes
   Dimitrios Pantazis     : SARC Basis sets
   Anastasios Papadopoulos: AUTO-CI, single reference methods and gradients
   Taras Petrenko         : DFT Hessian,TD-DFT gradient, ASA, ECA, R-Raman, ABS, FL, XAS/XES, NRVS
   Peter Pinski           : DLPNO-MP2, DLPNO-MP2 Gradient
   Christoph Reimann      : Effective Core Potentials
   Marius Retegan         : Local ZFS, SOC
   Christoph Riplinger    : Optimizer, TS searches, QM/MM, DLPNO-CCSD(T), (RO)-DLPNO pert. Triples
   Tobias Risthaus        : Range-separated hybrids, TD-DFT gradient, RPA, STAB
   Michael Roemelt        : Original ROCIS implementation
   Masaaki Saitow         : Open-shell DLPNO-CCSD energy and density
   Barbara Sandhoefer     : DKH picture change effects
   Avijit Sen             : IP-ROCIS
   Kantharuban Sivalingam : CASSCF convergence, NEVPT2, FIC-MRCI
   Bernardo de Souza      : ESD, SOC TD-DFT
   Georgi Stoychev        : AutoAux, RI-MP2 NMR, DLPNO-MP2 response
   Willem Van den Heuvel  : Paramagnetic NMR
   Boris Wezisla          : Elementary symmetry handling
   Frank Wennmohs         : Technical directorship


 We gratefully acknowledge several colleagues who have allowed us to
 interface, adapt or use parts of their codes:
   Stefan Grimme, W. Hujo, H. Kruse, P. Pracht,  : VdW corrections, initial TS optimization,
                  C. Bannwarth, S. Ehlert          DFT functionals, gCP, sTDA/sTD-DF
   Ed Valeev, F. Pavosevic, A. Kumar             : LibInt (2-el integral package), F12 methods
   Garnet Chan, S. Sharma, J. Yang, R. Olivares  : DMRG
   Ulf Ekstrom                                   : XCFun DFT Library
   Mihaly Kallay                                 : mrcc  (arbitrary order and MRCC methods)
   Jiri Pittner, Ondrej Demel                    : Mk-CCSD
   Frank Weinhold                                : gennbo (NPA and NBO analysis)
   Christopher J. Cramer and Donald G. Truhlar   : smd solvation model
   Lars Goerigk                                  : TD-DFT with DH, B97 family of functionals
   V. Asgeirsson, H. Jonsson                     : NEB implementation
   FAccTs GmbH                                   : IRC, NEB, NEB-TS, DLPNO-Multilevel, CI-OPT
                                                   MM, QMMM, 2- and 3-layer-ONIOM, Crystal-QMMM,
                                                   LR-CPCM, SF, NACMEs, symmetry and pop. for TD-DFT,
                                                   nearIR, NL-DFT gradient (VV10), updates on ESD,
                                                   ML-optimized integration grids
   S Lehtola, MJT Oliveira, MAL Marques          : LibXC Library
   Liviu Ungur et al                             : ANISO software


 Your calculation uses the libint2 library for the computation of 2-el integrals
 For citations please refer to: http://libint.valeyev.net

 Your ORCA version has been built with support for libXC version: 5.1.0
 For citations please refer to: https://tddft.org/programs/libxc/

 This ORCA versions uses:
   CBLAS   interface :  Fast vector & matrix operations
   LAPACKE interface :  Fast linear algebra routines
   SCALAPACK package :  Parallel linear algebra routines
   Shared memory     :  Shared parallel matrices
   BLAS/LAPACK       :  OpenBLAS 0.3.15  USE64BITINT DYNAMIC_ARCH NO_AFFINITY Haswell SINGLE_THREADED
        Core in use  :  Haswell
   Copyright (c) 2011-2014, The OpenBLAS Project


Your calculation utilizes the SMD solvation module
Please cite in your paper:
A.V. Marenich, C.J. Cramer, D.G. Truhlar J. Phys. Chem. B, 113, (2009), 6378 

================================================================================

----- Orbital basis set information -----
Your calculation utilizes the basis: aug-cc-pVTZ 
    H, B-Ne : Obtained from the ccRepo (grant-hill.group.shef.ac.uk/ccrepo) Feb. 2017
              R. A. Kendall, T. H. Dunning, Jr., R. J. Harrison, J. Chem. Phys. 96, 6796 (1992)
         He : Obtained from the ccRepo (grant-hill.group.shef.ac.uk/ccrepo) Feb. 2017
              D. E. Woon, T. H. Dunning, Jr., J. Chem. Phys. 100, 2975 (1994)
  Li-Be, Na : Obtained from the ccRepo (grant-hill.group.shef.ac.uk/ccrepo) Feb. 2017
              B. P. Prascher, D. E. Woon, K. A. Peterson, T. H. Dunning, Jr., A. K. Wilson, Theor. Chem. Acc. 128, 69 (2011)
         Mg : Obtained from the Peterson Research Group Website (tyr0.chem.wsu.edu/~kipeters) Feb. 2017
              B. P. Prascher, D. E. Woon, K. A. Peterson, T. H. Dunning, Jr., A. K. Wilson, Theor. Chem. Acc. 128, 69 (2011)
      Al-Ar : Obtained from the ccRepo (grant-hill.group.shef.ac.uk/ccrepo) Feb. 2017
              D. E. Woon, T. H. Dunning, Jr., J. Chem. Phys. 98, 1358 (1993)
      Sc-Zn : Obtained from the ccRepo (grant-hill.group.shef.ac.uk/ccrepo) Feb. 2017
              N. B. Balabanov, K. A. Peterson, J. Chem. Phys. 123, 064107 (2005)
              N. B. Balabanov, K. A. Peterson, J. Chem. Phys. 125, 074110 (2006)
      Ga-Kr : Obtained from the ccRepo (grant-hill.group.shef.ac.uk/ccrepo) Feb. 2017
              A. K. Wilson, D. E. Woon, K. A. Peterson, T. H. Dunning, Jr., J. Chem. Phys. 110, 7667 (1999)
     Ag, Au : Obtained from the Peterson Research Group Website (tyr0.chem.wsu.edu/~kipeters) Feb. 2017
              K. A. Peterson, C. Puzzarini, Theor. Chem. Acc. 114, 283 (2005)

The basis set includes element-specific modifications.

Your calculation utilizes the basis: cc-pVTZ 
       H, B-Ne : Obtained from the ccRepo (grant-hill.group.shef.ac.uk/ccrepo) Feb. 2017
                 T. H. Dunning, Jr., J. Chem. Phys. 90, 1007 (1989)
            He : Obtained from the ccRepo (grant-hill.group.shef.ac.uk/ccrepo) Feb. 2017
                 D. E. Woon, T. H. Dunning, Jr., J. Chem. Phys. 100, 2975 (1994)
  Li-Be, Na-Mg : Obtained from the ccRepo (grant-hill.group.shef.ac.uk/ccrepo) Feb. 2017
                 B. P. Prascher, D. E. Woon, K. A. Peterson, T. H. Dunning, Jr., A. K. Wilson, Theor. Chem. Acc. 128, 69 (2011)
         Al-Ar : Obtained from the ccRepo (grant-hill.group.shef.ac.uk/ccrepo) Feb. 2017
                 D. E. Woon, T. H. Dunning, Jr., J. Chem. Phys. 98, 1358 (1993)
            Ca : Obtained from the Peterson Research Group Website (tyr0.chem.wsu.edu/~kipeters) Feb. 2017
                 J. Koput, K. A. Peterson, J. Phys. Chem. 106, 9595 (2002)
         Sc-Zn : Obtained from the ccRepo (grant-hill.group.shef.ac.uk/ccrepo) Feb. 2017
                 N. B. Balabanov, K. A. Peterson, J. Chem. Phys. 123, 064107 (2005)
                 N. B. Balabanov, K. A. Peterson, J. Chem. Phys. 125, 074110 (2006)
         Ga-Kr : Obtained from the ccRepo (grant-hill.group.shef.ac.uk/ccrepo) Feb. 2017
                 A. K. Wilson, D. E. Woon, K. A. Peterson, T. H. Dunning, Jr., J. Chem. Phys. 110, 7667 (1999)
             Y : Obtained from the ccRepo (grant-hill.group.shef.ac.uk/ccrepo) Feb. 2017
                 K. A. Peterson, D. Figgen, M. Dolg, H. Stoll, J. Chem. Phys. 126, 124101 (2007)
        Ag, Au : Obtained from the Peterson Research Group Website (tyr0.chem.wsu.edu/~kipeters) Feb. 2017
                 K. A. Peterson, C. Puzzarini, Theor. Chem. Acc. 114, 283 (2005)

----- AuxJ basis set information -----
Your calculation utilizes the auxiliary basis: aug-cc-pVTZ/JK 
  H, B-F, Al-Cl, Ga-Br : Obtained from the TURBOMOLE 7.0 basis set library

The basis set includes element-specific modifications.

Your calculation utilizes the auxiliary basis: cc-pVTZ/JK 
  H, B-F, Al-Cl, Ga-Br : Obtained from the TURBOMOLE 7.0 basis set library

----- AuxC basis set information -----
Your calculation utilizes the auxiliary basis: aug-cc-pVTZ/C 
  H-He, B-F, Al-Ar, Ga-Kr : Obtained from the EMSL Basis Set Exchange (bse.pnl.gov) Feb. 2017
                            F. Weigend, A. Kohn, C. Hattig, J. Chem. Phys. 116, 3175 (2002)
                   Be, Mg : Obtained from the TURBOMOLE 7.0 basis set library
                            C. Haettig, Phys. Chem. Chem. Phys. 7, 59 (2005)
                       Ne : Obtained from the EMSL Basis Set Exchange (bse.pnl.gov) Feb. 2017
                            C. Haettig, Phys. Chem. Chem. Phys. 7, 59 (2005)
                            F. Weigend, A. Kohn, C. Hattig, J. Chem. Phys. 116, 3175 (2002)
                    Sc-Zn : Obtained from the EMSL Basis Set Exchange (bse.pnl.gov) Feb. 2017
                            J. G. Hill, J. A. Platts, J. Chem. Phys. 128, 044104 (2008)

The basis set includes element-specific modifications.

Your calculation utilizes the auxiliary basis: cc-pVTZ/C 
  Obtained from the EMSL Basis Set Exchange (bse.pnl.gov) Feb. 2017
  H-He, B-F, Al-Ar, Ga-Kr : F. Weigend, A. Kohn, C. Hattig, J. Chem. Phys. 116, 3175 (2002)
             Li-Be, Na-Mg : C. Haettig, Phys. Chem. Chem. Phys. 7, 59 (2005)
                       Ne : C. Haettig, Phys. Chem. Chem. Phys. 7, 59 (2005)
                            F. Weigend, A. Kohn, C. Hattig, J. Chem. Phys. 116, 3175 (2002)
                    Sc-Zn : J. G. Hill, J. A. Platts, J. Chem. Phys. 128, 044104 (2008)

================================================================================
                                        WARNINGS
                       Please study these warnings very carefully!
================================================================================


WARNING: Geometry Optimization
  ===> : Switching off AutoStart
         For restart on a previous wavefunction, please use MOREAD

INFO   : the flag for use of the SHARK integral package has been found!



***************************************
The coordinates will be read from file: 
***************************************


Your calculation utilizes the SMD solvation module
Please cite in your paper:
A.V. Marenich, C.J. Cramer, D.G. Truhlar J. Phys. Chem. B, 113, (2009), 6378 

================================================================================

----- Orbital basis set information -----
Your calculation utilizes the basis: aug-cc-pVTZ 
    H, B-Ne : Obtained from the ccRepo (grant-hill.group.shef.ac.uk/ccrepo) Feb. 2017
              R. A. Kendall, T. H. Dunning, Jr., R. J. Harrison, J. Chem. Phys. 96, 6796 (1992)
         He : Obtained from the ccRepo (grant-hill.group.shef.ac.uk/ccrepo) Feb. 2017
              D. E. Woon, T. H. Dunning, Jr., J. Chem. Phys. 100, 2975 (1994)
  Li-Be, Na : Obtained from the ccRepo (grant-hill.group.shef.ac.uk/ccrepo) Feb. 2017
              B. P. Prascher, D. E. Woon, K. A. Peterson, T. H. Dunning, Jr., A. K. Wilson, Theor. Chem. Acc. 128, 69 (2011)
         Mg : Obtained from the Peterson Research Group Website (tyr0.chem.wsu.edu/~kipeters) Feb. 2017
              B. P. Prascher, D. E. Woon, K. A. Peterson, T. H. Dunning, Jr., A. K. Wilson, Theor. Chem. Acc. 128, 69 (2011)
      Al-Ar : Obtained from the ccRepo (grant-hill.group.shef.ac.uk/ccrepo) Feb. 2017
              D. E. Woon, T. H. Dunning, Jr., J. Chem. Phys. 98, 1358 (1993)
      Sc-Zn : Obtained from the ccRepo (grant-hill.group.shef.ac.uk/ccrepo) Feb. 2017
              N. B. Balabanov, K. A. Peterson, J. Chem. Phys. 123, 064107 (2005)
              N. B. Balabanov, K. A. Peterson, J. Chem. Phys. 125, 074110 (2006)
      Ga-Kr : Obtained from the ccRepo (grant-hill.group.shef.ac.uk/ccrepo) Feb. 2017
              A. K. Wilson, D. E. Woon, K. A. Peterson, T. H. Dunning, Jr., J. Chem. Phys. 110, 7667 (1999)
     Ag, Au : Obtained from the Peterson Research Group Website (tyr0.chem.wsu.edu/~kipeters) Feb. 2017
              K. A. Peterson, C. Puzzarini, Theor. Chem. Acc. 114, 283 (2005)

The basis set includes element-specific modifications.

Your calculation utilizes the basis: cc-pVTZ 
       H, B-Ne : Obtained from the ccRepo (grant-hill.group.shef.ac.uk/ccrepo) Feb. 2017
                 T. H. Dunning, Jr., J. Chem. Phys. 90, 1007 (1989)
            He : Obtained from the ccRepo (grant-hill.group.shef.ac.uk/ccrepo) Feb. 2017
                 D. E. Woon, T. H. Dunning, Jr., J. Chem. Phys. 100, 2975 (1994)
  Li-Be, Na-Mg : Obtained from the ccRepo (grant-hill.group.shef.ac.uk/ccrepo) Feb. 2017
                 B. P. Prascher, D. E. Woon, K. A. Peterson, T. H. Dunning, Jr., A. K. Wilson, Theor. Chem. Acc. 128, 69 (2011)
         Al-Ar : Obtained from the ccRepo (grant-hill.group.shef.ac.uk/ccrepo) Feb. 2017
                 D. E. Woon, T. H. Dunning, Jr., J. Chem. Phys. 98, 1358 (1993)
            Ca : Obtained from the Peterson Research Group Website (tyr0.chem.wsu.edu/~kipeters) Feb. 2017
                 J. Koput, K. A. Peterson, J. Phys. Chem. 106, 9595 (2002)
         Sc-Zn : Obtained from the ccRepo (grant-hill.group.shef.ac.uk/ccrepo) Feb. 2017
                 N. B. Balabanov, K. A. Peterson, J. Chem. Phys. 123, 064107 (2005)
                 N. B. Balabanov, K. A. Peterson, J. Chem. Phys. 125, 074110 (2006)
         Ga-Kr : Obtained from the ccRepo (grant-hill.group.shef.ac.uk/ccrepo) Feb. 2017
                 A. K. Wilson, D. E. Woon, K. A. Peterson, T. H. Dunning, Jr., J. Chem. Phys. 110, 7667 (1999)
             Y : Obtained from the ccRepo (grant-hill.group.shef.ac.uk/ccrepo) Feb. 2017
                 K. A. Peterson, D. Figgen, M. Dolg, H. Stoll, J. Chem. Phys. 126, 124101 (2007)
        Ag, Au : Obtained from the Peterson Research Group Website (tyr0.chem.wsu.edu/~kipeters) Feb. 2017
                 K. A. Peterson, C. Puzzarini, Theor. Chem. Acc. 114, 283 (2005)

----- AuxJ basis set information -----
Your calculation utilizes the auxiliary basis: aug-cc-pVTZ/JK 
  H, B-F, Al-Cl, Ga-Br : Obtained from the TURBOMOLE 7.0 basis set library

The basis set includes element-specific modifications.

Your calculation utilizes the auxiliary basis: cc-pVTZ/JK 
  H, B-F, Al-Cl, Ga-Br : Obtained from the TURBOMOLE 7.0 basis set library

----- AuxC basis set information -----
Your calculation utilizes the auxiliary basis: aug-cc-pVTZ/C 
  H-He, B-F, Al-Ar, Ga-Kr : Obtained from the EMSL Basis Set Exchange (bse.pnl.gov) Feb. 2017
                            F. Weigend, A. Kohn, C. Hattig, J. Chem. Phys. 116, 3175 (2002)
                   Be, Mg : Obtained from the TURBOMOLE 7.0 basis set library
                            C. Haettig, Phys. Chem. Chem. Phys. 7, 59 (2005)
                       Ne : Obtained from the EMSL Basis Set Exchange (bse.pnl.gov) Feb. 2017
                            C. Haettig, Phys. Chem. Chem. Phys. 7, 59 (2005)
                            F. Weigend, A. Kohn, C. Hattig, J. Chem. Phys. 116, 3175 (2002)
                    Sc-Zn : Obtained from the EMSL Basis Set Exchange (bse.pnl.gov) Feb. 2017
                            J. G. Hill, J. A. Platts, J. Chem. Phys. 128, 044104 (2008)

The basis set includes element-specific modifications.

Your calculation utilizes the auxiliary basis: cc-pVTZ/C 
  Obtained from the EMSL Basis Set Exchange (bse.pnl.gov) Feb. 2017
  H-He, B-F, Al-Ar, Ga-Kr : F. Weigend, A. Kohn, C. Hattig, J. Chem. Phys. 116, 3175 (2002)
             Li-Be, Na-Mg : C. Haettig, Phys. Chem. Chem. Phys. 7, 59 (2005)
                       Ne : C. Haettig, Phys. Chem. Chem. Phys. 7, 59 (2005)
                            F. Weigend, A. Kohn, C. Hattig, J. Chem. Phys. 116, 3175 (2002)
                    Sc-Zn : J. G. Hill, J. A. Platts, J. Chem. Phys. 128, 044104 (2008)

================================================================================
                                        WARNINGS
                       Please study these warnings very carefully!
================================================================================

INFO   : Checking CIS options ...

INFO   : the flag for use of the SHARK integral package has been found!

================================================================================
                                       INPUT FILE
================================================================================
NAME = x3lyp-train-0.inp
|  1> ! x3lyp aug-cc-PVTZ RIJCOSX Opt
|  2> %maxcore 4000
|  3> %basis
|  4>  AuxJ "aug-cc-PVTZ/JK"
|  5>  AuxC "aug-cc-PVTZ/C"
|  6>  newGTO H "cc-PVTZ" end
|  7>  newAuxJGTO H "cc-PVTZ/JK" end
|  8>  newAuxCGTO H "cc-PVTZ/C" end
|  9> end
| 10> %cpcm
| 11>  SMD true
| 12>  SMDsolvent "benzene"
| 13> end
| 14> %pal nprocs 4 end
| 15> * xyz 0 1
| 16> C         -4.49800        0.16580        0.04130
| 17> C         -3.64810        1.25580        0.17290
| 18> C         -2.28180        1.07950        0.13650
| 19> C         -1.74760       -0.20460       -0.03390
| 20> N         -0.39610       -0.49050       -0.08470
| 21> N          0.39620        0.49240        0.06880
| 22> C          1.74770        0.20610        0.01640
| 23> C          2.61130        1.28860        0.21030
| 24> C          3.97790        1.09780        0.17750
| 25> C          4.49790       -0.16760       -0.04920
| 26> C          3.64700       -1.24720       -0.24490
| 27> C          2.28080       -1.06910       -0.21380
| 28> C         -2.61030       -1.29680       -0.16830
| 29> C         -3.97690       -1.10790       -0.12920
| 30> H         -5.56800        0.31100        0.07160
| 31> H         -4.06100        2.24580        0.30460
| 32> H         -1.60150        1.91160        0.23620
| 33> H          2.18550        2.26460        0.38580
| 34> H          4.64350        1.93500        0.32870
| 35> H          5.56780       -0.31440       -0.07400
| 36> H          4.05900       -2.23040       -0.42170
| 37> H          1.59970       -1.89300       -0.36320
| 38> H         -2.18350       -2.27940       -0.29950
| 39> H         -4.64170       -1.95310       -0.23180
| 40> *
| 41> 
| 42> 
| 43> $new_job
| 44> ! x3lyp aug-cc-PVTZ RIJCOSX SP
| 45> %maxcore 4000
| 46> %basis
| 47>  AuxJ "aug-cc-PVTZ/JK"
| 48>  AuxC "aug-cc-PVTZ/C"
| 49>  newGTO H "cc-PVTZ" end
| 50>  newAuxJGTO H "cc-PVTZ/JK" end
| 51>  newAuxCGTO H "cc-PVTZ/C" end
| 52> end
| 53> %cpcm
| 54>  SMD true
| 55>  SMDsolvent "benzene"
| 56> end
| 57> %pal nprocs 4 end
| 58> %tddft
| 59>  nroots 10
| 60>  maxdim 7
| 61> end
| 62> * xyzfile 0 1
| 63> 
| 64>                          ****END OF INPUT****
================================================================================


                 $$$$$$$$$$$$$$$$$$$$$$$$$$$$$$$$$$$$$$$$$$$$$$ 
                 $ THERE ARE  2 JOBS TO BE PROCESSED THIS RUN $
                 $$$$$$$$$$$$$$$$$$$$$$$$$$$$$$$$$$$$$$$$$$$$$$ 




                 $$$$$$$$$$$$$$$$  JOB NUMBER  1 $$$$$$$$$$$$$$


                       *****************************
                       * Geometry Optimization Run *
                       *****************************

Geometry optimization settings:
Update method            Update   .... BFGS
Choice of coordinates    CoordSys .... Z-matrix Internals
Initial Hessian          InHess   .... Almoef's Model

Convergence Tolerances:
Energy Change            TolE     ....  5.0000e-06 Eh
Max. Gradient            TolMAXG  ....  3.0000e-04 Eh/bohr
RMS Gradient             TolRMSG  ....  1.0000e-04 Eh/bohr
Max. Displacement        TolMAXD  ....  4.0000e-03 bohr
RMS Displacement         TolRMSD  ....  2.0000e-03 bohr
Strict Convergence                ....  False
------------------------------------------------------------------------------
                        ORCA OPTIMIZATION COORDINATE SETUP
------------------------------------------------------------------------------

The optimization will be done in new redundant internal coordinates
Making redundant internal coordinates   ...  (new redundants) done
Evaluating the initial hessian          ...  (Almloef) done
Evaluating the coordinates              ...  done
Calculating the B-matrix                .... done
Calculating the G-matrix                .... done
Diagonalizing the G-matrix              .... done
Small eigenvalue found = 3.794e-03
Small eigenvalue found = 1.454e-02
Small eigenvalue found = 2.593e-02
Small eigenvalue found = 2.847e-02
The first mode is                       ....   50
The number of degrees of freedom        ....   66

    -----------------------------------------------------------------
                    Redundant Internal Coordinates


    -----------------------------------------------------------------
         Definition                    Initial Value    Approx d2E/dq
    -----------------------------------------------------------------
      1. B(C   1,C   0)                  1.3884         0.628402   
      2. B(C   2,C   1)                  1.3781         0.652696   
      3. B(C   3,C   2)                  1.4012         0.599645   
      4. B(N   4,C   3)                  1.3823         0.575562   
      5. B(N   5,N   4)                  1.2718         0.773827   
      6. B(C   6,N   5)                  1.3825         0.575261   
      7. B(C   7,C   6)                  1.3983         0.606061   
      8. B(C   8,C   7)                  1.3802         0.647593   
      9. B(C   9,C   8)                  1.3867         0.632339   
     10. B(C  10,C   9)                  1.3885         0.628304   
     11. B(C  11,C  10)                  1.3781         0.652690   
     12. B(C  11,C   6)                  1.4012         0.599642   
     13. B(C  12,C   3)                  1.3983         0.606055   
     14. B(C  13,C  12)                  1.3801         0.647824   
     15. B(C  13,C   0)                  1.3867         0.632425   
     16. B(H  14,C   0)                  1.0802         0.373256   
     17. B(H  15,C   1)                  1.0807         0.372603   
     18. B(H  16,C   2)                  1.0794         0.374377   
     19. B(H  17,C   7)                  1.0792         0.374668   
     20. B(H  18,C   8)                  1.0802         0.373328   
     21. B(H  19,C   9)                  1.0802         0.373288   
     22. B(H  20,C  10)                  1.0806         0.372760   
     23. B(H  21,C  11)                  1.0794         0.374447   
     24. B(H  22,C  12)                  1.0793         0.374546   
     25. B(H  23,C  13)                  1.0802         0.373290   
     26. A(C   1,C   0,H  14)          119.8775         0.355873   
     27. A(C  13,C   0,H  14)          119.9429         0.356259   
     28. A(C   1,C   0,C  13)          120.1795         0.436677   
     29. A(C   0,C   1,H  15)          119.7913         0.355767   
     30. A(C   0,C   1,C   2)          120.2616         0.439168   
     31. A(C   2,C   1,H  15)          119.9471         0.358067   
     32. A(C   1,C   2,C   3)          119.8964         0.435476   
     33. A(C   3,C   2,H  16)          118.5167         0.353238   
     34. A(C   1,C   2,H  16)          121.5869         0.358357   
     35. A(N   4,C   3,C  12)          115.9841         0.423786   
     36. A(C   2,C   3,N   4)          124.5240         0.422981   
     37. A(C   2,C   3,C  12)          119.4917         0.429710   
     38. A(C   3,N   4,N   5)          116.4112         0.436968   
     39. A(N   4,N   5,C   6)          116.3850         0.436927   
     40. A(C   7,C   6,C  11)          119.4956         0.429710   
     41. A(N   5,C   6,C  11)          124.5158         0.422941   
     42. A(N   5,C   6,C   7)          115.9886         0.423747   
     43. A(C   8,C   7,H  17)          121.3008         0.357926   
     44. A(C   6,C   7,H  17)          118.6201         0.353922   
     45. A(C   6,C   7,C   8)          120.0791         0.435695   
     46. A(C   9,C   8,H  18)          119.9381         0.356262   
     47. A(C   7,C   8,H  18)          119.9758         0.357708   
     48. A(C   7,C   8,C   9)          120.0861         0.439041   
     49. A(C  10,C   9,H  19)          119.8729         0.355869   
     50. A(C   8,C   9,H  19)          119.9448         0.356256   
     51. A(C   8,C   9,C  10)          120.1823         0.436654   
     52. A(C   9,C  10,H  20)          119.7931         0.355783   
     53. A(C   9,C  10,C  11)          120.2562         0.439155   
     54. A(C  11,C  10,H  20)          119.9508         0.358092   
     55. A(C   6,C  11,C  10)          119.9006         0.435474   
     56. A(C  10,C  11,H  21)          121.5871         0.358368   
     57. A(C   6,C  11,H  21)          118.5122         0.353249   
     58. A(C  13,C  12,H  22)          121.3063         0.357928   
     59. A(C   3,C  12,H  22)          118.6088         0.353901   
     60. A(C   3,C  12,C  13)          120.0847         0.435722   
     61. A(C  12,C  13,H  23)          119.9744         0.357723   
     62. A(C   0,C  13,H  23)          119.9398         0.356264   
     63. A(C   0,C  13,C  12)          120.0858         0.439080   
     64. D(C   2,C   1,C   0,C  13)     -0.0712         0.027371   
     65. D(H  15,C   1,C   0,C  13)    179.9449         0.027371   
     66. D(C   2,C   1,C   0,H  14)    179.9468         0.027371   
     67. D(H  15,C   1,C   0,H  14)     -0.0372         0.027371   
     68. D(H  16,C   2,C   1,H  15)     -0.0436         0.029679   
     69. D(C   3,C   2,C   1,C   0)     -0.0032         0.029679   
     70. D(C   3,C   2,C   1,H  15)    179.9808         0.029679   
     71. D(H  16,C   2,C   1,C   0)    179.9724         0.029679   
     72. D(C  12,C   3,C   2,H  16)   -179.8497         0.024787   
     73. D(C  12,C   3,C   2,C   1)      0.1266         0.024787   
     74. D(N   4,C   3,C   2,C   1)    179.9769         0.024787   
     75. D(N   4,C   3,C   2,H  16)      0.0005         0.024787   
     76. D(N   5,N   4,C   3,C  12)   -178.3685         0.024072   
     77. D(N   5,N   4,C   3,C   2)      1.7765         0.024072   
     78. D(C   6,N   5,N   4,C   3)   -179.9298         0.047896   
     79. D(C  11,C   6,N   5,N   4)      1.1500         0.024045   
     80. D(C   7,C   6,N   5,N   4)   -178.8836         0.024045   
     81. D(H  17,C   7,C   6,C  11)    179.9578         0.025349   
     82. D(H  17,C   7,C   6,N   5)     -0.0104         0.025349   
     83. D(C   8,C   7,C   6,C  11)     -0.1475         0.025349   
     84. D(C   8,C   7,C   6,N   5)    179.8843         0.025349   
     85. D(H  18,C   8,C   7,H  17)     -0.0334         0.029185   
     86. D(H  18,C   8,C   7,C   6)   -179.9252         0.029185   
     87. D(C   9,C   8,C   7,H  17)    179.9588         0.029185   
     88. D(C   9,C   8,C   7,C   6)      0.0670         0.029185   
     89. D(H  19,C   9,C   8,H  18)      0.0173         0.027737   
     90. D(H  19,C   9,C   8,C   7)   -179.9749         0.027737   
     91. D(C  10,C   9,C   8,H  18)   -179.9657         0.027737   
     92. D(C  10,C   9,C   8,C   7)      0.0422         0.027737   
     93. D(C  11,C  10,C   9,H  19)    179.9471         0.027362   
     94. D(C  11,C  10,C   9,C   8)     -0.0700         0.027362   
     95. D(H  20,C  10,C   9,H  19)     -0.0233         0.027362   
     96. D(H  20,C  10,C   9,C   8)    179.9597         0.027362   
     97. D(H  21,C  11,C  10,H  20)     -0.0312         0.029679   
     98. D(H  21,C  11,C  10,C   9)    179.9984         0.029679   
     99. D(C   6,C  11,C  10,H  20)    179.9586         0.029679   
    100. D(C   6,C  11,C  10,C   9)     -0.0117         0.029679   
    101. D(H  21,C  11,C   6,C   7)   -179.8901         0.024786   
    102. D(H  21,C  11,C   6,N   5)      0.0753         0.024786   
    103. D(C  10,C  11,C   6,C   7)      0.1197         0.024786   
    104. D(C  10,C  11,C   6,N   5)   -179.9149         0.024786   
    105. D(H  22,C  12,C   3,N   4)      0.0974         0.025349   
    106. D(H  22,C  12,C   3,C   2)    179.9601         0.025349   
    107. D(C  13,C  12,C   3,N   4)    179.9598         0.025349   
    108. D(C  13,C  12,C   3,C   2)     -0.1775         0.025349   
    109. D(H  23,C  13,C  12,H  22)     -0.0543         0.029207   
    110. D(H  23,C  13,C  12,C   3)   -179.9129         0.029207   
    111. D(C   0,C  13,C  12,H  22)    179.9631         0.029207   
    112. D(C   0,C  13,C  12,C   3)      0.1045         0.029207   
    113. D(H  23,C  13,C   0,H  14)      0.0196         0.027745   
    114. D(H  23,C  13,C   0,C   1)   -179.9624         0.027745   
    115. D(C  12,C  13,C   0,H  14)   -179.9978         0.027745   
    116. D(C  12,C  13,C   0,C   1)      0.0202         0.027745   
    -----------------------------------------------------------------

Number of atoms                         .... 24
Number of degrees of freedom            .... 116

         *************************************************************
         *                GEOMETRY OPTIMIZATION CYCLE   1            *
         *************************************************************
---------------------------------
CARTESIAN COORDINATES (ANGSTROEM)
---------------------------------
  C     -4.498000    0.165800    0.041300
  C     -3.648100    1.255800    0.172900
  C     -2.281800    1.079500    0.136500
  C     -1.747600   -0.204600   -0.033900
  N     -0.396100   -0.490500   -0.084700
  N      0.396200    0.492400    0.068800
  C      1.747700    0.206100    0.016400
  C      2.611300    1.288600    0.210300
  C      3.977900    1.097800    0.177500
  C      4.497900   -0.167600   -0.049200
  C      3.647000   -1.247200   -0.244900
  C      2.280800   -1.069100   -0.213800
  C     -2.610300   -1.296800   -0.168300
  C     -3.976900   -1.107900   -0.129200
  H     -5.568000    0.311000    0.071600
  H     -4.061000    2.245800    0.304600
  H     -1.601500    1.911600    0.236200
  H      2.185500    2.264600    0.385800
  H      4.643500    1.935000    0.328700
  H      5.567800   -0.314400   -0.074000
  H      4.059000   -2.230400   -0.421700
  H      1.599700   -1.893000   -0.363200
  H     -2.183500   -2.279400   -0.299500
  H     -4.641700   -1.953100   -0.231800

----------------------------
CARTESIAN COORDINATES (A.U.)
----------------------------
  NO LB      ZA    FRAG     MASS         X           Y           Z
   0 C     6.0000    0    12.011   -8.499988    0.313317    0.078046
   1 C     6.0000    0    12.011   -6.893910    2.373118    0.326734
   2 C     6.0000    0    12.011   -4.311977    2.039959    0.257948
   3 C     6.0000    0    12.011   -3.302485   -0.386638   -0.064062
   4 N     7.0000    0    14.007   -0.748521   -0.926911   -0.160060
   5 N     7.0000    0    14.007    0.748709    0.930501    0.130013
   6 C     6.0000    0    12.011    3.302674    0.389473    0.030992
   7 C     6.0000    0    12.011    4.934642    2.435101    0.397409
   8 C     6.0000    0    12.011    7.517142    2.074541    0.335426
   9 C     6.0000    0    12.011    8.499799   -0.316718   -0.092975
  10 C     6.0000    0    12.011    6.891831   -2.356866   -0.462794
  11 C     6.0000    0    12.011    4.310087   -2.020306   -0.404023
  12 C     6.0000    0    12.011   -4.932752   -2.450597   -0.318041
  13 C     6.0000    0    12.011   -7.515252   -2.093628   -0.244153
  14 H     1.0000    0     1.008  -10.521995    0.587705    0.135304
  15 H     1.0000    0     1.008   -7.674178    4.243947    0.575611
  16 H     1.0000    0     1.008   -3.026396    3.612400    0.446353
  17 H     1.0000    0     1.008    4.129996    4.279474    0.729056
  18 H     1.0000    0     1.008    8.774943    3.656620    0.621153
  19 H     1.0000    0     1.008   10.521617   -0.594130   -0.139840
  20 H     1.0000    0     1.008    7.670398   -4.214845   -0.796898
  21 H     1.0000    0     1.008    3.022995   -3.577252   -0.686349
  22 H     1.0000    0     1.008   -4.126217   -4.307442   -0.565973
  23 H     1.0000    0     1.008   -8.771542   -3.690824   -0.438039

--------------------------------
INTERNAL COORDINATES (ANGSTROEM)
--------------------------------
 C      0   0   0     0.000000000000     0.00000000     0.00000000
 C      1   0   0     1.388433855104     0.00000000     0.00000000
 C      2   1   0     1.378108246837   120.26157454     0.00000000
 C      3   2   1     1.401184716588   119.89640254     0.00000000
 N      4   3   2     1.382342830126   124.52403695   179.97687066
 N      5   4   3     1.271768040957   116.41118021     1.77653303
 C      6   5   4     1.382485334461   116.38500841   180.07018789
 C      7   6   5     1.398287674264   115.98861298   181.11643585
 C      8   7   6     1.380244920295   120.07905042   179.88429380
 C      9   8   7     1.386733590132   120.08610835     0.06697544
 C     10   9   8     1.388475948657   120.18227578     0.04216527
 C     11  10   9     1.378110757523   120.25618147   359.93004310
 C      4   3   2     1.398290202354   119.49174315     0.12664993
 C     13   4   3     1.380147666013   120.08473803   359.82250539
 H      1   2   3     1.080231979715   119.87754285   179.94681108
 H      2   1   3     1.080708702658   119.79130019   180.01602508
 H      3   2   1     1.079415855915   121.58685731   179.97242509
 H      8   7   6     1.079204285573   118.62008240     0.00000000
 H      9   8   7     1.080179910941   119.97583724   180.07479857
 H     10   9   8     1.080208910350   119.94480258   180.02507930
 H     11  10   9     1.080594503040   119.79305369   179.95965072
 H     12  11  10     1.079364989241   121.58711090   179.99840511
 H     13   4   3     1.079293491132   118.60879550   179.96013143
 H     14  13   4     1.080207776310   119.97438081   180.08710608

---------------------------
INTERNAL COORDINATES (A.U.)
---------------------------
 C      0   0   0     0.000000000000     0.00000000     0.00000000
 C      1   0   0     2.623759741212     0.00000000     0.00000000
 C      2   1   0     2.604247169420   120.26157454     0.00000000
 C      3   2   1     2.647855377388   119.89640254     0.00000000
 N      4   3   2     2.612249372127   124.52403695   179.97687066
 N      5   4   3     2.403293303283   116.41118021     1.77653303
 C      6   5   4     2.612518666294   116.38500841   180.07018789
 C      7   6   5     2.642380760798   115.98861298   181.11643585
 C      8   7   6     2.608284897093   120.07905042   179.88429380
 C      9   8   7     2.620546706059   120.08610835     0.06697544
 C     10   9   8     2.623839286499   120.18227578     0.04216527
 C     11  10   9     2.604251913929   120.25618147   359.93004310
 C      4   3   2     2.642385538195   119.49174315     0.12664993
 C     13   4   3     2.608101113134   120.08473803   359.82250539
 H      1   2   3     2.041342602766   119.87754285   179.94681108
 H      2   1   3     2.042243478568   119.79130019   180.01602508
 H      3   2   1     2.039800352291   121.58685731   179.97242509
 H      8   7   6     2.039400542288   118.62008240     0.00000000
 H      9   8   7     2.041244207041   119.97583724   180.07479857
 H     10   9   8     2.041299007983   119.94480258   180.02507930
 H     11  10   9     2.042027672566   119.79305369   179.95965072
 H     12  11  10     2.039704228209   121.58711090   179.99840511
 H     13   4   3     2.039569116363   118.60879550   179.96013143
 H     14  13   4     2.041296864957   119.97438081   180.08710608

---------------------
BASIS SET INFORMATION
---------------------
There are 3 groups of distinct atoms

 Group   1 Type C   : 19s6p3d2f contracted to 5s4p3d2f pattern {88111/3111/111/11}
 Group   2 Type N   : 19s6p3d2f contracted to 5s4p3d2f pattern {88111/3111/111/11}
 Group   3 Type H   : 5s2p1d contracted to 3s2p1d pattern {311/11/1}

Atom   0C    basis set group =>   1
Atom   1C    basis set group =>   1
Atom   2C    basis set group =>   1
Atom   3C    basis set group =>   1
Atom   4N    basis set group =>   2
Atom   5N    basis set group =>   2
Atom   6C    basis set group =>   1
Atom   7C    basis set group =>   1
Atom   8C    basis set group =>   1
Atom   9C    basis set group =>   1
Atom  10C    basis set group =>   1
Atom  11C    basis set group =>   1
Atom  12C    basis set group =>   1
Atom  13C    basis set group =>   1
Atom  14H    basis set group =>   3
Atom  15H    basis set group =>   3
Atom  16H    basis set group =>   3
Atom  17H    basis set group =>   3
Atom  18H    basis set group =>   3
Atom  19H    basis set group =>   3
Atom  20H    basis set group =>   3
Atom  21H    basis set group =>   3
Atom  22H    basis set group =>   3
Atom  23H    basis set group =>   3
---------------------------------
AUXILIARY/J BASIS SET INFORMATION
---------------------------------
There are 3 groups of distinct atoms

 Group   1 Type C   : 10s7p5d2f1g contracted to 10s7p5d2f1g pattern {1111111111/1111111/11111/11/1}
 Group   2 Type N   : 10s7p5d2f1g contracted to 10s7p5d2f1g pattern {1111111111/1111111/11111/11/1}
 Group   3 Type H   : 4s3p2d1f contracted to 4s3p2d1f pattern {1111/111/11/1}

Atom   0C    basis set group =>   1
Atom   1C    basis set group =>   1
Atom   2C    basis set group =>   1
Atom   3C    basis set group =>   1
Atom   4N    basis set group =>   2
Atom   5N    basis set group =>   2
Atom   6C    basis set group =>   1
Atom   7C    basis set group =>   1
Atom   8C    basis set group =>   1
Atom   9C    basis set group =>   1
Atom  10C    basis set group =>   1
Atom  11C    basis set group =>   1
Atom  12C    basis set group =>   1
Atom  13C    basis set group =>   1
Atom  14H    basis set group =>   3
Atom  15H    basis set group =>   3
Atom  16H    basis set group =>   3
Atom  17H    basis set group =>   3
Atom  18H    basis set group =>   3
Atom  19H    basis set group =>   3
Atom  20H    basis set group =>   3
Atom  21H    basis set group =>   3
Atom  22H    basis set group =>   3
Atom  23H    basis set group =>   3
---------------------------------
AUXILIARY/C BASIS SET INFORMATION
---------------------------------
There are 3 groups of distinct atoms

 Group   1 Type C   : 9s7p6d4f2g contracted to 9s7p6d4f2g pattern {111111111/1111111/111111/1111/11}
 Group   2 Type N   : 9s7p6d4f2g contracted to 9s7p6d4f2g pattern {111111111/1111111/111111/1111/11}
 Group   3 Type H   : 4s3p2d1f contracted to 4s3p2d1f pattern {1111/111/11/1}

Atom   0C    basis set group =>   1
Atom   1C    basis set group =>   1
Atom   2C    basis set group =>   1
Atom   3C    basis set group =>   1
Atom   4N    basis set group =>   2
Atom   5N    basis set group =>   2
Atom   6C    basis set group =>   1
Atom   7C    basis set group =>   1
Atom   8C    basis set group =>   1
Atom   9C    basis set group =>   1
Atom  10C    basis set group =>   1
Atom  11C    basis set group =>   1
Atom  12C    basis set group =>   1
Atom  13C    basis set group =>   1
Atom  14H    basis set group =>   3
Atom  15H    basis set group =>   3
Atom  16H    basis set group =>   3
Atom  17H    basis set group =>   3
Atom  18H    basis set group =>   3
Atom  19H    basis set group =>   3
Atom  20H    basis set group =>   3
Atom  21H    basis set group =>   3
Atom  22H    basis set group =>   3
Atom  23H    basis set group =>   3


           ************************************************************
           *        Program running with 4 parallel MPI-processes     *
           *              working on a common directory               *
           ************************************************************
------------------------------------------------------------------------------
                           ORCA GTO INTEGRAL CALCULATION
                           -- RI-GTO INTEGRALS CHOSEN --
------------------------------------------------------------------------------
------------------------------------------------------------------------------
                   ___                                                        
                  /   \      - P O W E R E D   B Y -                         
                 /     \                                                     
                 |  |  |   _    _      __       _____    __    __             
                 |  |  |  | |  | |    /  \     |  _  \  |  |  /  |          
                  \  \/   | |  | |   /    \    | | | |  |  | /  /          
                 / \  \   | |__| |  /  /\  \   | |_| |  |  |/  /          
                |  |  |   |  __  | /  /__\  \  |    /   |      \           
                |  |  |   | |  | | |   __   |  |    \   |  |\   \          
                \     /   | |  | | |  |  |  |  | |\  \  |  | \   \       
                 \___/    |_|  |_| |__|  |__|  |_| \__\ |__|  \__/        
                                                                              
                      - O R C A' S   B I G   F R I E N D -                    
                                      &                                       
                       - I N T E G R A L  F E E D E R -                       
                                                                              
 v1 FN, 2020, v2 2021                                                         
------------------------------------------------------------------------------


Reading SHARK input file x3lyp-train-0.SHARKINP.tmp ... ok
----------------------
SHARK INTEGRAL PACKAGE
----------------------

Number of atoms                             ...     24
Number of basis functions                   ...    868
Number of shells                            ...    340
Maximum angular momentum                    ...      3
Integral batch strategy                     ... SHARK/LIBINT Hybrid
RI-J (if used) integral strategy            ... SPLIT-RIJ (Revised 2003 algorithm where possible)
Printlevel                                  ...      1
Contraction scheme used                     ... PARTIAL GENERAL contraction
Coulomb Range Separation                    ... NOT USED
Exchange Range Separation                   ... NOT USED
Finite Nucleus Model                        ... NOT USED
Auxiliary Coulomb fitting basis             ... AVAILABLE
   # of basis functions in Aux-J            ...   1406
   # of shells in Aux-J                     ...    450
   Maximum angular momentum in Aux-J        ...      4
Auxiliary J/K fitting basis                 ... NOT available
Auxiliary Correlation fitting basis         ... AVAILABLE
   # of basis functions in Aux-C            ...   1784
   # of shells in Aux-C                     ...    492
   Maximum angular momentum in Aux-C        ...      4
Auxiliary 'external' fitting basis          ... NOT available
Integral threshold                          ...     2.500000e-11
Primitive cut-off                           ...     2.500000e-12
Primitive pair pre-selection threshold      ...     2.500000e-12

Calculating pre-screening integrals         ... done (  0.1 sec) Dimension = 340
Calculating pre-screening integrals (ORCA)  ... done (  0.3 sec) Dimension = 256
Organizing shell pair data                  ... done (  0.4 sec)
Shell pair information
Total number of shell pairs                 ...     57970
Shell pairs after pre-screening             ...     40430
Total number of primitive shell pairs       ...     75538
Primitive shell pairs kept                  ...     47956
          la=0 lb=0:   9392 shell pairs
          la=1 lb=0:  10268 shell pairs
          la=1 lb=1:   2452 shell pairs
          la=2 lb=0:   6858 shell pairs
          la=2 lb=1:   3264 shell pairs
          la=2 lb=2:   1129 shell pairs
          la=3 lb=0:   3724 shell pairs
          la=3 lb=1:   1778 shell pairs
          la=3 lb=2:   1212 shell pairs
          la=3 lb=3:    353 shell pairs

Calculating one electron integrals          ... done (  0.1 sec)
Calculating RI/J V-Matrix + Cholesky decomp.... done (  0.1 sec)
Calculating RI/C V-Matrix + Cholesky decomp.... done (  0.2 sec)
Calculating Nuclear repulsion               ... done (  0.0 sec) ENN=    754.763724847319 Eh

SHARK setup successfully completed in   2.0 seconds

Maximum memory used throughout the entire GTOINT-calculation: 62.7 MB


           ************************************************************
           *        Program running with 4 parallel MPI-processes     *
           *              working on a common directory               *
           ************************************************************
-------------------------------------------------------------------------------
                                 ORCA SCF
-------------------------------------------------------------------------------

------------
SCF SETTINGS
------------
Hamiltonian:
 Density Functional     Method          .... DFT(GTOs)
 Exchange Functional    Exchange        .... X
 Correlation Functional Correlation     .... LYP
 LDA part of GGA corr.  LDAOpt          .... VWN-5
 Gradients option       PostSCFGGA      .... off
 Hybrid DFT is turned on
   Fraction HF Exchange ScalHFX         ....  0.218000
   Scaling of DF-GGA-X  ScalDFX         ....  0.709000
   Scaling of DF-GGA-C  ScalDFC         ....  0.871000
   Scaling of DF-LDA-C  ScalLDAC        ....  1.000000
   Perturbative correction              ....  0.000000
   Density functional embedding theory  .... OFF
 RI-approximation to the Coulomb term is turned on
   Number of AuxJ basis functions       .... 1406
   RIJ-COSX (HFX calculated with COS-X)).... on


General Settings:
 Integral files         IntName         .... x3lyp-train-0
 Hartree-Fock type      HFTyp           .... RHF
 Total Charge           Charge          ....    0
 Multiplicity           Mult            ....    1
 Number of Electrons    NEL             ....   96
 Basis Dimension        Dim             ....  784
 Nuclear Repulsion      ENuc            ....    754.7637248473 Eh

Convergence Acceleration:
 DIIS                   CNVDIIS         .... on
   Start iteration      DIISMaxIt       ....    12
   Startup error        DIISStart       ....  0.200000
   # of expansion vecs  DIISMaxEq       ....     5
   Bias factor          DIISBfac        ....   1.050
   Max. coefficient     DIISMaxC        ....  10.000
 Trust-Rad. Augm. Hess. CNVTRAH         .... auto
   Auto Start mean grad. ratio tolernc. ....  1.125000
   Auto Start start iteration           ....    20
   Auto Start num. interpolation iter.  ....    10
   Max. Number of Micro iterations      ....    16
   Max. Number of Macro iterations      .... Maxiter - #DIIS iter
   Number of Davidson start vectors     ....     2
   Converg. threshold I  (grad. norm)   ....   1.000e-05
   Converg. threshold II (energy diff.) ....   1.000e-08
   Grad. Scal. Fac. for Micro threshold ....   0.100
   Minimum threshold for Micro iter.    ....   0.010
   NR start threshold (gradient norm)   ....   0.001
   Initial trust radius                 ....   0.400
   Minimum AH scaling param. (alpha)    ....   1.000
   Maximum AH scaling param. (alpha)    .... 1000.000
   Orbital update algorithm             .... Taylor
   White noise on init. David. guess    .... on
   Maximum white noise                  ....   0.010
   Quad. conv. algorithm                .... NR
 SOSCF                  CNVSOSCF        .... on
   Start iteration      SOSCFMaxIt      ....   150
   Startup grad/error   SOSCFStart      ....  0.003300
 Level Shifting         CNVShift        .... on
   Level shift para.    LevelShift      ....    0.2500
   Turn off err/grad.   ShiftErr        ....    0.0010
 Zerner damping         CNVZerner       .... off
 Static damping         CNVDamp         .... on
   Fraction old density DampFac         ....    0.7000
   Max. Damping (<1)    DampMax         ....    0.9800
   Min. Damping (>=0)   DampMin         ....    0.0000
   Turn off err/grad.   DampErr         ....    0.1000
 Fernandez-Rico         CNVRico         .... off

SCF Procedure:
 Maximum # iterations   MaxIter         ....   125
 SCF integral mode      SCFMode         .... Direct
   Integral package                     .... SHARK and LIBINT hybrid scheme
 Reset frequency        DirectResetFreq ....    20
 Integral Threshold     Thresh          ....  2.500e-11 Eh
 Primitive CutOff       TCut            ....  2.500e-12 Eh

Convergence Tolerance:
 Convergence Check Mode ConvCheckMode   .... Total+1el-Energy
 Convergence forced     ConvForced      .... 0
 Energy Change          TolE            ....  1.000e-08 Eh
 1-El. energy change                    ....  1.000e-05 Eh
 Orbital Gradient       TolG            ....  1.000e-05
 Orbital Rotation angle TolX            ....  1.000e-05
 DIIS Error             TolErr          ....  5.000e-07


Diagonalization of the overlap matrix:
Smallest eigenvalue                        ... 1.183e-06
Time for diagonalization                   ...    0.187 sec
Threshold for overlap eigenvalues          ... 1.000e-08
Number of eigenvalues below threshold      ... 0
Time for construction of square roots      ...    0.073 sec
Total time needed                          ...    0.265 sec

Time for model grid setup =    0.367 sec

------------------------------
INITIAL GUESS: MODEL POTENTIAL
------------------------------
Loading Hartree-Fock densities                     ... done
Calculating cut-offs                               ... done
Initializing the effective Hamiltonian             ... done
Setting up the integral package (SHARK)            ... done
Starting the Coulomb interaction                   ... done (   0.9 sec)
Reading the grid                                   ... done
Mapping shells                                     ... done
Starting the XC term evaluation                    ... done (   0.8 sec)
  promolecular density results
     # of electrons  =     95.993679595
     EX              =    -78.304899377
     EC              =     -3.234782821
     EX+EC           =    -81.539682198
Transforming the Hamiltonian                       ... done (   0.1 sec)
Diagonalizing the Hamiltonian                      ... done (   0.2 sec)
Back transforming the eigenvectors                 ... done (   0.0 sec)
Now organizing SCF variables                       ... done
                      ------------------
                      INITIAL GUESS DONE (   2.4 sec)
                      ------------------
-------------------
DFT GRID GENERATION
-------------------

General Integration Accuracy     IntAcc      ... 4.388
Radial Grid Type                 RadialGrid  ... OptM3 with GC (2021)
Angular Grid (max. ang.)         AngularGrid ... 4 (Lebedev-302)
Angular grid pruning method      GridPruning ... 4 (adaptive)
Weight generation scheme         WeightScheme... Becke
Basis function cutoff            BFCut       ... 1.0000e-11
Integration weight cutoff        WCut        ... 1.0000e-14
Angular grids for H and He will be reduced by one unit
Partially contracted basis set               ... off
Rotationally invariant grid construction     ... off

Total number of grid points                  ...   119759
Total number of batches                      ...     1886
Average number of points per batch           ...       63
Average number of grid points per atom       ...     4990
Time for grid setup =    1.188 sec

--------------------
COSX GRID GENERATION
--------------------

GRIDX 1
-------
General Integration Accuracy     IntAcc      ... 3.816
Radial Grid Type                 RadialGrid  ... OptM3 with GC (2021)
Angular Grid (max. ang.)         AngularGrid ... 1 (Lebedev-50)
Angular grid pruning method      GridPruning ... 4 (adaptive)
Weight generation scheme         WeightScheme... Becke
Basis function cutoff            BFCut       ... 1.0000e-11
Integration weight cutoff        WCut        ... 1.0000e-14
Angular grids for H and He will be reduced by one unit
Partially contracted basis set               ... on
Rotationally invariant grid construction     ... off

Total number of grid points                  ...    15306
Total number of batches                      ...      256
Average number of points per batch           ...       59
Average number of grid points per atom       ...      638
UseSFitting                                  ... on

GRIDX 2
-------
General Integration Accuracy     IntAcc      ... 4.020
Radial Grid Type                 RadialGrid  ... OptM3 with GC (2021)
Angular Grid (max. ang.)         AngularGrid ... 2 (Lebedev-110)
Angular grid pruning method      GridPruning ... 4 (adaptive)
Weight generation scheme         WeightScheme... Becke
Basis function cutoff            BFCut       ... 1.0000e-11
Integration weight cutoff        WCut        ... 1.0000e-14
Angular grids for H and He will be reduced by one unit
Partially contracted basis set               ... on
Rotationally invariant grid construction     ... off

Total number of grid points                  ...    36690
Total number of batches                      ...      583
Average number of points per batch           ...       62
Average number of grid points per atom       ...     1529
UseSFitting                                  ... on

GRIDX 3
-------
General Integration Accuracy     IntAcc      ... 4.338
Radial Grid Type                 RadialGrid  ... OptM3 with GC (2021)
Angular Grid (max. ang.)         AngularGrid ... 3 (Lebedev-194)
Angular grid pruning method      GridPruning ... 4 (adaptive)
Weight generation scheme         WeightScheme... Becke
Basis function cutoff            BFCut       ... 1.0000e-11
Integration weight cutoff        WCut        ... 1.0000e-14
Angular grids for H and He will be reduced by one unit
Partially contracted basis set               ... on
Rotationally invariant grid construction     ... off

Total number of grid points                  ...    79133
Total number of batches                      ...     1248
Average number of points per batch           ...       63
Average number of grid points per atom       ...     3297
UseSFitting                                  ... on

Time for X-Grid setup             =    2.229 sec


--------------------
CPCM SOLVATION MODEL
--------------------
CPCM parameters:
  Epsilon                                         ...       2.2706
  Refrac                                          ...       1.5011
  Rsolv                                           ...       1.3000
  Surface type                                    ... GAUSSIAN VDW
  Epsilon function type                           ...         CPCM
Solvent:                                     ... BENZENE
SMD-CDS solvent descriptors:
  Soln                                       ...    1.5011
  Soln25                                     ...    1.4972
  Sola                                       ...    0.0000
  Solb                                       ...    0.1400
  Solg                                       ...   40.6200
  Solc                                       ...    1.0000
  Solh                                       ...    0.0000
Radii:
 Radius for C  used is    3.4960 Bohr (=   1.8500 Ang.)
 Radius for N  used is    3.5716 Bohr (=   1.8900 Ang.)
 Radius for H  used is    2.2677 Bohr (=   1.2000 Ang.)
Calculating surface                               ...        done! (  0.0s)
GEPOL surface points                              ...         1407
GEPOL Volume                                      ...    1324.4442
GEPOL Surface-area                                ...     771.4012
Calculating surface distance matrix               ...        done! (  0.0s)
Performing Cholesky decomposition & store         ...        done! (  0.1s)
Overall time for CPCM initialization              ...                 0.1s
 re-compute Schwartz prescreening matrix in partically contracted basis (1) ...done (   0.158 sec)
--------------
SCF ITERATIONS
--------------
ITER       Energy         Delta-E        Max-DP      RMS-DP      [F,P]     Damp
               ***  Starting incremental Fock matrix formation  ***
  0   -572.1488079660   0.000000000000 0.09531502  0.00092218  0.1458207 0.7000
  1   -572.2827771611  -0.133969195090 0.06326188  0.00066201  0.0782334 0.7000
                               ***Turning on DIIS***
  2   -572.3452080730  -0.062430911901 0.11947346  0.00139483  0.0373932 0.0000
  3   -572.4360170095  -0.090808936525 0.03055847  0.00029466  0.0410712 0.0000
  4   -572.4572784586  -0.021261449050 0.02282681  0.00012563  0.0077821 0.0000
                      *** Initiating the SOSCF procedure ***
                           *** Shutting down DIIS ***
                      *** Re-Reading the Fockian *** 
                      *** Removing any level shift *** 
ITER      Energy       Delta-E        Grad      Rot      Max-DP    RMS-DP
  5   -572.45814585  -0.0008673917  0.001034  0.001034  0.003215  0.000035
               *** Restarting incremental Fock matrix formation ***
  6   -572.45821594  -0.0000700921  0.000382  0.001645  0.014234  0.000247
  7   -572.45821867  -0.0000027240  0.000575  0.001724  0.003098  0.000055
  8   -572.45822443  -0.0000057684  0.000182  0.000584  0.003650  0.000059
  9   -572.45822461  -0.0000001783  0.000074  0.000091  0.000380  0.000005
 10   -572.45822514  -0.0000005282  0.000013  0.000066  0.002888  0.000016
 11   -572.45822514   0.0000000023  0.000015  0.000023  0.002105  0.000013
 12   -572.45822518  -0.0000000384  0.000003  0.000016  0.002954  0.000020
                  ***Gradient check signals convergence***
              ***Rediagonalizing the Fockian in SOSCF/NRSCF***

               *****************************************************
               *                     SUCCESS                       *
               *           SCF CONVERGED AFTER  13 CYCLES          *
               *****************************************************

Old exchange energy                            =    -17.218585497 Eh
New exchange energy                            =    -17.218563507 Eh
Exchange energy change after final integration =      0.000021989 Eh
Total energy after final integration           =   -572.458203195 Eh
Final COS-X integration done in                =    53.653 sec

SMD CDS free energy correction energy :                -5.78691     Kcal/mol
Total Energy after SMD CDS correction =              -572.467425216 Eh

----------------
TOTAL SCF ENERGY
----------------

Total Energy       :         -572.46742522 Eh          -15577.63059 eV

Components:
Nuclear Repulsion  :          754.76372485 Eh           20538.16509 eV
Electronic Energy  :        -1327.23115006 Eh          -36115.79568 eV
One Electron Energy:        -2270.33403985 Eh          -61778.93000 eV
Two Electron Energy:          943.10288979 Eh           25663.13432 eV
Max COSX asymmetry :            0.00000988 Eh               0.00027 eV
CPCM Dielectric    :           -0.00591382 Eh              -0.16092 eV
SMD CDS (Gcds)     :           -0.00922202 Eh              -0.25094 eV

Virial components:
Potential Energy   :        -1141.96755821 Eh          -31074.51706 eV
Kinetic Energy     :          569.50013299 Eh           15496.88647 eV
Virial Ratio       :            2.00521035


DFT components:
N(Alpha)           :       48.000023806980 electrons
N(Beta)            :       48.000023806980 electrons
N(Total)           :       96.000047613959 electrons
E(X)               :      -61.388320049553 Eh       
E(C)               :       -3.640459260808 Eh       
E(XC)              :      -65.028779310361 Eh       
DFET-embed. en.    :        0.000000000000 Eh       
CPCM Solvation Model Properties:
Surface-charge          :           -0.06063370
Charge-correction       :            0.00009992 Eh               0.00272 eV
Free-energy (cav+disp)  :           -0.00922202 Eh              -0.25094 eV

---------------
SCF CONVERGENCE
---------------

  Last Energy change         ...   -6.5696e-09  Tolerance :   1.0000e-08
  Last MAX-Density change    ...    3.7748e-15  Tolerance :   1.0000e-07
  Last RMS-Density change    ...    1.5703e-17  Tolerance :   5.0000e-09
  Last Orbital Gradient      ...    1.6706e-06  Tolerance :   1.0000e-05
  Last Orbital Rotation      ...    4.0134e-06  Tolerance :   1.0000e-05

             **** THE GBW FILE WAS UPDATED (x3lyp-train-0.gbw) ****
             **** DENSITY x3lyp-train-0.scfp WAS UPDATED ****
             **** ENERGY FILE WAS UPDATED (x3lyp-train-0.en.tmp) ****
             **** THE GBW FILE WAS UPDATED (x3lyp-train-0.gbw) ****
             **** DENSITY x3lyp-train-0.scfp WAS UPDATED ****
----------------
ORBITAL ENERGIES
----------------

  NO   OCC          E(Eh)            E(eV) 
   0   2.0000     -14.389324      -391.5534 
   1   2.0000     -14.388854      -391.5406 
   2   2.0000     -10.229646      -278.3628 
   3   2.0000     -10.229633      -278.3625 
   4   2.0000     -10.204675      -277.6833 
   5   2.0000     -10.204667      -277.6831 
   6   2.0000     -10.203626      -277.6548 
   7   2.0000     -10.203618      -277.6546 
   8   2.0000     -10.202460      -277.6230 
   9   2.0000     -10.202437      -277.6224 
  10   2.0000     -10.201637      -277.6007 
  11   2.0000     -10.201635      -277.6006 
  12   2.0000     -10.201335      -277.5924 
  13   2.0000     -10.201302      -277.5915 
  14   2.0000      -1.039334       -28.2817 
  15   2.0000      -0.888073       -24.1657 
  16   2.0000      -0.866799       -23.5868 
  17   2.0000      -0.814343       -22.1594 
  18   2.0000      -0.763209       -20.7680 
  19   2.0000      -0.762141       -20.7389 
  20   2.0000      -0.749923       -20.4064 
  21   2.0000      -0.691731       -18.8230 
  22   2.0000      -0.629528       -17.1303 
  23   2.0000      -0.622016       -16.9259 
  24   2.0000      -0.606407       -16.5012 
  25   2.0000      -0.573698       -15.6111 
  26   2.0000      -0.540482       -14.7073 
  27   2.0000      -0.512694       -13.9511 
  28   2.0000      -0.492271       -13.3954 
  29   2.0000      -0.481235       -13.0951 
  30   2.0000      -0.459384       -12.5005 
  31   2.0000      -0.446784       -12.1576 
  32   2.0000      -0.441370       -12.0103 
  33   2.0000      -0.436655       -11.8820 
  34   2.0000      -0.433300       -11.7907 
  35   2.0000      -0.431121       -11.7314 
  36   2.0000      -0.401448       -10.9240 
  37   2.0000      -0.389143       -10.5891 
  38   2.0000      -0.369784       -10.0623 
  39   2.0000      -0.366407        -9.9704 
  40   2.0000      -0.360012        -9.7964 
  41   2.0000      -0.351062        -9.5529 
  42   2.0000      -0.348410        -9.4807 
  43   2.0000      -0.287030        -7.8105 
  44   2.0000      -0.266916        -7.2631 
  45   2.0000      -0.266649        -7.2559 
  46   2.0000      -0.238710        -6.4956 
  47   2.0000      -0.233228        -6.3465 
  48   0.0000      -0.093547        -2.5455 
  49   0.0000      -0.015901        -0.4327 
  50   0.0000      -0.012522        -0.3407 
  51   0.0000      -0.001006        -0.0274 
  52   0.0000       0.001560         0.0425 
  53   0.0000       0.004229         0.1151 
  54   0.0000       0.013739         0.3738 
  55   0.0000       0.022244         0.6053 
  56   0.0000       0.024226         0.6592 
  57   0.0000       0.035632         0.9696 
  58   0.0000       0.039056         1.0628 
  59   0.0000       0.039468         1.0740 
  60   0.0000       0.039744         1.0815 
  61   0.0000       0.041847         1.1387 
  62   0.0000       0.048736         1.3262 
  63   0.0000       0.054729         1.4893 
  64   0.0000       0.062230         1.6934 
  65   0.0000       0.063904         1.7389 
  66   0.0000       0.065981         1.7954 
  67   0.0000       0.067256         1.8301 
  68   0.0000       0.076441         2.0801 
  69   0.0000       0.086626         2.3572 
  70   0.0000       0.087219         2.3734 
  71   0.0000       0.097417         2.6509 
  72   0.0000       0.098979         2.6933 
  73   0.0000       0.100308         2.7295 
  74   0.0000       0.107321         2.9204 
  75   0.0000       0.110212         2.9990 
  76   0.0000       0.113431         3.0866 
  77   0.0000       0.119593         3.2543 
  78   0.0000       0.119936         3.2636 
  79   0.0000       0.124163         3.3786 
  80   0.0000       0.127292         3.4638 
  81   0.0000       0.129826         3.5327 
  82   0.0000       0.130071         3.5394 
  83   0.0000       0.136308         3.7091 
  84   0.0000       0.137654         3.7457 
  85   0.0000       0.142459         3.8765 
  86   0.0000       0.144771         3.9394 
  87   0.0000       0.146311         3.9813 
  88   0.0000       0.148378         4.0376 
  89   0.0000       0.149098         4.0572 
  90   0.0000       0.150549         4.0966 
  91   0.0000       0.160048         4.3551 
  92   0.0000       0.161698         4.4000 
  93   0.0000       0.167046         4.5455 
  94   0.0000       0.168273         4.5789 
  95   0.0000       0.170639         4.6433 
  96   0.0000       0.173346         4.7170 
  97   0.0000       0.175703         4.7811 
  98   0.0000       0.181766         4.9461 
  99   0.0000       0.182997         4.9796 
 100   0.0000       0.190158         5.1745 
 101   0.0000       0.193183         5.2568 
 102   0.0000       0.200200         5.4477 
 103   0.0000       0.200992         5.4693 
 104   0.0000       0.212369         5.7789 
 105   0.0000       0.214595         5.8394 
 106   0.0000       0.215160         5.8548 
 107   0.0000       0.222671         6.0592 
 108   0.0000       0.225404         6.1336 
 109   0.0000       0.229833         6.2541 
 110   0.0000       0.231970         6.3122 
 111   0.0000       0.233151         6.3444 
 112   0.0000       0.238853         6.4995 
 113   0.0000       0.241468         6.5707 
 114   0.0000       0.245805         6.6887 
 115   0.0000       0.246610         6.7106 
 116   0.0000       0.249476         6.7886 
 117   0.0000       0.253924         6.9096 
 118   0.0000       0.259945         7.0735 
 119   0.0000       0.261975         7.1287 
 120   0.0000       0.269849         7.3430 
 121   0.0000       0.272807         7.4234 
 122   0.0000       0.274555         7.4710 
 123   0.0000       0.284335         7.7371 
 124   0.0000       0.286992         7.8095 
 125   0.0000       0.290186         7.8964 
 126   0.0000       0.293319         7.9816 
 127   0.0000       0.300747         8.1837 
 128   0.0000       0.300809         8.1854 
 129   0.0000       0.303665         8.2632 
 130   0.0000       0.306085         8.3290 
 131   0.0000       0.313848         8.5403 
 132   0.0000       0.315588         8.5876 
 133   0.0000       0.316158         8.6031 
 134   0.0000       0.325869         8.8673 
 135   0.0000       0.336685         9.1617 
 136   0.0000       0.340101         9.2546 
 137   0.0000       0.340682         9.2704 
 138   0.0000       0.343166         9.3380 
 139   0.0000       0.345334         9.3970 
 140   0.0000       0.353303         9.6139 
 141   0.0000       0.363040         9.8788 
 142   0.0000       0.363985         9.9045 
 143   0.0000       0.372065        10.1244 
 144   0.0000       0.372893        10.1469 
 145   0.0000       0.376557        10.2466 
 146   0.0000       0.376969        10.2579 
 147   0.0000       0.378800        10.3077 
 148   0.0000       0.382621        10.4116 
 149   0.0000       0.387927        10.5560 
 150   0.0000       0.392508        10.6807 
 151   0.0000       0.395366        10.7584 
 152   0.0000       0.396668        10.7939 
 153   0.0000       0.397590        10.8190 
 154   0.0000       0.400849        10.9076 
 155   0.0000       0.404149        10.9974 
 156   0.0000       0.406919        11.0728 
 157   0.0000       0.411797        11.2056 
 158   0.0000       0.412473        11.2240 
 159   0.0000       0.413381        11.2487 
 160   0.0000       0.420845        11.4518 
 161   0.0000       0.422886        11.5073 
 162   0.0000       0.425399        11.5757 
 163   0.0000       0.430097        11.7035 
 164   0.0000       0.430848        11.7240 
 165   0.0000       0.433498        11.7961 
 166   0.0000       0.433931        11.8079 
 167   0.0000       0.440003        11.9731 
 168   0.0000       0.450898        12.2696 
 169   0.0000       0.451235        12.2787 
 170   0.0000       0.464696        12.6450 
 171   0.0000       0.466426        12.6921 
 172   0.0000       0.473732        12.8909 
 173   0.0000       0.476955        12.9786 
 174   0.0000       0.479851        13.0574 
 175   0.0000       0.480314        13.0700 
 176   0.0000       0.487570        13.2674 
 177   0.0000       0.493534        13.4298 
 178   0.0000       0.494720        13.4620 
 179   0.0000       0.500639        13.6231 
 180   0.0000       0.503621        13.7042 
 181   0.0000       0.511861        13.9284 
 182   0.0000       0.512846        13.9552 
 183   0.0000       0.514977        14.0132 
 184   0.0000       0.528992        14.3946 
 185   0.0000       0.530845        14.4450 
 186   0.0000       0.536009        14.5856 
 187   0.0000       0.543717        14.7953 
 188   0.0000       0.558298        15.1921 
 189   0.0000       0.560868        15.2620 
 190   0.0000       0.581979        15.8364 
 191   0.0000       0.584141        15.8953 
 192   0.0000       0.584690        15.9102 
 193   0.0000       0.593000        16.1364 
 194   0.0000       0.597850        16.2683 
 195   0.0000       0.599463        16.3122 
 196   0.0000       0.603212        16.4142 
 197   0.0000       0.622988        16.9524 
 198   0.0000       0.629030        17.1168 
 199   0.0000       0.632617        17.2144 
 200   0.0000       0.638703        17.3800 
 201   0.0000       0.642660        17.4877 
 202   0.0000       0.644916        17.5491 
 203   0.0000       0.645055        17.5528 
 204   0.0000       0.651770        17.7356 
 205   0.0000       0.653634        17.7863 
 206   0.0000       0.665546        18.1104 
 207   0.0000       0.667345        18.1594 
 208   0.0000       0.669493        18.2178 
 209   0.0000       0.677769        18.4430 
 210   0.0000       0.680045        18.5050 
 211   0.0000       0.683578        18.6011 
 212   0.0000       0.686580        18.6828 
 213   0.0000       0.690278        18.7834 
 214   0.0000       0.698605        19.0100 
 215   0.0000       0.703490        19.1429 
 216   0.0000       0.706024        19.2119 
 217   0.0000       0.708149        19.2697 
 218   0.0000       0.710179        19.3249 
 219   0.0000       0.715163        19.4606 
 220   0.0000       0.723840        19.6967 
 221   0.0000       0.734074        19.9752 
 222   0.0000       0.742636        20.2082 
 223   0.0000       0.743891        20.2423 
 224   0.0000       0.744964        20.2715 
 225   0.0000       0.745179        20.2773 
 226   0.0000       0.754350        20.5269 
 227   0.0000       0.756950        20.5976 
 228   0.0000       0.757659        20.6169 
 229   0.0000       0.763136        20.7660 
 230   0.0000       0.765108        20.8197 
 231   0.0000       0.771707        20.9992 
 232   0.0000       0.774051        21.0630 
 233   0.0000       0.775060        21.0905 
 234   0.0000       0.780412        21.2361 
 235   0.0000       0.784108        21.3367 
 236   0.0000       0.788258        21.4496 
 237   0.0000       0.806946        21.9581 
 238   0.0000       0.812226        22.1018 
 239   0.0000       0.817389        22.2423 
 240   0.0000       0.830664        22.6035 
 241   0.0000       0.831789        22.6341 
 242   0.0000       0.833182        22.6720 
 243   0.0000       0.837920        22.8009 
 244   0.0000       0.842802        22.9338 
 245   0.0000       0.843885        22.9633 
 246   0.0000       0.865143        23.5417 
 247   0.0000       0.867833        23.6149 
 248   0.0000       0.869306        23.6550 
 249   0.0000       0.870914        23.6988 
 250   0.0000       0.878133        23.8952 
 251   0.0000       0.885440        24.0941 
 252   0.0000       0.889697        24.2099 
 253   0.0000       0.893964        24.3260 
 254   0.0000       0.900247        24.4970 
 255   0.0000       0.902099        24.5474 
 256   0.0000       0.910042        24.7635 
 257   0.0000       0.911674        24.8079 
 258   0.0000       0.912437        24.8287 
 259   0.0000       0.913652        24.8617 
 260   0.0000       0.923817        25.1383 
 261   0.0000       0.924571        25.1589 
 262   0.0000       0.930603        25.3230 
 263   0.0000       0.940589        25.5947 
 264   0.0000       0.940970        25.6051 
 265   0.0000       0.953142        25.9363 
 266   0.0000       0.956758        26.0347 
 267   0.0000       0.965527        26.2733 
 268   0.0000       0.971609        26.4388 
 269   0.0000       0.971978        26.4489 
 270   0.0000       0.984542        26.7907 
 271   0.0000       0.986308        26.8388 
 272   0.0000       0.991283        26.9742 
 273   0.0000       0.996093        27.1051 
 274   0.0000       1.007109        27.4048 
 275   0.0000       1.007302        27.4101 
 276   0.0000       1.010838        27.5063 
 277   0.0000       1.021263        27.7900 
 278   0.0000       1.047576        28.5060 
 279   0.0000       1.051418        28.6105 
 280   0.0000       1.062163        28.9029 
 281   0.0000       1.074535        29.2396 
 282   0.0000       1.080023        29.3889 
 283   0.0000       1.082976        29.4693 
 284   0.0000       1.095514        29.8104 
 285   0.0000       1.112906        30.2837 
 286   0.0000       1.117470        30.4079 
 287   0.0000       1.119323        30.4583 
 288   0.0000       1.124591        30.6017 
 289   0.0000       1.142774        31.0965 
 290   0.0000       1.152965        31.3738 
 291   0.0000       1.161031        31.5933 
 292   0.0000       1.171038        31.8656 
 293   0.0000       1.174452        31.9585 
 294   0.0000       1.196405        32.5558 
 295   0.0000       1.210413        32.9370 
 296   0.0000       1.219825        33.1931 
 297   0.0000       1.221888        33.2493 
 298   0.0000       1.230509        33.4839 
 299   0.0000       1.239442        33.7269 
 300   0.0000       1.239716        33.7344 
 301   0.0000       1.240576        33.7578 
 302   0.0000       1.242767        33.8174 
 303   0.0000       1.249229        33.9932 
 304   0.0000       1.264168        34.3997 
 305   0.0000       1.274397        34.6781 
 306   0.0000       1.287161        35.0254 
 307   0.0000       1.290037        35.1037 
 308   0.0000       1.296777        35.2871 
 309   0.0000       1.303961        35.4826 
 310   0.0000       1.306976        35.5646 
 311   0.0000       1.320356        35.9287 
 312   0.0000       1.322574        35.9891 
 313   0.0000       1.326990        36.1092 
 314   0.0000       1.330006        36.1913 
 315   0.0000       1.339902        36.4606 
 316   0.0000       1.351302        36.7708 
 317   0.0000       1.353598        36.8333 
 318   0.0000       1.355031        36.8723 
 319   0.0000       1.362131        37.0655 
 320   0.0000       1.365543        37.1583 
 321   0.0000       1.369529        37.2668 
 322   0.0000       1.370797        37.3013 
 323   0.0000       1.371128        37.3103 
 324   0.0000       1.377812        37.4922 
 325   0.0000       1.378813        37.5194 
 326   0.0000       1.383956        37.6593 
 327   0.0000       1.390347        37.8333 
 328   0.0000       1.396032        37.9880 
 329   0.0000       1.398361        38.0513 
 330   0.0000       1.406881        38.2832 
 331   0.0000       1.409359        38.3506 
 332   0.0000       1.415592        38.5202 
 333   0.0000       1.419306        38.6213 
 334   0.0000       1.420302        38.6484 
 335   0.0000       1.432238        38.9732 
 336   0.0000       1.436596        39.0918 
[...]
B(  1-C ,  2-C ) :   1.0751 B(  1-C , 15-H ) :   0.9587 B(  2-C ,  3-C ) :   1.1248 
B(  2-C ,  4-N ) :  -0.2440 B(  2-C , 16-H ) :   1.0162 B(  3-C ,  4-N ) :   0.1091 
B(  3-C ,  5-N ) :   0.4833 B(  3-C , 12-C ) :   0.9854 B(  4-N ,  6-C ) :   0.4871 
B(  4-N ,  7-C ) :   0.1146 B(  5-N ,  6-C ) :   0.1153 B(  5-N , 11-C ) :  -0.2438 
B(  5-N , 12-C ) :   0.1168 B(  6-C ,  7-C ) :   0.9878 B(  6-C , 11-C ) :   1.1212 
B(  7-C ,  8-C ) :   1.1596 B(  7-C , 17-H ) :   0.9735 B(  8-C ,  9-C ) :   1.2067 
B(  8-C , 18-H ) :   0.9665 B(  9-C , 10-C ) :   1.2517 B(  9-C , 19-H ) :   0.9441 
B( 10-C , 11-C ) :   1.0797 B( 10-C , 20-H ) :   0.9603 B( 11-C , 21-H ) :   1.0153 
B( 12-C , 13-C ) :   1.1581 B( 12-C , 22-H ) :   0.9710 B( 13-C , 23-H ) :   0.9650 


-------
TIMINGS
-------

Total SCF time: 0 days 0 hours 2 min 5 sec 

Total time                  ....     125.603 sec
Sum of individual times     ....     123.476 sec  ( 98.3%)

Fock matrix formation       ....     119.130 sec  ( 94.8%)
  Split-RI-J                ....       6.142 sec  (  5.2% of F)
  Chain of spheres X        ....     103.930 sec  ( 87.2% of F)
  XC integration            ....       4.836 sec  (  4.1% of F)
    Basis function eval.    ....       0.978 sec  ( 20.2% of XC)
    Density eval.           ....       1.638 sec  ( 33.9% of XC)
    XC-Functional eval.     ....       0.103 sec  (  2.1% of XC)
    XC-Potential eval.      ....       2.032 sec  ( 42.0% of XC)
Diagonalization             ....       0.246 sec  (  0.2%)
Density matrix formation    ....       0.019 sec  (  0.0%)
Population analysis         ....       0.149 sec  (  0.1%)
Initial guess               ....       0.253 sec  (  0.2%)
Orbital Transformation      ....       0.000 sec  (  0.0%)
Orbital Orthonormalization  ....       0.217 sec  (  0.2%)
DIIS solution               ....       0.077 sec  (  0.1%)
SOSCF solution              ....       0.154 sec  (  0.1%)
Grid generation             ....       3.448 sec  (  2.7%)

Maximum memory used throughout the entire SCF-calculation: 181.4 MB


           ************************************************************
           *        Program running with 4 parallel MPI-processes     *
           *              working on a common directory               *
           ************************************************************
------------------------------------------------------------------------------
                        ORCA TD-DFT/TDA CALCULATION
------------------------------------------------------------------------------

Input orbitals are from        ... x3lyp-train-0_job2.gbw
CI-vector output               ... x3lyp-train-0_job2.cis
Tamm-Dancoff approximation     ... operative
CIS-Integral strategy          ... AO-integrals
Integral handling              ... AO integral Direct
Max. core memory used          ... 4000 MB
Reference state                ... RHF
Generation of triplets         ... off
Follow IRoot                   ... off
Number of operators            ... 1
Orbital ranges used for CIS calculation:
 Operator 0:  Orbitals  14... 47  to  48...783
XAS localization array:
 Operator 0:  Orbitals  -1... -1

-------------------
XC-INTEGRATION GRID
-------------------

General Integration Accuracy     IntAcc      ... 3.467
Radial Grid Type                 RadialGrid  ... OptM3 with GC (2021)
Angular Grid (max. ang.)         AngularGrid ... 1 (Lebedev-50)
Angular grid pruning method      GridPruning ... 4 (adaptive)
Weight generation scheme         WeightScheme... Becke
Basis function cutoff            BFCut       ... 1.0000e-11
Integration weight cutoff        WCut        ... 1.0000e-14
Angular grids for H and He will be reduced by one unit
Partially contracted basis set               ... off
Rotationally invariant grid construction     ... off

Total number of grid points                  ...    17921
Total number of batches                      ...      293
Average number of points per batch           ...       61
Average number of grid points per atom       ...      747

---------------------
COSX-INTEGRATION GRID
---------------------

General Integration Accuracy     IntAcc      ... 3.067
Radial Grid Type                 RadialGrid  ... OptM3 with GC (2021)
Angular Grid (max. ang.)         AngularGrid ... 1 (Lebedev-50)
Angular grid pruning method      GridPruning ... 4 (adaptive)
Weight generation scheme         WeightScheme... Becke
Basis function cutoff            BFCut       ... 1.0000e-11
Integration weight cutoff        WCut        ... 1.0000e-14
Angular grids for H and He will be reduced by one unit
Partially contracted basis set               ... on
Rotationally invariant grid construction     ... off

Total number of grid points                  ...     8122
Total number of batches                      ...      138
Average number of points per batch           ...       58
Average number of grid points per atom       ...      338

---------------
TD-DFT XC SETUP
---------------

DFT calculation                         ... on
Name of the grid file                   ... x3lyp-train-0_job2.grid_cis.tmp
Exchange functional (TD-DFT)            ... X
Correlation functional (TD-DFT)         ... LYP
 LDA part of GGA corr.  LDAOpt (TD-DFT) ... VWN-5
Hybrid DFT                              ... on
   Exchange mixing (TD-DFT)             ...  0.218
   GGA exch. scaling (TD-DFT)           ...  0.709
   GGA corr. scaling (TD-DFT)           ...  0.871

Building densities             ... done
Calculating rho(r) on the grid ... done
Building xc-kernel on the grid ... done
                    *** TD-DFT CALCULATION INITIALIZED ***

---------------------------------
    LR-CPCM (non-equilibrium)
---------------------------------

Setting up LR-CPCM             ... done

------------------------
DAVIDSON-DIAGONALIZATION
------------------------

Dimension of the eigenvalue problem            ...  25024
Number of roots to be determined               ...     10
Maximum size of the expansion space            ...     70
Maximum number of iterations                   ...    100
Convergence tolerance for the residual         ...    1.000e-06
Convergence tolerance for the energies         ...    1.000e-06
Orthogonality tolerance                        ...    1.000e-14
Level Shift                                    ...    0.000e+00
Constructing the preconditioner                ... o.k.
Building the initial guess                     ... o.k.
Number of trial vectors determined             ...     70


                       ****Iteration    0****

   Memory handling for direct AO based CIS:
   Memory per vector needed      ...    28 MB
   Memory needed                 ...   844 MB
   Memory available              ...  4000 MB
   Number of vectors per batch   ...   142
   Number of batches             ...     1
   Time for densities:            0.211
   Time for RI-J (Direct):        7.127
   Time for K (COSX):            37.984
   Time for XC-Integration:      18.229
   Time for LR-CPCM terms:        9.728
   Time for Sigma-Completion:     0.167
   Size of expansion space: 30
   Lowest Energy          :     0.099199877033
   Maximum Energy change  :     0.209074132109 (vector 9)
   Maximum residual norm  :     0.018714600911

                       ****Iteration    1****
   Time for densities:            0.072
   Time for RI-J (Direct):        4.240
   Time for K (COSX):            13.764
   Time for XC-Integration:       6.274
   Time for LR-CPCM terms:        4.559
   Time for Sigma-Completion:     0.059
   Size of expansion space: 40
   Lowest Energy          :     0.096090892255
   Maximum Energy change  :     0.015225183962 (vector 1)
   Maximum residual norm  :     0.000593459086

                       ****Iteration    2****
   Time for densities:            0.071
   Time for RI-J (Direct):        4.253
   Time for K (COSX):            13.920
   Time for XC-Integration:       6.358
   Time for LR-CPCM terms:        4.573
   Time for Sigma-Completion:     0.055
   Size of expansion space: 50
   Lowest Energy          :     0.095988009722
   Maximum Energy change  :     0.000727658587 (vector 4)
   Maximum residual norm  :     0.000075153357

                       ****Iteration    3****
   Time for densities:            0.071
   Time for RI-J (Direct):        4.253
   Time for K (COSX):            13.913
   Time for XC-Integration:       6.444
   Time for LR-CPCM terms:        4.579
   Time for Sigma-Completion:     0.055
   Size of expansion space: 60
   Lowest Energy          :     0.095986741765
   Maximum Energy change  :     0.000104274126 (vector 8)
   Maximum residual norm  :     0.000002165819

                       ****Iteration    4****
   Time for densities:            0.072
   Time for RI-J (Direct):        4.275
   Time for K (COSX):            13.905
   Time for XC-Integration:       6.509
   Time for LR-CPCM terms:        4.601
   Time for Sigma-Completion:     0.055
   Size of expansion space: 70
   Lowest Energy          :     0.095986704709
   Maximum Energy change  :     0.000003143203 (vector 8)
   Maximum residual norm  :     0.000000144980

      *** CONVERGENCE OF RESIDUAL NORM REACHED ***

Storing the converged CI vectors               ... x3lyp-train-0_job2.cis1

                 *** DAVIDSON DONE ***

Total time for solving the CIS problem:   191.239sec

------------------------------------
TD-DFT/TDA EXCITED STATES (SINGLETS)
------------------------------------

the weight of the individual excitations are printed if larger than 1.0e-02

STATE  1:  E=   0.095987 au      2.612 eV    21066.6 cm**-1 <S**2> =   0.000000
    46a ->  48a  :     0.760746 (c= -0.87220761)
    47a ->  48a  :     0.224415 (c=  0.47372489)

STATE  2:  E=   0.135239 au      3.680 eV    29681.6 cm**-1 <S**2> =   0.000000
    46a ->  48a  :     0.221880 (c=  0.47104128)
    47a ->  48a  :     0.750948 (c=  0.86657241)

STATE  3:  E=   0.151290 au      4.117 eV    33204.4 cm**-1 <S**2> =   0.000000
    43a ->  50a  :     0.011017 (c=  0.10496174)
    45a ->  48a  :     0.921759 (c= -0.96008258)
    46a ->  49a  :     0.012085 (c=  0.10993110)
    47a ->  49a  :     0.046152 (c=  0.21482958)

STATE  4:  E=   0.151558 au      4.124 eV    33263.2 cm**-1 <S**2> =   0.000000
    43a ->  49a  :     0.010544 (c=  0.10268589)
    44a ->  48a  :     0.930585 (c=  0.96466852)
    46a ->  50a  :     0.010373 (c=  0.10184642)
    47a ->  50a  :     0.039637 (c=  0.19909086)

STATE  5:  E=   0.177995 au      4.843 eV    39065.3 cm**-1 <S**2> =   0.000000
    43a ->  48a  :     0.867335 (c=  0.93130828)
    46a ->  51a  :     0.015682 (c= -0.12522598)
    47a ->  51a  :     0.063626 (c= -0.25224130)

STATE  6:  E=   0.185883 au      5.058 eV    40796.5 cm**-1 <S**2> =   0.000000
    46a ->  49a  :     0.758035 (c= -0.87065183)
    47a ->  49a  :     0.238459 (c=  0.48832283)

STATE  7:  E=   0.189259 au      5.150 eV    41537.4 cm**-1 <S**2> =   0.000000
    46a ->  50a  :     0.749378 (c= -0.86566649)
    47a ->  50a  :     0.241028 (c=  0.49094589)

STATE  8:  E=   0.196860 au      5.357 eV    43205.7 cm**-1 <S**2> =   0.000000
    46a ->  51a  :     0.753025 (c= -0.86777041)
    47a ->  51a  :     0.224996 (c=  0.47433794)

STATE  9:  E=   0.199035 au      5.416 eV    43683.0 cm**-1 <S**2> =   0.000000
    44a ->  51a  :     0.083560 (c= -0.28906673)
    45a ->  48a  :     0.050430 (c= -0.22456596)
    45a ->  57a  :     0.016631 (c= -0.12896197)
    46a ->  49a  :     0.198023 (c= -0.44499728)
    47a ->  49a  :     0.612007 (c= -0.78230856)

STATE 10:  E=   0.200998 au      5.469 eV    44113.9 cm**-1 <S**2> =   0.000000
    44a ->  48a  :     0.043900 (c=  0.20952430)
    44a ->  49a  :     0.017656 (c=  0.13287435)
    44a ->  57a  :     0.018279 (c=  0.13519986)
    45a ->  51a  :     0.104888 (c=  0.32386430)
    46a ->  50a  :     0.195395 (c= -0.44203496)
    47a ->  50a  :     0.592195 (c= -0.76954178)


-----------------------------
TD-DFT/TDA-EXCITATION SPECTRA
-----------------------------

Center of mass = ( -0.0000, -0.0004, -0.0121)
Calculating the Dipole integrals                  ... done
Transforming integrals                            ... done
Calculating the Linear Momentum integrals         ... done
Transforming integrals                            ... done
Calculating angular momentum integrals            ... done
Transforming integrals                            ... done

-----------------------------------------------------------------------------
         ABSORPTION SPECTRUM VIA TRANSITION ELECTRIC DIPOLE MOMENTS
-----------------------------------------------------------------------------
State   Energy    Wavelength  fosc         T2        TX        TY        TZ  
        (cm-1)      (nm)                 (au**2)    (au)      (au)      (au) 
-----------------------------------------------------------------------------
   1   21066.6    474.7   0.000165755   0.00259  -0.05088   0.00135   0.00043
   2   29681.6    336.9   1.200507192  13.31536  -3.64629   0.13576   0.03871
   3   33204.4    301.2   0.069325694   0.68734  -0.54033  -0.62173  -0.09397
   4   33263.2    300.6   0.000020730   0.00021  -0.00248  -0.00272  -0.01384
   5   39065.3    256.0   0.000006162   0.00005   0.00063  -0.00162   0.00699
   6   40796.5    245.1   0.000193471   0.00156   0.01496   0.03611   0.00580
   7   41537.4    240.7   0.000059052   0.00047  -0.01720   0.01088  -0.00734
   8   43205.7    231.5   0.001894829   0.01444   0.01104   0.03336  -0.11491
   9   43683.0    228.9   0.296629350   2.23551  -1.15737  -0.93575  -0.14274
  10   44113.9    226.7   0.000070623   0.00053   0.00047   0.00372  -0.02265

-----------------------------------------------------------------------------
         ABSORPTION SPECTRUM VIA TRANSITION VELOCITY DIPOLE MOMENTS
-----------------------------------------------------------------------------
State   Energy    Wavelength   fosc        P2         PX        PY        PZ  
        (cm-1)      (nm)                 (au**2)     (au)      (au)      (au) 
-----------------------------------------------------------------------------
   1   21066.6    474.7   0.000035289   0.00001   0.00225  -0.00019  -0.00004
   2   29681.6    336.9   0.506943385   0.10284   0.31870  -0.03510  -0.00600
   3   33204.4    301.2   0.007912046   0.00180   0.04087  -0.01100  -0.00199
   4   33263.2    300.6   0.000001057   0.00000   0.00019  -0.00001  -0.00045
   5   39065.3    256.0   0.000001979   0.00000  -0.00008  -0.00005   0.00072
   6   40796.5    245.1   0.000011959   0.00000  -0.00149  -0.00105  -0.00016
   7   41537.4    240.7   0.001379850   0.00039   0.00249   0.00262  -0.01946
   8   43205.7    231.5   0.000466450   0.00014  -0.00147   0.00162  -0.01153
   9   43683.0    228.9   0.079951926   0.02387   0.15170   0.02910   0.00335
  10   44113.9    226.7   0.000000038   0.00000  -0.00006  -0.00004  -0.00008

-------------------------------------------------------------------
                             CD SPECTRUM
-------------------------------------------------------------------
State  Energy     Wavelength     R         MX        MY        MZ   
       (cm-1)       (nm)     (1e40*cgs)   (au)      (au)      (au)  
-------------------------------------------------------------------
   1   21066.6    474.7     -8.05492   0.33991   0.14886   0.01600
   2   29681.6    336.9      1.94990  -0.00133  -0.00500  -0.00133
   3   33204.4    301.2      0.22422  -0.00181   0.00057   0.00153
   4   33263.2    300.6      1.11472  -0.00142   0.02632  -0.17572
   5   39065.3    256.0      0.65281  -0.00030  -0.02883   0.19137
   6   40796.5    245.1     -1.19592  -0.01659  -0.06210  -0.00796
   7   41537.4    240.7     -0.06794  -0.00008  -0.00272   0.01579
   8   43205.7    231.5     -0.42987   0.00005  -0.00079   0.00771
   9   43683.0    228.9     -2.47147  -0.00065   0.00620   0.00130
  10   44113.9    226.7      4.99985  -0.00156   0.06993  -0.45679

-------------------------------------------------------------------
         CD SPECTRUM VIA TRANSITION VELOCITY DIPOLE MOMENTS        
-------------------------------------------------------------------
State  Energy     Wavelength     R         MX        MY        MZ   
       (cm-1)       (nm)     (1e40*cgs)   (au)      (au)      (au)  
-------------------------------------------------------------------
   1   21066.6    474.7      3.60342   0.33991   0.14886   0.01600
   2   29681.6    336.9     -0.84352  -0.00133  -0.00500  -0.00133
   3   33204.4    301.2     -0.25911  -0.00181   0.00057   0.00153
   4   33263.2    300.6      0.24643  -0.00142   0.02632  -0.17572
   5   39065.3    256.0      0.36953  -0.00030  -0.02883   0.19137
   6   40796.5    245.1      0.23087  -0.01659  -0.06210  -0.00796
   7   41537.4    240.7     -0.78366  -0.00008  -0.00272   0.01579
   8   43205.7    231.5     -0.21619   0.00005  -0.00079   0.00771
   9   43683.0    228.9      0.20560  -0.00065   0.00620   0.00130
  10   44113.9    226.7      0.07849  -0.00156   0.06993  -0.45679

Total run time:      194.086 sec

           *** ORCA-CIS/TD-DFT FINISHED WITHOUT ERROR ***

Maximum memory used throughout the entire CIS-calculation: 794.2 MB

-----------------------
CIS/TD-DFT TOTAL ENERGY
-----------------------

    E(SCF)  =   -572.469366789 Eh
    DE(CIS) =      0.095986705 Eh (Root  1)
    ----------------------------- ---------
    E(tot)  =   -572.373380085 Eh


-------------------------   --------------------
FINAL SINGLE POINT ENERGY      -572.373380084564
-------------------------   --------------------


                            ***************************************
                            *     ORCA property calculations      *
                            ***************************************

                                    ---------------------
                                    Active property flags
                                    ---------------------
   (+) Dipole Moment


------------------------------------------------------------------------------
                       ORCA ELECTRIC PROPERTIES CALCULATION
------------------------------------------------------------------------------

Dipole Moment Calculation                       ... on
Quadrupole Moment Calculation                   ... off
Polarizability Calculation                      ... off
GBWName                                         ... x3lyp-train-0_job2.gbw
Electron density                                ... x3lyp-train-0_job2.scfp
The origin for moment calculation is the CENTER OF MASS  = (-0.000041, -0.000374 -0.012119)

-------------
DIPOLE MOMENT
-------------
                                X             Y             Z
Electronic contribution:      0.00013      -0.00342       0.00491
Nuclear contribution   :      0.00031       0.00448      -0.00920
                        -----------------------------------------
Total Dipole Moment    :      0.00044       0.00106      -0.00429
                        -----------------------------------------
Magnitude (a.u.)       :      0.00444
Magnitude (Debye)      :      0.01130



--------------------
Rotational spectrum 
--------------------
 
Rotational constants in cm-1:     0.091909     0.009761     0.008824 
Rotational constants in MHz :  2755.374623   292.619583   264.546113 

 Dipole components along the rotational axes: 
x,y,z [a.u.] :     0.000457     0.000391    -0.004403 
x,y,z [Debye]:     0.001163     0.000995    -0.011192 

 

Timings for individual modules:

Sum of individual times         ...      323.585 sec (=   5.393 min)
GTO integral calculation        ...        2.509 sec (=   0.042 min)   0.8 %
SCF iterations                  ...      126.172 sec (=   2.103 min)  39.0 %
CIS module                      ...      194.904 sec (=   3.248 min)  60.2 %



                             ****ORCA TERMINATED NORMALLY****
TOTAL RUN TIME: 0 days 0 hours 52 minutes 7 seconds 880 msec
