
                                 *****************
                                 * O   R   C   A *
                                 *****************

                                            #,                                       
                                            ###                                      
                                            ####                                     
                                            #####                                    
                                            ######                                   
                                           ########,                                 
                                     ,,################,,,,,                         
                               ,,#################################,,                 
                          ,,##########################################,,             
                       ,#########################################, ''#####,          
                    ,#############################################,,   '####,        
                  ,##################################################,,,,####,       
                ,###########''''           ''''###############################       
              ,#####''   ,,,,##########,,,,          '''####'''          '####       
            ,##' ,,,,###########################,,,                        '##       
           ' ,,###''''                  '''############,,,                           
         ,,##''                                '''############,,,,        ,,,,,,###''
      ,#''                                            '''#######################'''  
     '                                                          ''''####''''         
             ,#######,   #######,   ,#######,      ##                                
            ,#'     '#,  ##    ##  ,#'     '#,    #''#        ######   ,####,        
            ##       ##  ##   ,#'  ##            #'  '#       #        #'  '#        
            ##       ##  #######   ##           ,######,      #####,   #    #        
            '#,     ,#'  ##    ##  '#,     ,#' ,#      #,         ##   #,  ,#        
             '#######'   ##     ##  '#######'  #'      '#     #####' # '####'        



                  #######################################################
                  #                        -***-                        #
                  #          Department of theory and spectroscopy      #
                  #    Directorship and core code : Frank Neese         #
                  #        Max Planck Institute fuer Kohlenforschung    #
                  #                Kaiser Wilhelm Platz 1               #
                  #                 D-45470 Muelheim/Ruhr               #
                  #                      Germany                        #
                  #                                                     #
                  #                  All rights reserved                #
                  #                        -***-                        #
                  #######################################################


                         Program Version 5.0.2 -  RELEASE  -


 With contributions from (in alphabetic order):
   Daniel Aravena         : Magnetic Suceptibility
   Michael Atanasov       : Ab Initio Ligand Field Theory (pilot matlab implementation)
   Alexander A. Auer      : GIAO ZORA, VPT2 properties, NMR spectrum
   Ute Becker             : Parallelization
   Giovanni Bistoni       : ED, misc. LED, open-shell LED, HFLD
   Martin Brehm           : Molecular dynamics
   Dmytro Bykov           : SCF Hessian
   Vijay G. Chilkuri      : MRCI spin determinant printing, contributions to CSF-ICE
   Dipayan Datta          : RHF DLPNO-CCSD density
   Achintya Kumar Dutta   : EOM-CC, STEOM-CC
   Dmitry Ganyushin       : Spin-Orbit,Spin-Spin,Magnetic field MRCI
   Miquel Garcia          : C-PCM and meta-GGA Hessian, CC/C-PCM, Gaussian charge scheme
   Yang Guo               : DLPNO-NEVPT2, F12-NEVPT2, CIM, IAO-localization
   Andreas Hansen         : Spin unrestricted coupled pair/coupled cluster methods
   Benjamin Helmich-Paris : MC-RPA, TRAH-SCF, COSX integrals
   Lee Huntington         : MR-EOM, pCC
   Robert Izsak           : Overlap fitted RIJCOSX, COSX-SCS-MP3, EOM
   Marcus Kettner         : VPT2
   Christian Kollmar      : KDIIS, OOCD, Brueckner-CCSD(T), CCSD density, CASPT2, CASPT2-K
   Simone Kossmann        : Meta GGA functionals, TD-DFT gradient, OOMP2, MP2 Hessian
   Martin Krupicka        : Initial AUTO-CI
   Lucas Lang             : DCDCAS
   Marvin Lechner         : AUTO-CI (C++ implementation), FIC-MRCC
   Dagmar Lenk            : GEPOL surface, SMD
   Dimitrios Liakos       : Extrapolation schemes; Compound Job, initial MDCI parallelization
   Dimitrios Manganas     : Further ROCIS development; embedding schemes
   Dimitrios Pantazis     : SARC Basis sets
   Anastasios Papadopoulos: AUTO-CI, single reference methods and gradients
   Taras Petrenko         : DFT Hessian,TD-DFT gradient, ASA, ECA, R-Raman, ABS, FL, XAS/XES, NRVS
   Peter Pinski           : DLPNO-MP2, DLPNO-MP2 Gradient
   Christoph Reimann      : Effective Core Potentials
   Marius Retegan         : Local ZFS, SOC
   Christoph Riplinger    : Optimizer, TS searches, QM/MM, DLPNO-CCSD(T), (RO)-DLPNO pert. Triples
   Tobias Risthaus        : Range-separated hybrids, TD-DFT gradient, RPA, STAB
   Michael Roemelt        : Original ROCIS implementation
   Masaaki Saitow         : Open-shell DLPNO-CCSD energy and density
   Barbara Sandhoefer     : DKH picture change effects
   Avijit Sen             : IP-ROCIS
   Kantharuban Sivalingam : CASSCF convergence, NEVPT2, FIC-MRCI
   Bernardo de Souza      : ESD, SOC TD-DFT
   Georgi Stoychev        : AutoAux, RI-MP2 NMR, DLPNO-MP2 response
   Willem Van den Heuvel  : Paramagnetic NMR
   Boris Wezisla          : Elementary symmetry handling
   Frank Wennmohs         : Technical directorship


 We gratefully acknowledge several colleagues who have allowed us to
 interface, adapt or use parts of their codes:
   Stefan Grimme, W. Hujo, H. Kruse, P. Pracht,  : VdW corrections, initial TS optimization,
                  C. Bannwarth, S. Ehlert          DFT functionals, gCP, sTDA/sTD-DF
   Ed Valeev, F. Pavosevic, A. Kumar             : LibInt (2-el integral package), F12 methods
   Garnet Chan, S. Sharma, J. Yang, R. Olivares  : DMRG
   Ulf Ekstrom                                   : XCFun DFT Library
   Mihaly Kallay                                 : mrcc  (arbitrary order and MRCC methods)
   Jiri Pittner, Ondrej Demel                    : Mk-CCSD
   Frank Weinhold                                : gennbo (NPA and NBO analysis)
   Christopher J. Cramer and Donald G. Truhlar   : smd solvation model
   Lars Goerigk                                  : TD-DFT with DH, B97 family of functionals
   V. Asgeirsson, H. Jonsson                     : NEB implementation
   FAccTs GmbH                                   : IRC, NEB, NEB-TS, DLPNO-Multilevel, CI-OPT
                                                   MM, QMMM, 2- and 3-layer-ONIOM, Crystal-QMMM,
                                                   LR-CPCM, SF, NACMEs, symmetry and pop. for TD-DFT,
                                                   nearIR, NL-DFT gradient (VV10), updates on ESD,
                                                   ML-optimized integration grids
   S Lehtola, MJT Oliveira, MAL Marques          : LibXC Library
   Liviu Ungur et al                             : ANISO software


 Your calculation uses the libint2 library for the computation of 2-el integrals
 For citations please refer to: http://libint.valeyev.net

 Your ORCA version has been built with support for libXC version: 5.1.0
 For citations please refer to: https://tddft.org/programs/libxc/

 This ORCA versions uses:
   CBLAS   interface :  Fast vector & matrix operations
   LAPACKE interface :  Fast linear algebra routines
   SCALAPACK package :  Parallel linear algebra routines
   Shared memory     :  Shared parallel matrices
   BLAS/LAPACK       :  OpenBLAS 0.3.15  USE64BITINT DYNAMIC_ARCH NO_AFFINITY Haswell SINGLE_THREADED
        Core in use  :  Haswell
   Copyright (c) 2011-2014, The OpenBLAS Project


Your calculation utilizes the atom-pairwise dispersion correction
with the Becke-Johnson damping scheme (D3BJ)
Cite in your paper:
S.Grimme, S.Ehrlich, L.Goerigk, J Comput Chem, (2011), 32, 1456–1465 
S.Grimme, J.Antony, S.Ehrlich and H.Krieg, J.Chem.Phys., 132, (2010), 154104 
   

Your calculation utilizes the SMD solvation module
Please cite in your paper:
A.V. Marenich, C.J. Cramer, D.G. Truhlar J. Phys. Chem. B, 113, (2009), 6378 

================================================================================

----- Orbital basis set information -----
Your calculation utilizes the basis: aug-cc-pVTZ 
    H, B-Ne : Obtained from the ccRepo (grant-hill.group.shef.ac.uk/ccrepo) Feb. 2017
              R. A. Kendall, T. H. Dunning, Jr., R. J. Harrison, J. Chem. Phys. 96, 6796 (1992)
         He : Obtained from the ccRepo (grant-hill.group.shef.ac.uk/ccrepo) Feb. 2017
              D. E. Woon, T. H. Dunning, Jr., J. Chem. Phys. 100, 2975 (1994)
  Li-Be, Na : Obtained from the ccRepo (grant-hill.group.shef.ac.uk/ccrepo) Feb. 2017
              B. P. Prascher, D. E. Woon, K. A. Peterson, T. H. Dunning, Jr., A. K. Wilson, Theor. Chem. Acc. 128, 69 (2011)
         Mg : Obtained from the Peterson Research Group Website (tyr0.chem.wsu.edu/~kipeters) Feb. 2017
              B. P. Prascher, D. E. Woon, K. A. Peterson, T. H. Dunning, Jr., A. K. Wilson, Theor. Chem. Acc. 128, 69 (2011)
      Al-Ar : Obtained from the ccRepo (grant-hill.group.shef.ac.uk/ccrepo) Feb. 2017
              D. E. Woon, T. H. Dunning, Jr., J. Chem. Phys. 98, 1358 (1993)
      Sc-Zn : Obtained from the ccRepo (grant-hill.group.shef.ac.uk/ccrepo) Feb. 2017
              N. B. Balabanov, K. A. Peterson, J. Chem. Phys. 123, 064107 (2005)
              N. B. Balabanov, K. A. Peterson, J. Chem. Phys. 125, 074110 (2006)
      Ga-Kr : Obtained from the ccRepo (grant-hill.group.shef.ac.uk/ccrepo) Feb. 2017
              A. K. Wilson, D. E. Woon, K. A. Peterson, T. H. Dunning, Jr., J. Chem. Phys. 110, 7667 (1999)
     Ag, Au : Obtained from the Peterson Research Group Website (tyr0.chem.wsu.edu/~kipeters) Feb. 2017
              K. A. Peterson, C. Puzzarini, Theor. Chem. Acc. 114, 283 (2005)

The basis set includes element-specific modifications.

Your calculation utilizes the basis: cc-pVTZ 
       H, B-Ne : Obtained from the ccRepo (grant-hill.group.shef.ac.uk/ccrepo) Feb. 2017
                 T. H. Dunning, Jr., J. Chem. Phys. 90, 1007 (1989)
            He : Obtained from the ccRepo (grant-hill.group.shef.ac.uk/ccrepo) Feb. 2017
                 D. E. Woon, T. H. Dunning, Jr., J. Chem. Phys. 100, 2975 (1994)
  Li-Be, Na-Mg : Obtained from the ccRepo (grant-hill.group.shef.ac.uk/ccrepo) Feb. 2017
                 B. P. Prascher, D. E. Woon, K. A. Peterson, T. H. Dunning, Jr., A. K. Wilson, Theor. Chem. Acc. 128, 69 (2011)
         Al-Ar : Obtained from the ccRepo (grant-hill.group.shef.ac.uk/ccrepo) Feb. 2017
                 D. E. Woon, T. H. Dunning, Jr., J. Chem. Phys. 98, 1358 (1993)
            Ca : Obtained from the Peterson Research Group Website (tyr0.chem.wsu.edu/~kipeters) Feb. 2017
                 J. Koput, K. A. Peterson, J. Phys. Chem. 106, 9595 (2002)
         Sc-Zn : Obtained from the ccRepo (grant-hill.group.shef.ac.uk/ccrepo) Feb. 2017
                 N. B. Balabanov, K. A. Peterson, J. Chem. Phys. 123, 064107 (2005)
                 N. B. Balabanov, K. A. Peterson, J. Chem. Phys. 125, 074110 (2006)
         Ga-Kr : Obtained from the ccRepo (grant-hill.group.shef.ac.uk/ccrepo) Feb. 2017
                 A. K. Wilson, D. E. Woon, K. A. Peterson, T. H. Dunning, Jr., J. Chem. Phys. 110, 7667 (1999)
             Y : Obtained from the ccRepo (grant-hill.group.shef.ac.uk/ccrepo) Feb. 2017
                 K. A. Peterson, D. Figgen, M. Dolg, H. Stoll, J. Chem. Phys. 126, 124101 (2007)
        Ag, Au : Obtained from the Peterson Research Group Website (tyr0.chem.wsu.edu/~kipeters) Feb. 2017
                 K. A. Peterson, C. Puzzarini, Theor. Chem. Acc. 114, 283 (2005)

----- AuxJ basis set information -----
Your calculation utilizes the auxiliary basis: aug-cc-pVTZ/JK 
  H, B-F, Al-Cl, Ga-Br : Obtained from the TURBOMOLE 7.0 basis set library

The basis set includes element-specific modifications.

Your calculation utilizes the auxiliary basis: cc-pVTZ/JK 
  H, B-F, Al-Cl, Ga-Br : Obtained from the TURBOMOLE 7.0 basis set library

----- AuxC basis set information -----
Your calculation utilizes the auxiliary basis: aug-cc-pVTZ/C 
  H-He, B-F, Al-Ar, Ga-Kr : Obtained from the EMSL Basis Set Exchange (bse.pnl.gov) Feb. 2017
                            F. Weigend, A. Kohn, C. Hattig, J. Chem. Phys. 116, 3175 (2002)
                   Be, Mg : Obtained from the TURBOMOLE 7.0 basis set library
                            C. Haettig, Phys. Chem. Chem. Phys. 7, 59 (2005)
                       Ne : Obtained from the EMSL Basis Set Exchange (bse.pnl.gov) Feb. 2017
                            C. Haettig, Phys. Chem. Chem. Phys. 7, 59 (2005)
                            F. Weigend, A. Kohn, C. Hattig, J. Chem. Phys. 116, 3175 (2002)
                    Sc-Zn : Obtained from the EMSL Basis Set Exchange (bse.pnl.gov) Feb. 2017
                            J. G. Hill, J. A. Platts, J. Chem. Phys. 128, 044104 (2008)

The basis set includes element-specific modifications.

Your calculation utilizes the auxiliary basis: cc-pVTZ/C 
  Obtained from the EMSL Basis Set Exchange (bse.pnl.gov) Feb. 2017
  H-He, B-F, Al-Ar, Ga-Kr : F. Weigend, A. Kohn, C. Hattig, J. Chem. Phys. 116, 3175 (2002)
             Li-Be, Na-Mg : C. Haettig, Phys. Chem. Chem. Phys. 7, 59 (2005)
                       Ne : C. Haettig, Phys. Chem. Chem. Phys. 7, 59 (2005)
                            F. Weigend, A. Kohn, C. Hattig, J. Chem. Phys. 116, 3175 (2002)
                    Sc-Zn : J. G. Hill, J. A. Platts, J. Chem. Phys. 128, 044104 (2008)

================================================================================
                                        WARNINGS
                       Please study these warnings very carefully!
================================================================================


WARNING: Geometry Optimization
  ===> : Switching off AutoStart
         For restart on a previous wavefunction, please use MOREAD

INFO   : the flag for use of the SHARK integral package has been found!



***************************************
The coordinates will be read from file: 
***************************************


Your calculation utilizes the atom-pairwise dispersion correction
with the Becke-Johnson damping scheme (D3BJ)
Cite in your paper:
S.Grimme, S.Ehrlich, L.Goerigk, J Comput Chem, (2011), 32, 1456–1465 
S.Grimme, J.Antony, S.Ehrlich and H.Krieg, J.Chem.Phys., 132, (2010), 154104 
   

Your calculation utilizes the SMD solvation module
Please cite in your paper:
A.V. Marenich, C.J. Cramer, D.G. Truhlar J. Phys. Chem. B, 113, (2009), 6378 

================================================================================

----- Orbital basis set information -----
Your calculation utilizes the basis: aug-cc-pVTZ 
    H, B-Ne : Obtained from the ccRepo (grant-hill.group.shef.ac.uk/ccrepo) Feb. 2017
              R. A. Kendall, T. H. Dunning, Jr., R. J. Harrison, J. Chem. Phys. 96, 6796 (1992)
         He : Obtained from the ccRepo (grant-hill.group.shef.ac.uk/ccrepo) Feb. 2017
              D. E. Woon, T. H. Dunning, Jr., J. Chem. Phys. 100, 2975 (1994)
  Li-Be, Na : Obtained from the ccRepo (grant-hill.group.shef.ac.uk/ccrepo) Feb. 2017
              B. P. Prascher, D. E. Woon, K. A. Peterson, T. H. Dunning, Jr., A. K. Wilson, Theor. Chem. Acc. 128, 69 (2011)
         Mg : Obtained from the Peterson Research Group Website (tyr0.chem.wsu.edu/~kipeters) Feb. 2017
              B. P. Prascher, D. E. Woon, K. A. Peterson, T. H. Dunning, Jr., A. K. Wilson, Theor. Chem. Acc. 128, 69 (2011)
      Al-Ar : Obtained from the ccRepo (grant-hill.group.shef.ac.uk/ccrepo) Feb. 2017
              D. E. Woon, T. H. Dunning, Jr., J. Chem. Phys. 98, 1358 (1993)
      Sc-Zn : Obtained from the ccRepo (grant-hill.group.shef.ac.uk/ccrepo) Feb. 2017
              N. B. Balabanov, K. A. Peterson, J. Chem. Phys. 123, 064107 (2005)
              N. B. Balabanov, K. A. Peterson, J. Chem. Phys. 125, 074110 (2006)
      Ga-Kr : Obtained from the ccRepo (grant-hill.group.shef.ac.uk/ccrepo) Feb. 2017
              A. K. Wilson, D. E. Woon, K. A. Peterson, T. H. Dunning, Jr., J. Chem. Phys. 110, 7667 (1999)
     Ag, Au : Obtained from the Peterson Research Group Website (tyr0.chem.wsu.edu/~kipeters) Feb. 2017
              K. A. Peterson, C. Puzzarini, Theor. Chem. Acc. 114, 283 (2005)

The basis set includes element-specific modifications.

Your calculation utilizes the basis: cc-pVTZ 
       H, B-Ne : Obtained from the ccRepo (grant-hill.group.shef.ac.uk/ccrepo) Feb. 2017
                 T. H. Dunning, Jr., J. Chem. Phys. 90, 1007 (1989)
            He : Obtained from the ccRepo (grant-hill.group.shef.ac.uk/ccrepo) Feb. 2017
                 D. E. Woon, T. H. Dunning, Jr., J. Chem. Phys. 100, 2975 (1994)
  Li-Be, Na-Mg : Obtained from the ccRepo (grant-hill.group.shef.ac.uk/ccrepo) Feb. 2017
                 B. P. Prascher, D. E. Woon, K. A. Peterson, T. H. Dunning, Jr., A. K. Wilson, Theor. Chem. Acc. 128, 69 (2011)
         Al-Ar : Obtained from the ccRepo (grant-hill.group.shef.ac.uk/ccrepo) Feb. 2017
                 D. E. Woon, T. H. Dunning, Jr., J. Chem. Phys. 98, 1358 (1993)
            Ca : Obtained from the Peterson Research Group Website (tyr0.chem.wsu.edu/~kipeters) Feb. 2017
                 J. Koput, K. A. Peterson, J. Phys. Chem. 106, 9595 (2002)
         Sc-Zn : Obtained from the ccRepo (grant-hill.group.shef.ac.uk/ccrepo) Feb. 2017
                 N. B. Balabanov, K. A. Peterson, J. Chem. Phys. 123, 064107 (2005)
                 N. B. Balabanov, K. A. Peterson, J. Chem. Phys. 125, 074110 (2006)
         Ga-Kr : Obtained from the ccRepo (grant-hill.group.shef.ac.uk/ccrepo) Feb. 2017
                 A. K. Wilson, D. E. Woon, K. A. Peterson, T. H. Dunning, Jr., J. Chem. Phys. 110, 7667 (1999)
             Y : Obtained from the ccRepo (grant-hill.group.shef.ac.uk/ccrepo) Feb. 2017
                 K. A. Peterson, D. Figgen, M. Dolg, H. Stoll, J. Chem. Phys. 126, 124101 (2007)
        Ag, Au : Obtained from the Peterson Research Group Website (tyr0.chem.wsu.edu/~kipeters) Feb. 2017
                 K. A. Peterson, C. Puzzarini, Theor. Chem. Acc. 114, 283 (2005)

----- AuxJ basis set information -----
Your calculation utilizes the auxiliary basis: aug-cc-pVTZ/JK 
  H, B-F, Al-Cl, Ga-Br : Obtained from the TURBOMOLE 7.0 basis set library

The basis set includes element-specific modifications.

Your calculation utilizes the auxiliary basis: cc-pVTZ/JK 
  H, B-F, Al-Cl, Ga-Br : Obtained from the TURBOMOLE 7.0 basis set library

----- AuxC basis set information -----
Your calculation utilizes the auxiliary basis: aug-cc-pVTZ/C 
  H-He, B-F, Al-Ar, Ga-Kr : Obtained from the EMSL Basis Set Exchange (bse.pnl.gov) Feb. 2017
                            F. Weigend, A. Kohn, C. Hattig, J. Chem. Phys. 116, 3175 (2002)
                   Be, Mg : Obtained from the TURBOMOLE 7.0 basis set library
                            C. Haettig, Phys. Chem. Chem. Phys. 7, 59 (2005)
                       Ne : Obtained from the EMSL Basis Set Exchange (bse.pnl.gov) Feb. 2017
                            C. Haettig, Phys. Chem. Chem. Phys. 7, 59 (2005)
                            F. Weigend, A. Kohn, C. Hattig, J. Chem. Phys. 116, 3175 (2002)
                    Sc-Zn : Obtained from the EMSL Basis Set Exchange (bse.pnl.gov) Feb. 2017
                            J. G. Hill, J. A. Platts, J. Chem. Phys. 128, 044104 (2008)

The basis set includes element-specific modifications.

Your calculation utilizes the auxiliary basis: cc-pVTZ/C 
  Obtained from the EMSL Basis Set Exchange (bse.pnl.gov) Feb. 2017
  H-He, B-F, Al-Ar, Ga-Kr : F. Weigend, A. Kohn, C. Hattig, J. Chem. Phys. 116, 3175 (2002)
             Li-Be, Na-Mg : C. Haettig, Phys. Chem. Chem. Phys. 7, 59 (2005)
                       Ne : C. Haettig, Phys. Chem. Chem. Phys. 7, 59 (2005)
                            F. Weigend, A. Kohn, C. Hattig, J. Chem. Phys. 116, 3175 (2002)
                    Sc-Zn : J. G. Hill, J. A. Platts, J. Chem. Phys. 128, 044104 (2008)

================================================================================
                                        WARNINGS
                       Please study these warnings very carefully!
================================================================================

INFO   : Checking CIS options ...
  ===> : (D) CORRECTION FOUND - SETTING MODE=3
  ===> : JK MODE FOUND - ACTIVATING RI-MP2 CODE
  ===> : MP2 AND CIS FOUND - CHECKING
WARNING: CIS(D) and MP2 runs must have the same orbital window
  ===> : adjusting orbital windows

WARNING: No MP2 level density has been requested!
         To caclulate MP2 level properties use
         %mp2 Density relaxed end
         or
         %mp2 Density unrelaxed end
         Otherwise for double-hybrid DFT only the energy is correct!

WARNING: The frozen-core approximation is turned on by default for 
         the MP2 part of double-hybrid DFT.

INFO   : the flag for use of the SHARK integral package has been found!

================================================================================
                                       INPUT FILE
================================================================================
NAME = optpbed3-b2gp-plyp-train-12.inp
|  1> ! pbe0 d3bj aug-cc-PVTZ RIJCOSX Opt
|  2> %maxcore 4000
|  3> %basis
|  4>  AuxJ "aug-cc-PVTZ/JK"
|  5>  AuxC "aug-cc-PVTZ/C"
|  6>  newGTO H "cc-PVTZ" end
|  7>  newAuxJGTO H "cc-PVTZ/JK" end
|  8>  newAuxCGTO H "cc-PVTZ/C" end
|  9> end
| 10> %cpcm
| 11>  SMD true
| 12>  SMDsolvent "ethanol"
| 13> end
| 14> %pal nprocs 4 end
| 15> * xyz 0 1
| 16> C         -5.31350       -0.67230        1.61530
| 17> C         -4.98860       -1.00350        0.15820
| 18> N         -4.31760        0.08600       -0.51830
| 19> C         -5.17770        1.01910       -1.21330
| 20> C         -5.38980        0.63450       -2.67850
| 21> C         -2.96420        0.22450       -0.49050
| 22> C         -2.30650        1.20300       -1.27640
| 23> C         -0.94740        1.34780       -1.25280
| 24> C         -0.13810        0.52510       -0.45370
| 25> C          1.27010        0.60840       -0.37510
| 26> C          1.97440       -0.24100        0.43220
| 27> C          3.41400       -0.15410        0.51230
| 28> N          4.13550        0.72660       -0.14420
| 29> C          5.42960        0.47250        0.20380
| 30> C          6.61000        1.09780       -0.19030
| 31> C          7.79230        0.61980        0.33000
| 32> C          7.82310       -0.45530        1.22370
| 33> C          6.66850       -1.09120        1.63080
| 34> C          5.47290       -0.61740        1.11380
| 35> N          4.17210       -0.98910        1.28630
| 36> C          1.27570       -1.24620        1.22220
| 37> O          1.80080       -2.05190        1.96550
| 38> O         -0.07990       -1.29110        1.12290
| 39> C         -0.78570       -0.45320        0.32350
| 40> C         -2.16100       -0.59690        0.31240
| 41> H         -5.82200       -1.51070        2.08350
| 42> H         -5.96020        0.20030        1.67140
| 43> H         -4.40520       -0.45840        2.17180
| 44> H         -5.91620       -1.21230       -0.38130
| 45> H         -4.37230       -1.90330        0.10310
| 46> H         -4.76340        2.02720       -1.14250
| 47> H         -6.14280        1.03090       -0.70010
| 48> H         -5.84560       -0.35020       -2.74970
| 49> H         -4.44230        0.60850       -3.20990
| 50> H         -6.04430        1.35450       -3.16240
| 51> H         -2.87500        1.84980       -1.92280
| 52> H         -0.47230        2.10160       -1.86230
| 53> H          1.80920        1.34470       -0.95160
| 54> H          6.58540        1.92670       -0.87970
| 55> H          8.72530        1.08330        0.04380
| 56> H          8.77620       -0.79370        1.60290
| 57> H          6.69150       -1.92120        2.32110
| 58> H          3.77900       -1.72240        1.86020
| 59> H         -2.57410       -1.35710        0.95190
| 60> *
| 61> 
| 62> 
| 63> $new_job
| 64> ! b2gp-plyp aug-cc-PVTZ RIJCOSX SP
| 65> %maxcore 4000
| 66> %basis
| 67>  AuxJ "aug-cc-PVTZ/JK"
| 68>  AuxC "aug-cc-PVTZ/C"
| 69>  newGTO H "cc-PVTZ" end
| 70>  newAuxJGTO H "cc-PVTZ/JK" end
| 71>  newAuxCGTO H "cc-PVTZ/C" end
| 72> end
| 73> %cpcm
| 74>  SMD true
| 75>  SMDsolvent "ethanol"
| 76> end
| 77> %pal nprocs 4 end
| 78> %tddft
| 79>  nroots 10
| 80>  maxdim 7
| 81> end
| 82> * xyzfile 0 1
| 83> 
| 84>                          ****END OF INPUT****
================================================================================


                 $$$$$$$$$$$$$$$$$$$$$$$$$$$$$$$$$$$$$$$$$$$$$$ 
                 $ THERE ARE  2 JOBS TO BE PROCESSED THIS RUN $
                 $$$$$$$$$$$$$$$$$$$$$$$$$$$$$$$$$$$$$$$$$$$$$$ 




                 $$$$$$$$$$$$$$$$  JOB NUMBER  1 $$$$$$$$$$$$$$


                       *****************************
                       * Geometry Optimization Run *
                       *****************************

Geometry optimization settings:
Update method            Update   .... BFGS
Choice of coordinates    CoordSys .... Z-matrix Internals
Initial Hessian          InHess   .... Almoef's Model

Convergence Tolerances:
Energy Change            TolE     ....  5.0000e-06 Eh
Max. Gradient            TolMAXG  ....  3.0000e-04 Eh/bohr
RMS Gradient             TolRMSG  ....  1.0000e-04 Eh/bohr
Max. Displacement        TolMAXD  ....  4.0000e-03 bohr
RMS Displacement         TolRMSD  ....  2.0000e-03 bohr
Strict Convergence                ....  False
------------------------------------------------------------------------------
                        ORCA OPTIMIZATION COORDINATE SETUP
------------------------------------------------------------------------------

The optimization will be done in new redundant internal coordinates
Making redundant internal coordinates   ...  (new redundants) done
Evaluating the initial hessian          ...  (Almloef) done
Evaluating the coordinates              ...  done
Calculating the B-matrix                .... done
Calculating the G-matrix                .... done
Diagonalizing the G-matrix              .... done
Small eigenvalue found = 2.297e-03
Small eigenvalue found = 6.964e-03
Small eigenvalue found = 9.161e-03
Small eigenvalue found = 1.434e-02
Small eigenvalue found = 1.580e-02
The first mode is                       ....  115
The number of degrees of freedom        ....  126

    -----------------------------------------------------------------
                    Redundant Internal Coordinates


    -----------------------------------------------------------------
         Definition                    Initial Value    Approx d2E/dq
    -----------------------------------------------------------------
      1. B(C   1,C   0)                  1.5292         0.374701   
      2. B(N   2,C   1)                  1.4474         0.453244   
      3. B(C   3,N   2)                  1.4469         0.454068   
      4. B(C   4,C   3)                  1.5296         0.374107   
      5. B(C   5,N   2)                  1.3608         0.623072   
      6. B(C   6,C   5)                  1.4169         0.565959   
      7. B(C   7,C   6)                  1.3670         0.679893   
      8. B(C   8,C   7)                  1.4037         0.594138   
      9. B(C   9,C   8)                  1.4128         0.574491   
     10. B(C  10,C   9)                  1.3672         0.679368   
     11. B(C  11,C  10)                  1.4444         0.511538   
     12. B(N  12,C  11)                  1.3142         0.739213   
     13. B(C  13,N  12)                  1.3640         0.615791   
     14. B(C  14,C  13)                  1.3927         0.618593   
     15. B(C  15,C  14)                  1.3773         0.654572   
     16. B(C  16,C  15)                  1.3984         0.605838   
     17. B(C  17,C  16)                  1.3796         0.649212   
     18. B(C  18,C  17)                  1.3861         0.633845   
     19. B(C  18,C  13)                  1.4205         0.558544   
     20. B(N  19,C  18)                  1.3638         0.616096   
     21. B(N  19,C  11)                  1.3679         0.607033   
     22. B(C  20,C  10)                  1.4570         0.488564   
     23. B(O  21,C  20)                  1.2155         1.062479   
     24. B(O  22,C  20)                  1.3600         0.624857   
     25. B(C  23,O  22)                  1.3562         0.633587   
     26. B(C  23,C   8)                  1.4073         0.586321   
     27. B(C  24,C  23)                  1.3828         0.641469   
     28. B(C  24,C   5)                  1.4016         0.598735   
     29. B(H  25,C   0)                  1.0866         0.364627   
     30. B(H  26,C   0)                  1.0876         0.363335   
     31. B(H  27,C   0)                  1.0865         0.364777   
     32. B(H  28,C   1)                  1.0932         0.355884   
     33. B(H  29,C   1)                  1.0920         0.357441   
     34. B(H  30,C   3)                  1.0922         0.357188   
     35. B(H  31,C   3)                  1.0931         0.355984   
     36. B(H  32,C   4)                  1.0874         0.363545   
     37. B(H  33,C   4)                  1.0867         0.364553   
     38. B(H  34,C   4)                  1.0867         0.364484   
     39. B(H  35,C   6)                  1.0767         0.378071   
     40. B(H  36,C   7)                  1.0795         0.374195   
     41. B(H  37,C   9)                  1.0794         0.374390   
     42. B(H  38,C  14)                  1.0784         0.375773   
     43. B(H  39,C  15)                  1.0804         0.373047   
     44. B(H  40,C  16)                  1.0801         0.373380   
     45. B(H  41,C  17)                  1.0798         0.373865   
     46. B(H  42,N  19)                  1.0108         0.431516   
     47. B(H  43,C  24)                  1.0759         0.379273   
     48. A(H  26,C   0,H  27)          108.2238         0.291840   
     49. A(C   1,C   0,H  26)          110.4425         0.324956   
     50. A(H  25,C   0,H  27)          108.8098         0.292003   
     51. A(C   1,C   0,H  27)          110.6756         0.325168   
     52. A(C   1,C   0,H  25)          110.0530         0.325146   
     53. A(H  25,C   0,H  26)          108.5767         0.291821   
     54. A(C   0,C   1,H  28)          109.3493         0.323852   
     55. A(C   0,C   1,H  29)          110.2704         0.324085   
     56. A(C   0,C   1,N   2)          112.3851         0.373457   
     57. A(N   2,C   1,H  28)          107.8471         0.332171   
     58. A(H  28,C   1,H  29)          107.2532         0.289965   
     59. A(N   2,C   1,H  29)          109.5737         0.332412   
     60. A(C   1,N   2,C   3)          115.7452         0.383655   
     61. A(C   3,N   2,C   5)          122.3719         0.405661   
     62. A(C   1,N   2,C   5)          121.8811         0.405531   
     63. A(N   2,C   3,H  30)          109.7925         0.332473   
     64. A(N   2,C   3,H  31)          107.8351         0.332287   
     65. A(C   4,C   3,H  30)          110.2895         0.323962   
     66. A(H  30,C   3,H  31)          107.1275         0.289945   
     67. A(N   2,C   3,C   4)          112.3579         0.373472   
     68. A(C   4,C   3,H  31)          109.2688         0.323783   
     69. A(C   3,C   4,H  34)          110.0880         0.325040   
     70. A(H  32,C   4,H  33)          108.1676         0.291838   
     71. A(H  33,C   4,H  34)          108.8594         0.291957   
     72. A(H  32,C   4,H  34)          108.5641         0.291830   
     73. A(C   3,C   4,H  33)          110.7041         0.325050   
     74. A(C   3,C   4,H  32)          110.3974         0.324902   
     75. A(N   2,C   5,C  24)          121.4677         0.428914   
     76. A(N   2,C   5,C   6)          121.3741         0.424610   
     77. A(C   6,C   5,C  24)          117.1578         0.424357   
     78. A(C   5,C   6,H  35)          120.1808         0.350383   
     79. A(C   5,C   6,C   7)          121.6729         0.434146   
     80. A(C   7,C   6,H  35)          118.1425         0.361462   
     81. A(C   8,C   7,H  36)          118.4844         0.352657   
     82. A(C   6,C   7,C   8)          121.3970         0.437962   
     83. A(C   6,C   7,H  36)          120.1169         0.360827   
     84. A(C   9,C   8,C  23)          117.9642         0.423903   
     85. A(C   7,C   8,C   9)          124.8735         0.424908   
     86. A(C   7,C   8,C  23)          117.1623         0.426461   
     87. A(C   8,C   9,C  10)          120.6414         0.435256   
     88. A(C  10,C   9,H  37)          118.8078         0.360812   
     89. A(C   8,C   9,H  37)          120.5508         0.350689   
     90. A(C  11,C  10,C  20)          119.3007         0.402026   
     91. A(C   9,C  10,C  20)          120.1167         0.422789   
     92. A(C   9,C  10,C  11)          120.5825         0.426278   
     93. A(C  10,C  11,N  12)          124.0397         0.429956   
     94. A(N  12,C  11,N  19)          112.7974         0.440508   
     95. A(C  10,C  11,N  19)          123.1629         0.415087   
     96. A(C  11,N  12,C  13)          105.5799         0.441649   
     97. A(N  12,C  13,C  18)          109.5911         0.422721   
     98. A(N  12,C  13,C  14)          130.4140         0.430524   
     99. A(C  14,C  13,C  18)          119.9949         0.425836   
    100. A(C  13,C  14,C  15)          117.6990         0.438150   
    101. A(C  15,C  14,H  38)          121.8590         0.358759   
    102. A(C  13,C  14,H  38)          120.4420         0.355329   
    103. A(C  16,C  15,H  39)          118.6926         0.353640   
    104. A(C  14,C  15,H  39)          119.4945         0.358315   
    105. A(C  14,C  15,C  16)          121.8129         0.436508   
    106. A(C  17,C  16,H  40)          119.3726         0.357868   
    107. A(C  15,C  16,H  40)          118.9903         0.353693   
    108. A(C  15,C  16,C  17)          121.6371         0.435862   
    109. A(C  16,C  17,C  18)          117.0189         0.439428   
    110. A(C  18,C  17,H  41)          121.3038         0.356493   
    111. A(C  16,C  17,H  41)          121.6774         0.357947   
    112. A(C  17,C  18,N  19)          133.0296         0.432450   
    113. A(C  13,C  18,N  19)          105.1333         0.422758   
    114. A(C  13,C  18,C  17)          121.8371         0.427698   
    115. A(C  11,N  19,C  18)          106.8983         0.426308   
    116. A(C  18,N  19,H  42)          129.8288         0.358115   
    117. A(C  11,N  19,H  42)          123.2722         0.357214   
    118. A(O  21,C  20,O  22)          116.9614         0.473096   
    119. A(C  10,C  20,O  22)          117.4651         0.413834   
    120. A(C  10,C  20,O  21)          125.5735         0.455304   
    121. A(C  20,O  22,C  23)          122.7785         0.430683   
    122. A(O  22,C  23,C  24)          117.2658         0.435570   
    123. A(C   8,C  23,C  24)          121.7000         0.432367   
    124. A(C   8,C  23,O  22)          121.0331         0.428590   
    125. A(C  23,C  24,H  43)          116.7776         0.358091   
    126. A(C   5,C  24,C  23)          120.9064         0.433999   
    127. A(C   5,C  24,H  43)          122.3137         0.353925   
    128. D(H  28,C   1,C   0,H  25)     59.8312         0.011207   
    129. D(H  28,C   1,C   0,H  27)   -179.8630         0.011207   
    130. D(H  29,C   1,C   0,H  26)   -177.7327         0.011207   
    131. D(N   2,C   1,C   0,H  27)    -60.1319         0.011207   
    132. D(H  29,C   1,C   0,H  25)    -57.8659         0.011207   
    133. D(N   2,C   1,C   0,H  26)     59.6955         0.011207   
    134. D(H  29,C   1,C   0,H  27)     62.4399         0.011207   
    135. D(H  28,C   1,C   0,H  26)    -60.0356         0.011207   
    136. D(N   2,C   1,C   0,H  25)    179.5623         0.011207   
    137. D(C   5,N   2,C   1,H  28)   -151.6861         0.017528   
    138. D(C   3,N   2,C   1,H  28)     28.7912         0.017528   
    139. D(C   5,N   2,C   1,C   0)     87.7130         0.017528   
    140. D(C   5,N   2,C   1,H  29)    -35.2511         0.017528   
    141. D(C   3,N   2,C   1,C   0)    -91.8097         0.017528   
    142. D(C   3,N   2,C   1,H  29)    145.2263         0.017528   
    143. D(H  31,C   3,N   2,C   1)     28.4852         0.017593   
    144. D(H  31,C   3,N   2,C   5)   -151.0349         0.017593   
    145. D(H  30,C   3,N   2,C   5)    -34.6386         0.017593   
    146. D(C   4,C   3,N   2,C   1)    -91.9905         0.017593   
    147. D(H  30,C   3,N   2,C   1)    144.8814         0.017593   
    148. D(C   4,C   3,N   2,C   5)     88.4894         0.017593   
    149. D(H  33,C   4,C   3,H  31)   -179.5838         0.011174   
    150. D(H  33,C   4,C   3,N   2)    -59.9394         0.011174   
    151. D(H  34,C   4,C   3,H  31)     60.0073         0.011174   
    152. D(H  33,C   4,C   3,H  30)     62.9093         0.011174   
    153. D(H  34,C   4,C   3,N   2)    179.6516         0.011174   
    154. D(H  32,C   4,C   3,H  31)    -59.8374         0.011174   
    155. D(H  34,C   4,C   3,H  30)    -57.4997         0.011174   
    156. D(H  32,C   4,C   3,H  30)   -177.3444         0.011174   
    157. D(H  32,C   4,C   3,N   2)     59.8069         0.011174   
    158. D(C   6,C   5,N   2,C   1)    172.8108         0.031460   
    159. D(C  24,C   5,N   2,C   3)    172.5294         0.031460   
    160. D(C  24,C   5,N   2,C   1)     -6.9616         0.031460   
    161. D(C   6,C   5,N   2,C   3)     -7.6983         0.031460   
    162. D(H  35,C   6,C   5,C  24)    179.0332         0.021959   
    163. D(H  35,C   6,C   5,N   2)     -0.7485         0.021959   
    164. D(C   7,C   6,C   5,C  24)     -0.2440         0.021959   
    165. D(C   7,C   6,C   5,N   2)    179.9742         0.021959   
    166. D(H  36,C   7,C   6,H  35)      0.6823         0.032402   
    167. D(H  36,C   7,C   6,C   5)    179.9737         0.032402   
    168. D(C   8,C   7,C   6,H  35)   -178.8363         0.032402   
    169. D(C   8,C   7,C   6,C   5)      0.4552         0.032402   
    170. D(C  23,C   8,C   7,H  36)   -179.6321         0.024310   
    171. D(C  23,C   8,C   7,C   6)     -0.1059         0.024310   
    172. D(C   9,C   8,C   7,H  36)      0.3437         0.024310   
    173. D(C   9,C   8,C   7,C   6)    179.8699         0.024310   
    174. D(H  37,C   9,C   8,C  23)   -179.8646         0.022655   
    175. D(H  37,C   9,C   8,C   7)      0.1597         0.022655   
    176. D(C  10,C   9,C   8,C  23)      0.1109         0.022655   
    177. D(C  10,C   9,C   8,C   7)   -179.8648         0.022655   
    178. D(C  20,C  10,C   9,H  37)   -179.9643         0.032348   
    179. D(C  11,C  10,C   9,H  37)      0.0193         0.032348   
    180. D(C  11,C  10,C   9,C   8)   -179.9565         0.032348   
    181. D(C  20,C  10,C   9,C   8)      0.0598         0.032348   
    182. D(N  19,C  11,C  10,C  20)      0.9924         0.017834   
    183. D(N  19,C  11,C  10,C   9)   -178.9914         0.017834   
    184. D(N  12,C  11,C  10,C  20)   -179.0505         0.017834   
    185. D(N  12,C  11,C  10,C   9)      0.9657         0.017834   
    186. D(C  13,N  12,C  11,N  19)     -0.0235         0.041373   
    187. D(C  13,N  12,C  11,C  10)   -179.9845         0.041373   
    188. D(C  18,C  13,N  12,C  11)      0.0417         0.027794   
    189. D(C  14,C  13,N  12,C  11)   -179.9385         0.027794   
    190. D(C  15,C  14,C  13,N  12)   -179.9374         0.026471   
    191. D(H  38,C  14,C  13,C  18)   -179.9151         0.026471   
    192. D(H  38,C  14,C  13,N  12)      0.0633         0.026471   
    193. D(C  15,C  14,C  13,C  18)      0.0841         0.026471   
    194. D(H  39,C  15,C  14,H  38)     -0.0089         0.029862   
    195. D(H  39,C  15,C  14,C  13)    179.9919         0.029862   
    196. D(C  16,C  15,C  14,H  38)   -179.9871         0.029862   
    197. D(C  16,C  15,C  14,C  13)      0.0137         0.029862   
    198. D(H  40,C  16,C  15,H  39)     -0.0417         0.025330   
    199. D(H  40,C  16,C  15,C  14)    179.9367         0.025330   
    200. D(C  17,C  16,C  15,H  39)    179.9509         0.025330   
    201. D(C  17,C  16,C  15,C  14)     -0.0708         0.025330   
    202. D(H  41,C  17,C  16,H  40)      0.0129         0.029341   
    203. D(H  41,C  17,C  16,C  15)   -179.9796         0.029341   
    204. D(C  18,C  17,C  16,H  40)   -179.9831         0.029341   
    205. D(C  18,C  17,C  16,C  15)      0.0244         0.029341   
    206. D(N  19,C  18,C  17,H  41)     -0.0140         0.027878   
    207. D(N  19,C  18,C  17,C  16)    179.9820         0.027878   
    208. D(C  13,C  18,C  17,H  41)   -179.9205         0.027878   
    209. D(C  13,C  18,C  17,C  16)      0.0755         0.027878   
    210. D(N  19,C  18,C  13,C  14)    179.9381         0.021365   
    211. D(N  19,C  18,C  13,N  12)     -0.0445         0.021365   
    212. D(C  17,C  18,C  13,C  14)     -0.1327         0.021365   
    213. D(C  17,C  18,C  13,N  12)    179.8847         0.021365   
    214. D(H  42,N  19,C  18,C  17)      0.4151         0.030706   
    215. D(H  42,N  19,C  18,C  13)   -179.6672         0.030706   
    216. D(C  11,N  19,C  18,C  17)   -179.8886         0.030706   
    217. D(C  11,N  19,C  18,C  13)      0.0291         0.030706   
    218. D(H  42,N  19,C  11,N  12)    179.7166         0.029743   
    219. D(H  42,N  19,C  11,C  10)     -0.3220         0.029743   
    220. D(C  18,N  19,C  11,N  12)     -0.0044         0.029743   
    221. D(C  18,N  19,C  11,C  10)    179.9570         0.029743   
    222. D(O  22,C  20,C  10,C  11)    179.7162         0.016253   
    223. D(O  22,C  20,C  10,C   9)     -0.2999         0.016253   
    224. D(O  21,C  20,C  10,C  11)     -0.2918         0.016253   
    225. D(O  21,C  20,C  10,C   9)    179.6921         0.016253   
    226. D(C  23,O  22,C  20,O  21)   -179.6132         0.028679   
    227. D(C  23,O  22,C  20,C  10)      0.3794         0.028679   
    228. D(C  24,C  23,O  22,C  20)   -179.8442         0.029548   
    229. D(C   8,C  23,O  22,C  20)     -0.2157         0.029548   
    230. D(C  24,C  23,C   8,C   9)    179.5699         0.023643   
    231. D(C  24,C  23,C   8,C   7)     -0.4525         0.023643   
    232. D(O  22,C  23,C   8,C   9)     -0.0420         0.023643   
    233. D(O  22,C  23,C   8,C   7)    179.9356         0.023643   
    234. D(H  43,C  24,C  23,O  22)      0.8329         0.028598   
    235. D(H  43,C  24,C  23,C   8)   -178.7930         0.028598   
    236. D(C   5,C  24,C  23,O  22)   -179.7055         0.028598   
    237. D(C   5,C  24,C  23,C   8)      0.6687         0.028598   
    238. D(H  43,C  24,C   5,C   6)    179.1207         0.024707   
    239. D(H  43,C  24,C   5,N   2)     -1.0978         0.024707   
    240. D(C  23,C  24,C   5,C   6)     -0.3106         0.024707   
    241. D(C  23,C  24,C   5,N   2)    179.4709         0.024707   
    -----------------------------------------------------------------

Number of atoms                         .... 44
Number of degrees of freedom            .... 241

         *************************************************************
         *                GEOMETRY OPTIMIZATION CYCLE   1            *
         *************************************************************
---------------------------------
CARTESIAN COORDINATES (ANGSTROEM)
---------------------------------
  C     -5.313500   -0.672300    1.615300
  C     -4.988600   -1.003500    0.158200
  N     -4.317600    0.086000   -0.518300
  C     -5.177700    1.019100   -1.213300
  C     -5.389800    0.634500   -2.678500
  C     -2.964200    0.224500   -0.490500
  C     -2.306500    1.203000   -1.276400
  C     -0.947400    1.347800   -1.252800
  C     -0.138100    0.525100   -0.453700
  C      1.270100    0.608400   -0.375100
  C      1.974400   -0.241000    0.432200
  C      3.414000   -0.154100    0.512300
  N      4.135500    0.726600   -0.144200
  C      5.429600    0.472500    0.203800
  C      6.610000    1.097800   -0.190300
  C      7.792300    0.619800    0.330000
  C      7.823100   -0.455300    1.223700
  C      6.668500   -1.091200    1.630800
  C      5.472900   -0.617400    1.113800
  N      4.172100   -0.989100    1.286300
  C      1.275700   -1.246200    1.222200
  O      1.800800   -2.051900    1.965500
  O     -0.079900   -1.291100    1.122900
  C     -0.785700   -0.453200    0.323500
  C     -2.161000   -0.596900    0.312400
  H     -5.822000   -1.510700    2.083500
  H     -5.960200    0.200300    1.671400
  H     -4.405200   -0.458400    2.171800
  H     -5.916200   -1.212300   -0.381300
  H     -4.372300   -1.903300    0.103100
  H     -4.763400    2.027200   -1.142500
  H     -6.142800    1.030900   -0.700100
  H     -5.845600   -0.350200   -2.749700
  H     -4.442300    0.608500   -3.209900
  H     -6.044300    1.354500   -3.162400
  H     -2.875000    1.849800   -1.922800
  H     -0.472300    2.101600   -1.862300
  H      1.809200    1.344700   -0.951600
  H      6.585400    1.926700   -0.879700
  H      8.725300    1.083300    0.043800
  H      8.776200   -0.793700    1.602900
  H      6.691500   -1.921200    2.321100
  H      3.779000   -1.722400    1.860200
  H     -2.574100   -1.357100    0.951900

----------------------------
CARTESIAN COORDINATES (A.U.)
----------------------------
  NO LB      ZA    FRAG     MASS         X           Y           Z
   0 C     6.0000    0    12.011  -10.041060   -1.270463    3.052475
   1 C     6.0000    0    12.011   -9.427088   -1.896340    0.298955
   2 N     7.0000    0    14.007   -8.159082    0.162516   -0.979445
   3 C     6.0000    0    12.011   -9.784435    1.925820   -2.292805
   4 C     6.0000    0    12.011  -10.185246    1.199031   -5.061631
   5 C     6.0000    0    12.011   -5.601526    0.424244   -0.926911
   6 C     6.0000    0    12.011   -4.358653    2.273341   -2.412046
   7 C     6.0000    0    12.011   -1.790327    2.546973   -2.367449
   8 C     6.0000    0    12.011   -0.260971    0.992295   -0.857369
   9 C     6.0000    0    12.011    2.400141    1.149709   -0.708836
  10 C     6.0000    0    12.011    3.731075   -0.455424    0.816740
  11 C     6.0000    0    12.011    6.451525   -0.291207    0.968107
  12 N     7.0000    0    14.007    7.814962    1.373075   -0.272499
  13 C     6.0000    0    12.011   10.260457    0.892896    0.385126
  14 C     6.0000    0    12.011   12.491090    2.074541   -0.359615
  15 C     6.0000    0    12.011   14.725313    1.171252    0.623610
  16 C     6.0000    0    12.011   14.783517   -0.860392    2.312458
  17 C     6.0000    0    12.011   12.601639   -2.062069    3.081765
  18 C     6.0000    0    12.011   10.342282   -1.166717    2.104777
  19 N     7.0000    0    14.007    7.884126   -1.869128    2.430755
  20 C     6.0000    0    12.011    2.410724   -2.354977    2.309623
  21 O     8.0000    0    15.999    3.403019   -3.877529    3.714257
  22 O     8.0000    0    15.999   -0.150989   -2.439825    2.121973
  23 C     6.0000    0    12.011   -1.484758   -0.856424    0.611326
  24 C     6.0000    0    12.011   -4.083698   -1.127978    0.590350
  25 H     1.0000    0     1.008  -11.001986   -2.854809    3.937244
  26 H     1.0000    0     1.008  -11.263146    0.378512    3.158488
  27 H     1.0000    0     1.008   -8.324622   -0.866250    4.104107
  28 H     1.0000    0     1.008  -11.179998   -2.290915   -0.720553
  29 H     1.0000    0     1.008   -8.262450   -3.596716    0.194831
  30 H     1.0000    0     1.008   -9.001521    3.830853   -2.159012
  31 H     1.0000    0     1.008  -11.608210    1.948119   -1.322997
  32 H     1.0000    0     1.008  -11.046583   -0.661782   -5.196180
  33 H     1.0000    0     1.008   -8.394730    1.149898   -6.065832
  34 H     1.0000    0     1.008  -11.422072    2.559634   -5.976070
  35 H     1.0000    0     1.008   -5.432963    3.495615   -3.633565
  36 H     1.0000    0     1.008   -0.892518    3.971448   -3.519237
  37 H     1.0000    0     1.008    3.418893    2.541115   -1.798263
  38 H     1.0000    0     1.008   12.444602    3.640935   -1.662392
  39 H     1.0000    0     1.008   16.488427    2.047140    0.082770
  40 H     1.0000    0     1.008   16.584614   -1.499876    3.029042
  41 H     1.0000    0     1.008   12.645102   -3.630542    4.386243
  42 H     1.0000    0     1.008    7.141275   -3.254864    3.515269
  43 H     1.0000    0     1.008   -4.864344   -2.564547    1.798830

--------------------------------
INTERNAL COORDINATES (ANGSTROEM)
--------------------------------
 C      0   0   0     0.000000000000     0.00000000     0.00000000
 C      1   0   0     1.529180780680     0.00000000     0.00000000
 N      2   1   0     1.447378146857   112.38514701     0.00000000
 C      3   2   1     1.446883761745   115.74522600   268.19033833
 C      4   3   2     1.529612568594   112.35791530   268.00948290
 C      3   2   1     1.360752236816   121.88112009    87.71300520
 C      6   3   2     1.416922845465   121.37412457   172.81076213
 C      7   6   3     1.366995541324   121.67286046   179.97423717
 C      8   7   6     1.403696046158   121.39699359     0.45517956
 C      9   8   7     1.412849634604   124.87352742   179.86992620
 C     10   9   8     1.367205961075   120.64139193   180.13516594
 C     11  10   9     1.444443069145   120.58251162   180.04345941
 N     12  11  10     1.314224862799   124.03968622     0.96568948
 C     13  12  11     1.363952205908   105.57994908   180.01549055
 C     14  13  12     1.392716432013   130.41395970   180.06152695
 C     15  14  13     1.377326896565   117.69903127   180.06257327
 C     16  15  14     1.398387764535   121.81289386     0.00000000
 C     17  16  15     1.379565286603   121.63708288   359.92923603
 C     18  17  16     1.386086144509   117.01885625     0.02436354
 N     19  18  17     1.363817355807   133.02961434   179.98202865
 C     11  10   9     1.456951862623   120.11674178     0.05978411
 O     21  11  10     1.215474142053   125.57354664   179.69205424
 O     21  11  10     1.359973477683   117.46506352   359.70011408
 C     23  21  11     1.356197039519   122.77852679     0.37944465
 C     24  23  21     1.382831511790   117.26583569   180.15577002
 H      1   2   3     1.086599305172   110.05302619   179.56226362
 H      1   2   3     1.087565565840   110.44251660    59.69547989
 H      1   2   3     1.086487160532   110.67558154   299.86813073
 H      2   1   3     1.093206041879   109.34934680   240.26889451
 H      2   1   3     1.092017280083   110.27040063   122.57179404
 H      4   3   2     1.092210025590   109.79247914   144.88144427
 H      4   3   2     1.093129219260   107.83508076    28.48521678
 H      5   4   3     1.087408465113   110.39736837    59.80692440
 H      5   4   3     1.086654595536   110.70406077   300.06055332
 H      5   4   3     1.086705783550   110.08800699   179.65163180
 H      7   6   3     1.076742982331   120.18083193   359.25148360
 H      8   7   6     1.079548377795   120.11687907   179.97372197
 H     10   9   8     1.079406665720   120.55083549     0.15969914
 H     15  14  13     1.078402860716   120.44198339     0.06332086
 H     16  15  14     1.080384973054   119.49449098   179.99188435
 H     17  16  15     1.080142032327   118.99028895   179.93666610
 H     18  17  16     1.079788446873   121.67737401   180.02035622
 H     20  19  18     1.010751062329   129.82876164     0.41514681
 H     25  24  23     1.075879128899   116.77762445     0.83285595

---------------------------
INTERNAL COORDINATES (A.U.)
---------------------------
 C      0   0   0     0.000000000000     0.00000000     0.00000000
 C      1   0   0     2.889732884740     0.00000000     0.00000000
 N      2   1   0     2.735148309783   112.38514701     0.00000000
 C      3   2   1     2.734214057315   115.74522600   268.19033833
 C      4   3   2     2.890548845646   112.35791530   268.00948290
 C      3   2   1     2.571449063703   121.88112009    87.71300520
 C      6   3   2     2.677596130825   121.37412457   172.81076213
 C      7   6   3     2.583247199394   121.67286046   179.97423717
 C      8   7   6     2.652601102507   121.39699359     0.45517956
 C      9   8   7     2.669898877812   124.87352742   179.86992620
 C     10   9   8     2.583644835097   120.64139193   180.13516594
 C     11  10   9     2.729601816724   120.58251162   180.04345941
 N     12  11  10     2.483525069081   124.03968622     0.96568948
 C     13  12  11     2.577496128923   105.57994908   180.01549055
 C     14  13  12     2.631852638717   130.41395970   180.06152695
 C     15  14  13     2.602770631391   117.69903127   180.06257327
 C     16  15  14     2.642569903997   121.81289386     0.00000000
 C     17  16  15     2.607000575544   121.63708288   359.92923603
 C     18  17  16     2.619323211145   117.01885625     0.02436354
 N     19  18  17     2.577241299164   133.02961434   179.98202865
 C     11  10   9     2.753240010664   120.11674178     0.05978411
 O     21  11  10     2.296913251343   125.57354664   179.69205424
 O     21  11  10     2.569977422217   117.46506352   359.70011408
 C     23  21  11     2.562840988326   122.77852679     0.37944465
 C     24  23  21     2.613172846640   117.26583569   180.15577002
 H      1   2   3     2.053375104084   110.05302619   179.56226362
 H      1   2   3     2.055201072120   110.44251660    59.69547989
 H      1   2   3     2.053163181426   110.67558154   299.86813073
 H      2   1   3     2.065860027099   109.34934680   240.26889451
 H      2   1   3     2.063613592867   110.27040063   122.57179404
 H      4   3   2     2.063977829089   109.79247914   144.88144427
 H      4   3   2     2.065714853389   107.83508076    28.48521678
 H      5   4   3     2.054904194772   110.39736837    59.80692440
 H      5   4   3     2.053479587730   110.70406077   300.06055332
 H      5   4   3     2.053576319057   110.08800699   179.65163180
 H      7   6   3     2.034749353228   120.18083193   359.25148360
 H      8   7   6     2.040050782352   120.11687907   179.97372197
 H     10   9   8     2.039782985339   120.55083549     0.15969914
 H     15  14  13     2.037886068790   120.44198339     0.06332086
 H     16  15  14     2.041631718275   119.49449098   179.99188435
 H     17  16  15     2.041172626836   118.99028895   179.93666610
 H     18  17  16     2.040504447162   121.67737401   180.02035622
 H     20  19  18     1.910042697373   129.82876164     0.41514681
 H     25  24  23     2.033116906820   116.77762445     0.83285595

---------------------
BASIS SET INFORMATION
---------------------
There are 4 groups of distinct atoms

 Group   1 Type C   : 19s6p3d2f contracted to 5s4p3d2f pattern {88111/3111/111/11}
 Group   2 Type N   : 19s6p3d2f contracted to 5s4p3d2f pattern {88111/3111/111/11}
 Group   3 Type O   : 19s6p3d2f contracted to 5s4p3d2f pattern {88111/3111/111/11}
 Group   4 Type H   : 5s2p1d contracted to 3s2p1d pattern {311/11/1}

Atom   0C    basis set group =>   1
Atom   1C    basis set group =>   1
Atom   2N    basis set group =>   2
Atom   3C    basis set group =>   1
Atom   4C    basis set group =>   1
Atom   5C    basis set group =>   1
Atom   6C    basis set group =>   1
Atom   7C    basis set group =>   1
Atom   8C    basis set group =>   1
Atom   9C    basis set group =>   1
Atom  10C    basis set group =>   1
Atom  11C    basis set group =>   1
Atom  12N    basis set group =>   2
Atom  13C    basis set group =>   1
Atom  14C    basis set group =>   1
Atom  15C    basis set group =>   1
Atom  16C    basis set group =>   1
Atom  17C    basis set group =>   1
Atom  18C    basis set group =>   1
Atom  19N    basis set group =>   2
Atom  20C    basis set group =>   1
Atom  21O    basis set group =>   3
Atom  22O    basis set group =>   3
Atom  23C    basis set group =>   1
Atom  24C    basis set group =>   1
Atom  25H    basis set group =>   4
Atom  26H    basis set group =>   4
Atom  27H    basis set group =>   4
Atom  28H    basis set group =>   4
Atom  29H    basis set group =>   4
Atom  30H    basis set group =>   4
Atom  31H    basis set group =>   4
Atom  32H    basis set group =>   4
Atom  33H    basis set group =>   4
Atom  34H    basis set group =>   4
Atom  35H    basis set group =>   4
Atom  36H    basis set group =>   4
Atom  37H    basis set group =>   4
Atom  38H    basis set group =>   4
Atom  39H    basis set group =>   4
Atom  40H    basis set group =>   4
Atom  41H    basis set group =>   4
Atom  42H    basis set group =>   4
Atom  43H    basis set group =>   4
---------------------------------
AUXILIARY/J BASIS SET INFORMATION
---------------------------------
There are 4 groups of distinct atoms

 Group   1 Type C   : 10s7p5d2f1g contracted to 10s7p5d2f1g pattern {1111111111/1111111/11111/11/1}
 Group   2 Type N   : 10s7p5d2f1g contracted to 10s7p5d2f1g pattern {1111111111/1111111/11111/11/1}
 Group   3 Type O   : 10s7p5d2f1g contracted to 10s7p5d2f1g pattern {1111111111/1111111/11111/11/1}
 Group   4 Type H   : 4s3p2d1f contracted to 4s3p2d1f pattern {1111/111/11/1}

Atom   0C    basis set group =>   1
Atom   1C    basis set group =>   1
Atom   2N    basis set group =>   2
Atom   3C    basis set group =>   1
Atom   4C    basis set group =>   1
Atom   5C    basis set group =>   1
Atom   6C    basis set group =>   1
Atom   7C    basis set group =>   1
Atom   8C    basis set group =>   1
Atom   9C    basis set group =>   1
Atom  10C    basis set group =>   1
Atom  11C    basis set group =>   1
Atom  12N    basis set group =>   2
Atom  13C    basis set group =>   1
Atom  14C    basis set group =>   1
Atom  15C    basis set group =>   1
Atom  16C    basis set group =>   1
Atom  17C    basis set group =>   1
Atom  18C    basis set group =>   1
Atom  19N    basis set group =>   2
Atom  20C    basis set group =>   1
Atom  21O    basis set group =>   3
Atom  22O    basis set group =>   3
Atom  23C    basis set group =>   1
Atom  24C    basis set group =>   1
Atom  25H    basis set group =>   4
Atom  26H    basis set group =>   4
Atom  27H    basis set group =>   4
Atom  28H    basis set group =>   4
Atom  29H    basis set group =>   4
Atom  30H    basis set group =>   4
Atom  31H    basis set group =>   4
Atom  32H    basis set group =>   4
Atom  33H    basis set group =>   4
Atom  34H    basis set group =>   4
Atom  35H    basis set group =>   4
Atom  36H    basis set group =>   4
Atom  37H    basis set group =>   4
Atom  38H    basis set group =>   4
Atom  39H    basis set group =>   4
Atom  40H    basis set group =>   4
Atom  41H    basis set group =>   4
Atom  42H    basis set group =>   4
Atom  43H    basis set group =>   4
---------------------------------
AUXILIARY/C BASIS SET INFORMATION
---------------------------------
There are 4 groups of distinct atoms

 Group   1 Type C   : 9s7p6d4f2g contracted to 9s7p6d4f2g pattern {111111111/1111111/111111/1111/11}
 Group   2 Type N   : 9s7p6d4f2g contracted to 9s7p6d4f2g pattern {111111111/1111111/111111/1111/11}
 Group   3 Type O   : 9s7p6d4f2g contracted to 9s7p6d4f2g pattern {111111111/1111111/111111/1111/11}
 Group   4 Type H   : 4s3p2d1f contracted to 4s3p2d1f pattern {1111/111/11/1}

Atom   0C    basis set group =>   1
Atom   1C    basis set group =>   1
Atom   2N    basis set group =>   2
Atom   3C    basis set group =>   1
Atom   4C    basis set group =>   1
Atom   5C    basis set group =>   1
Atom   6C    basis set group =>   1
Atom   7C    basis set group =>   1
Atom   8C    basis set group =>   1
Atom   9C    basis set group =>   1
Atom  10C    basis set group =>   1
Atom  11C    basis set group =>   1
Atom  12N    basis set group =>   2
Atom  13C    basis set group =>   1
Atom  14C    basis set group =>   1
Atom  15C    basis set group =>   1
Atom  16C    basis set group =>   1
Atom  17C    basis set group =>   1
Atom  18C    basis set group =>   1
Atom  19N    basis set group =>   2
Atom  20C    basis set group =>   1
Atom  21O    basis set group =>   3
Atom  22O    basis set group =>   3
Atom  23C    basis set group =>   1
Atom  24C    basis set group =>   1
Atom  25H    basis set group =>   4
Atom  26H    basis set group =>   4
Atom  27H    basis set group =>   4
Atom  28H    basis set group =>   4
Atom  29H    basis set group =>   4
Atom  30H    basis set group =>   4
Atom  31H    basis set group =>   4
Atom  32H    basis set group =>   4
Atom  33H    basis set group =>   4
Atom  34H    basis set group =>   4
Atom  35H    basis set group =>   4
Atom  36H    basis set group =>   4
Atom  37H    basis set group =>   4
Atom  38H    basis set group =>   4
Atom  39H    basis set group =>   4
Atom  40H    basis set group =>   4
Atom  41H    basis set group =>   4
Atom  42H    basis set group =>   4
Atom  43H    basis set group =>   4


           ************************************************************
           *        Program running with 4 parallel MPI-processes     *
           *              working on a common directory               *
           ************************************************************
------------------------------------------------------------------------------
                           ORCA GTO INTEGRAL CALCULATION
                           -- RI-GTO INTEGRALS CHOSEN --
------------------------------------------------------------------------------
------------------------------------------------------------------------------
                   ___                                                        
                  /   \      - P O W E R E D   B Y -                         
                 /     \                                                     
                 |  |  |   _    _      __       _____    __    __             
                 |  |  |  | |  | |    /  \     |  _  \  |  |  /  |          
                  \  \/   | |  | |   /    \    | | | |  |  | /  /          
                 / \  \   | |__| |  /  /\  \   | |_| |  |  |/  /          
                |  |  |   |  __  | /  /__\  \  |    /   |      \           
                |  |  |   | |  | | |   __   |  |    \   |  |\   \          
                \     /   | |  | | |  |  |  |  | |\  \  |  | \   \       
                 \___/    |_|  |_| |__|  |__|  |_| \__\ |__|  \__/        
                                                                              
                      - O R C A' S   B I G   F R I E N D -                    
                                      &                                       
                       - I N T E G R A L  F E E D E R -                       
                                                                              
 v1 FN, 2020, v2 2021                                                         
------------------------------------------------------------------------------


Reading SHARK input file optpbed3-b2gp-plyp-train-12.SHARKINP.tmp ... ok
----------------------
SHARK INTEGRAL PACKAGE
----------------------

Number of atoms                             ...     44
Number of basis functions                   ...   1566
Number of shells                            ...    614
Maximum angular momentum                    ...      3
Integral batch strategy                     ... SHARK/LIBINT Hybrid
RI-J (if used) integral strategy            ... SPLIT-RIJ (Revised 2003 algorithm where possible)
Printlevel                                  ...      1
Contraction scheme used                     ... PARTIAL GENERAL contraction
Coulomb Range Separation                    ... NOT USED
Exchange Range Separation                   ... NOT USED
Finite Nucleus Model                        ... NOT USED
Auxiliary Coulomb fitting basis             ... AVAILABLE
   # of basis functions in Aux-J            ...   2545
   # of shells in Aux-J                     ...    815
   Maximum angular momentum in Aux-J        ...      4
Auxiliary J/K fitting basis                 ... NOT available
Auxiliary Correlation fitting basis         ... AVAILABLE
   # of basis functions in Aux-C            ...   3220
   # of shells in Aux-C                     ...    890
   Maximum angular momentum in Aux-C        ...      4
Auxiliary 'external' fitting basis          ... NOT available
Integral threshold                          ...     2.500000e-11
Primitive cut-off                           ...     2.500000e-12
Primitive pair pre-selection threshold      ...     2.500000e-12

Calculating pre-screening integrals         ... done (  0.4 sec) Dimension = 614
Calculating pre-screening integrals (ORCA)  ... done (  0.8 sec) Dimension = 464
Organizing shell pair data                  ... done (  2.2 sec)
Shell pair information
Total number of shell pairs                 ...    188805
Shell pairs after pre-screening             ...    105438
Total number of primitive shell pairs       ...    246885
Primitive shell pairs kept                  ...    123383
          la=0 lb=0:  23890 shell pairs
          la=1 lb=0:  27567 shell pairs
          la=1 lb=1:   6882 shell pairs
          la=2 lb=0:  17422 shell pairs
          la=2 lb=1:   8867 shell pairs
          la=2 lb=2:   2946 shell pairs
          la=3 lb=0:   9188 shell pairs
          la=3 lb=1:   4712 shell pairs
          la=3 lb=2:   3101 shell pairs
          la=3 lb=3:    863 shell pairs

Calculating one electron integrals          ... done (  0.4 sec)
Calculating RI/J V-Matrix + Cholesky decomp.... done (  0.6 sec)
Calculating RI/C V-Matrix + Cholesky decomp.... done (  0.8 sec)
Calculating Nuclear repulsion               ... done (  0.0 sec) ENN=   2009.678569578428 Eh

SHARK setup successfully completed in   7.4 seconds

Maximum memory used throughout the entire GTOINT-calculation: 175.6 MB


           ************************************************************
           *        Program running with 4 parallel MPI-processes     *
           *              working on a common directory               *
           ************************************************************
-------------------------------------------------------------------------------
                                 ORCA SCF
-------------------------------------------------------------------------------

------------
SCF SETTINGS
------------
Hamiltonian:
 Density Functional     Method          .... DFT(GTOs)
 Exchange Functional    Exchange        .... PBE
   PBE kappa parameter   XKappa         ....  0.804000
   PBE mue parameter    XMuePBE         ....  0.219520
 Correlation Functional Correlation     .... PBE
   PBE beta parameter  CBetaPBE         ....  0.066725
 LDA part of GGA corr.  LDAOpt          .... PW91-LDA
 Gradients option       PostSCFGGA      .... off
 Hybrid DFT is turned on
   Fraction HF Exchange ScalHFX         ....  0.250000
   Scaling of DF-GGA-X  ScalDFX         ....  0.750000
   Scaling of DF-GGA-C  ScalDFC         ....  1.000000
   Scaling of DF-LDA-C  ScalLDAC        ....  1.000000
   Perturbative correction              ....  0.000000
   Density functional embedding theory  .... OFF
   NL short-range parameter             ....  6.900000
 RI-approximation to the Coulomb term is turned on
   Number of AuxJ basis functions       .... 2545
   RIJ-COSX (HFX calculated with COS-X)).... on


General Settings:
 Integral files         IntName         .... optpbed3-b2gp-plyp-train-12
 Hartree-Fock type      HFTyp           .... RHF
 Total Charge           Charge          ....    0
 Multiplicity           Mult            ....    1
 Number of Electrons    NEL             ....  176
 Basis Dimension        Dim             .... 1416
 Nuclear Repulsion      ENuc            ....   2009.6785695784 Eh

Convergence Acceleration:
 DIIS                   CNVDIIS         .... on
   Start iteration      DIISMaxIt       ....    12
   Startup error        DIISStart       ....  0.200000
   # of expansion vecs  DIISMaxEq       ....     5
   Bias factor          DIISBfac        ....   1.050
   Max. coefficient     DIISMaxC        ....  10.000
 Trust-Rad. Augm. Hess. CNVTRAH         .... auto
   Auto Start mean grad. ratio tolernc. ....  1.125000
   Auto Start start iteration           ....    20
   Auto Start num. interpolation iter.  ....    10
   Max. Number of Micro iterations      ....    16
   Max. Number of Macro iterations      .... Maxiter - #DIIS iter
   Number of Davidson start vectors     ....     2
   Converg. threshold I  (grad. norm)   ....   1.000e-05
   Converg. threshold II (energy diff.) ....   1.000e-08
   Grad. Scal. Fac. for Micro threshold ....   0.100
   Minimum threshold for Micro iter.    ....   0.010
   NR start threshold (gradient norm)   ....   0.001
   Initial trust radius                 ....   0.400
   Minimum AH scaling param. (alpha)    ....   1.000
   Maximum AH scaling param. (alpha)    .... 1000.000
   Orbital update algorithm             .... Taylor
   White noise on init. David. guess    .... on
   Maximum white noise                  ....   0.010
   Quad. conv. algorithm                .... NR
 SOSCF                  CNVSOSCF        .... on
   Start iteration      SOSCFMaxIt      ....   150
   Startup grad/error   SOSCFStart      ....  0.003300
 Level Shifting         CNVShift        .... on
   Level shift para.    LevelShift      ....    0.2500
   Turn off err/grad.   ShiftErr        ....    0.0010
 Zerner damping         CNVZerner       .... off
 Static damping         CNVDamp         .... on
   Fraction old density DampFac         ....    0.7000
   Max. Damping (<1)    DampMax         ....    0.9800
   Min. Damping (>=0)   DampMin         ....    0.0000
   Turn off err/grad.   DampErr         ....    0.1000
 Fernandez-Rico         CNVRico         .... off

SCF Procedure:
 Maximum # iterations   MaxIter         ....   125
 SCF integral mode      SCFMode         .... Direct
   Integral package                     .... SHARK and LIBINT hybrid scheme
 Reset frequency        DirectResetFreq ....    20
 Integral Threshold     Thresh          ....  2.500e-11 Eh
 Primitive CutOff       TCut            ....  2.500e-12 Eh

Convergence Tolerance:
 Convergence Check Mode ConvCheckMode   .... Total+1el-Energy
 Convergence forced     ConvForced      .... 0
 Energy Change          TolE            ....  1.000e-08 Eh
 1-El. energy change                    ....  1.000e-05 Eh
 Orbital Gradient       TolG            ....  1.000e-05
 Orbital Rotation angle TolX            ....  1.000e-05
 DIIS Error             TolErr          ....  5.000e-07


Diagonalization of the overlap matrix:
Smallest eigenvalue                        ... 1.212e-07
Time for diagonalization                   ...    0.492 sec
Threshold for overlap eigenvalues          ... 1.000e-08
Number of eigenvalues below threshold      ... 0
Time for construction of square roots      ...    0.339 sec
Total time needed                          ...    0.843 sec

Time for model grid setup =    1.057 sec

------------------------------
INITIAL GUESS: MODEL POTENTIAL
------------------------------
Loading Hartree-Fock densities                     ... done
Calculating cut-offs                               ... done
Initializing the effective Hamiltonian             ... done
Setting up the integral package (SHARK)            ... done
Starting the Coulomb interaction                   ... done (   4.8 sec)
Reading the grid                                   ... done
Mapping shells                                     ... done
Starting the XC term evaluation                    ... done (   3.0 sec)
  promolecular density results
     # of electrons  =    175.988518205
     EX              =   -144.039366828
     EC              =     -5.951329390
     EX+EC           =   -149.990696218
Transforming the Hamiltonian                       ... done (   0.3 sec)
Diagonalizing the Hamiltonian                      ... done (   0.5 sec)
Back transforming the eigenvectors                 ... done (   0.1 sec)
Now organizing SCF variables                       ... done
                      ------------------
                      INITIAL GUESS DONE (   9.7 sec)
                      ------------------
-------------------
DFT GRID GENERATION
-------------------

General Integration Accuracy     IntAcc      ... 4.388
Radial Grid Type                 RadialGrid  ... OptM3 with GC (2021)
Angular Grid (max. ang.)         AngularGrid ... 4 (Lebedev-302)
Angular grid pruning method      GridPruning ... 4 (adaptive)
Weight generation scheme         WeightScheme... Becke
Basis function cutoff            BFCut       ... 1.0000e-11
Integration weight cutoff        WCut        ... 1.0000e-14
Angular grids for H and He will be reduced by one unit
Partially contracted basis set               ... off
Rotationally invariant grid construction     ... off

Total number of grid points                  ...   215839
Total number of batches                      ...     3396
Average number of points per batch           ...       63
Average number of grid points per atom       ...     4905
Time for grid setup =    3.315 sec

--------------------
COSX GRID GENERATION
--------------------

GRIDX 1
-------
General Integration Accuracy     IntAcc      ... 3.816
Radial Grid Type                 RadialGrid  ... OptM3 with GC (2021)
Angular Grid (max. ang.)         AngularGrid ... 1 (Lebedev-50)
Angular grid pruning method      GridPruning ... 4 (adaptive)
Weight generation scheme         WeightScheme... Becke
Basis function cutoff            BFCut       ... 1.0000e-11
Integration weight cutoff        WCut        ... 1.0000e-14
Angular grids for H and He will be reduced by one unit
Partially contracted basis set               ... on
Rotationally invariant grid construction     ... off

Total number of grid points                  ...    27389
Total number of batches                      ...      448
Average number of points per batch           ...       61
Average number of grid points per atom       ...      622
UseSFitting                                  ... on

GRIDX 2
-------
General Integration Accuracy     IntAcc      ... 4.020
Radial Grid Type                 RadialGrid  ... OptM3 with GC (2021)
Angular Grid (max. ang.)         AngularGrid ... 2 (Lebedev-110)
Angular grid pruning method      GridPruning ... 4 (adaptive)
Weight generation scheme         WeightScheme... Becke
Basis function cutoff            BFCut       ... 1.0000e-11
Integration weight cutoff        WCut        ... 1.0000e-14
Angular grids for H and He will be reduced by one unit
Partially contracted basis set               ... on
Rotationally invariant grid construction     ... off

Total number of grid points                  ...    64462
Total number of batches                      ...     1031
Average number of points per batch           ...       62
Average number of grid points per atom       ...     1465
UseSFitting                                  ... on

GRIDX 3
-------
General Integration Accuracy     IntAcc      ... 4.338
Radial Grid Type                 RadialGrid  ... OptM3 with GC (2021)
Angular Grid (max. ang.)         AngularGrid ... 3 (Lebedev-194)
Angular grid pruning method      GridPruning ... 4 (adaptive)
Weight generation scheme         WeightScheme... Becke
Basis function cutoff            BFCut       ... 1.0000e-11
Integration weight cutoff        WCut        ... 1.0000e-14
Angular grids for H and He will be reduced by one unit
Partially contracted basis set               ... on
Rotationally invariant grid construction     ... off

Total number of grid points                  ...   139029
Total number of batches                      ...     2197
Average number of points per batch           ...       63
Average number of grid points per atom       ...     3160
UseSFitting                                  ... on

Time for X-Grid setup             =    9.153 sec


--------------------
CPCM SOLVATION MODEL
--------------------
CPCM parameters:
  Epsilon                                         ...      24.8520
  Refrac                                          ...       1.3611
  Rsolv                                           ...       1.3000
  Surface type                                    ... GAUSSIAN VDW
  Epsilon function type                           ...         CPCM
Solvent:                                     ... ETHANOL
SMD-CDS solvent descriptors:
  Soln                                       ...    1.3611
  Soln25                                     ...    1.3593
  Sola                                       ...    0.3700
  Solb                                       ...    0.4800
  Solg                                       ...   31.6200
  Solc                                       ...    0.0000
  Solh                                       ...    0.0000
Radii:
 Radius for C  used is    3.4960 Bohr (=   1.8500 Ang.)
 Radius for N  used is    3.5716 Bohr (=   1.8900 Ang.)
 Radius for O  used is    3.0765 Bohr (=   1.6280 Ang.)
 Radius for H  used is    2.2677 Bohr (=   1.2000 Ang.)
Calculating surface                               ...        done! (  0.0s)
GEPOL surface points                              ...         2494
GEPOL Volume                                      ...    2250.5754
GEPOL Surface-area                                ...    1252.7328
Calculating surface distance matrix               ...        done! (  0.1s)
Performing Cholesky decomposition & store         ...        done! (  0.3s)
Overall time for CPCM initialization              ...                 0.4s
 re-compute Schwartz prescreening matrix in partically contracted basis (1) ...done (   0.311 sec)
--------------
SCF ITERATIONS
--------------
ITER       Energy         Delta-E        Max-DP      RMS-DP      [F,P]     Damp
               ***  Starting incremental Fock matrix formation  ***
  0  -1086.8978586687   0.000000000000 0.33996343  0.00186857  0.2806852 0.7000
  1  -1087.1521571998  -0.254298531097 0.30521251  0.00166805  0.1114864 0.7000
                               ***Turning on DIIS***
  2  -1087.2621426981  -0.109985498300 0.78178780  0.00397821  0.0418163 0.0000
  3  -1087.4300268640  -0.167884165910 0.07372299  0.00055219  0.0534292 0.0000
  4  -1087.4661515938  -0.036124729844 0.03697113  0.00022845  0.0153728 0.0000
  5  -1087.4678669945  -0.001715400699 0.05278116  0.00018499  0.0120392 0.0000
                      *** Initiating the SOSCF procedure ***
                           *** Shutting down DIIS ***
                      *** Re-Reading the Fockian *** 
                      *** Removing any level shift *** 
ITER      Energy       Delta-E        Grad      Rot      Max-DP    RMS-DP
  6  -1087.46807974  -0.0002127424  0.000381  0.000381  0.024761  0.000121
               *** Restarting incremental Fock matrix formation ***
  7  -1087.46808110  -0.0000013647  0.000193  0.000924  0.201837  0.001216
  8  -1087.46808376  -0.0000026608  0.000129  0.000656  0.118157  0.000474
  9  -1087.46808654  -0.0000027732  0.000052  0.000217  0.071072  0.000410
 10  -1087.46808722  -0.0000006833  0.000031  0.000085  0.060260  0.000205
[...]
   Forming the XC and CPCM contribution:
   Time for densities:            0.389
   Time for XC-Integration:      24.104
   Time for LR-CPCM terms:       18.423
   Time for Sigma-Completion:     0.294
   Time for building 10 sigma-vectors
   Data Preparation Phase         ...     0.01 sec
   Transformed RI Coulomb         ...     1.50 sec
   Transformed RI-exchange        ...  1062.70 sec
   (ab|v) reading and digestion   ...  1012.36 sec
   Final sigma-completion         ...     0.01 sec
   Done building sigma-vectors             Size of expansion space: 70
   Lowest Energy          :     0.131131808800
   Maximum Energy change  :     0.000018969615 (vector 9)
   Maximum residual norm  :     0.000003945804
   Rebuilding the expansion space

                       ****Iteration   11****
              <<< Entering MO-section for Build Sigma(Double) >>>
   Forming the XC and CPCM contribution:
   Time for densities:            0.791
   Time for XC-Integration:      45.963
   Time for LR-CPCM terms:       29.120
   Time for Sigma-Completion:     0.629
   Time for building 20 sigma-vectors
   Data Preparation Phase         ...     0.02 sec
   Transformed RI Coulomb         ...     2.50 sec
   Transformed RI-exchange        ...  2165.61 sec
   (ab|v) reading and digestion   ...  2051.04 sec
   Final sigma-completion         ...     0.02 sec
   Done building sigma-vectors             Size of expansion space: 20
   Lowest Energy          :     0.131131808841
   Maximum Energy change  :     0.000007039350 (vector 9)
   Maximum residual norm  :     0.000001333019

                       ****Iteration   12****
              <<< Entering MO-section for Build Sigma(Double) >>>
   Forming the XC and CPCM contribution:
   Time for densities:            0.388
   Time for XC-Integration:      25.322
   Time for LR-CPCM terms:       18.605
   Time for Sigma-Completion:     0.298
   Time for building 10 sigma-vectors
   Data Preparation Phase         ...     0.01 sec
   Transformed RI Coulomb         ...     1.52 sec
   Transformed RI-exchange        ...  1066.52 sec
   (ab|v) reading and digestion   ...  1014.03 sec
   Final sigma-completion         ...     0.01 sec
   Done building sigma-vectors             Size of expansion space: 30
   Lowest Energy          :     0.131131808841
   Maximum Energy change  :     0.000004418186 (vector 9)
   Maximum residual norm  :     0.000000944679

      *** CONVERGENCE OF RESIDUAL NORM REACHED ***

Storing the converged CI vectors               ... optpbed3-b2gp-plyp-train-12_job2.cis1

                 *** DAVIDSON DONE ***

Total time for solving the CIS problem: 16523.026sec

------------------
DOUBLES CORRECTION (Double precision version)
------------------

The (D) correction will be scaled by  0.3600
Doing v(i,a)*T(i,a) terms (RI)                    ... ok
Doing u(i,j,a,b) terms for state   0              ... ok
Doing u(i,j,a,b) terms for state   1              ... ok
Doing u(i,j,a,b) terms for state   2              ... ok
Doing u(i,j,a,b) terms for state   3              ... ok
Doing u(i,j,a,b) terms for state   4              ... ok
Doing u(i,j,a,b) terms for state   5              ... ok
Doing u(i,j,a,b) terms for state   6              ... ok
Doing u(i,j,a,b) terms for state   7              ... ok
Doing u(i,j,a,b) terms for state   8              ... ok
Doing u(i,j,a,b) terms for state   9              ... ok

Contributions to the (D) correction(s) (in eV)

STATE  Final   Init.   Total   v(ext)   v(int)  v(3)    u
       omega   omega     (D)                             
-----------------------------------------------------------------------------
   0   3.026   3.568  -0.542   0.801   1.294  -0.077  -2.560
   1   4.256   4.861  -0.605   0.699   1.227  -0.053  -2.479
   2   4.360   5.025  -0.666   0.728   1.218  -0.062  -2.550
   3   4.885   5.175  -0.290   0.048   1.292  -0.002  -1.628
   4   4.498   5.251  -0.753   0.721   1.198  -0.045  -2.628
   5   4.699   5.367  -0.668   0.628   1.245  -0.053  -2.488
   6   5.214   5.455  -0.241   0.043   1.282  -0.002  -1.564
   7   4.706   5.548  -0.842   0.617   1.210  -0.064  -2.605
   8   5.275   5.693  -0.417   0.118   1.279  -0.008  -1.805
   9   5.211   5.758  -0.547   0.275   1.254  -0.024  -2.052

(D)-timings
 V(i,a)*T(i,a) terms           ...  1604.282 sec
 U(i,j,a,b) 3-internal         ...    34.095 sec
 U(i,j,a,b) 3-external         ...   733.829 sec
 U(i,j,a,b) pair terms         ...   853.964 sec
 Total measured time           ...  7463.064 sec

 Time for (ab|v) I/O           ...   134.222 sec


------------------------------------
TD-DFT/TDA EXCITED STATES (SINGLETS)
------------------------------------

the weight of the individual excitations are printed if larger than 1.0e-02

STATE  1:  E=   0.111197 au      3.026 eV    24404.9 cm**-1 <S**2> =   0.000000
    83a ->  88a  :     0.014476 (c=  0.12031719)
    87a ->  88a  :     0.929089 (c=  0.96389240)

STATE  2:  E=   0.156414 au      4.256 eV    34329.0 cm**-1 <S**2> =   0.000000
    84a ->  88a  :     0.266279 (c= -0.51602235)
    85a ->  88a  :     0.019268 (c=  0.13880805)
    86a ->  88a  :     0.099273 (c= -0.31507614)
    86a ->  96a  :     0.014666 (c= -0.12110306)
    86a -> 101a  :     0.016828 (c=  0.12972191)
    87a ->  94a  :     0.128277 (c=  0.35815724)
    87a ->  95a  :     0.074646 (c=  0.27321391)
    87a ->  96a  :     0.141152 (c=  0.37570225)
    87a ->  97a  :     0.052200 (c= -0.22847211)
    87a -> 101a  :     0.035284 (c= -0.18784051)
    87a -> 103a  :     0.020452 (c=  0.14301134)

STATE  3:  E=   0.160213 au      4.360 eV    35162.7 cm**-1 <S**2> =   0.000000
    84a ->  88a  :     0.115549 (c=  0.33992541)
    85a ->  88a  :     0.029507 (c=  0.17177525)
    86a ->  88a  :     0.436877 (c= -0.66096668)
    86a ->  94a  :     0.029870 (c=  0.17282843)
    87a ->  93a  :     0.013679 (c= -0.11695795)
    87a ->  94a  :     0.065427 (c=  0.25578691)
    87a ->  96a  :     0.038469 (c= -0.19613417)
    87a -> 101a  :     0.087922 (c=  0.29651641)

STATE  4:  E=   0.179519 au      4.885 eV    39400.0 cm**-1 <S**2> =   0.000000
    86a ->  89a  :     0.010710 (c= -0.10348953)
    86a ->  90a  :     0.013038 (c= -0.11418195)
    87a ->  89a  :     0.502882 (c=  0.70914178)
    87a ->  90a  :     0.153782 (c= -0.39214992)
    87a ->  92a  :     0.150190 (c=  0.38754411)
    87a ->  99a  :     0.032182 (c=  0.17939204)
    87a -> 100a  :     0.044093 (c= -0.20998364)

STATE  5:  E=   0.165288 au      4.498 eV    36276.4 cm**-1 <S**2> =   0.000000
    85a ->  88a  :     0.362046 (c=  0.60170231)
    85a ->  94a  :     0.094622 (c= -0.30760662)
    85a ->  95a  :     0.021984 (c= -0.14827086)
    85a -> 101a  :     0.010627 (c= -0.10308635)
    86a ->  88a  :     0.220368 (c=  0.46943344)
    86a -> 106a  :     0.021043 (c=  0.14506331)
    86a -> 107a  :     0.019104 (c=  0.13821632)
    87a ->  93a  :     0.013348 (c= -0.11553473)
    87a ->  94a  :     0.050862 (c=  0.22552673)
    87a -> 106a  :     0.018966 (c=  0.13771582)
    87a -> 107a  :     0.010206 (c=  0.10102498)
    87a -> 109a  :     0.012076 (c= -0.10988998)

STATE  6:  E=   0.172680 au      4.699 eV    37898.8 cm**-1 <S**2> =   0.000000
    84a ->  88a  :     0.024427 (c=  0.15629107)
    85a ->  88a  :     0.217913 (c=  0.46681194)
    86a ->  88a  :     0.097834 (c= -0.31278388)
    86a ->  94a  :     0.062090 (c= -0.24917958)
    86a ->  95a  :     0.018599 (c= -0.13637706)
    87a ->  91a  :     0.022284 (c=  0.14927666)
    87a ->  93a  :     0.076231 (c=  0.27609906)
    87a ->  94a  :     0.176139 (c= -0.41968959)
    87a ->  95a  :     0.033717 (c= -0.18362309)
    87a ->  96a  :     0.030726 (c=  0.17528692)
    87a -> 101a  :     0.072126 (c= -0.26856280)
    87a -> 103a  :     0.011288 (c= -0.10624464)
    87a -> 106a  :     0.018493 (c=  0.13598845)
    87a -> 107a  :     0.011700 (c=  0.10816726)

STATE  7:  E=   0.191621 au      5.214 eV    42056.0 cm**-1 <S**2> =   0.000000
    85a ->  90a  :     0.010570 (c=  0.10281058)
    86a ->  89a  :     0.047588 (c=  0.21814577)
    86a ->  90a  :     0.075253 (c= -0.27432312)
    87a ->  89a  :     0.107327 (c= -0.32760746)
    87a ->  90a  :     0.501658 (c= -0.70827802)
    87a ->  92a  :     0.012536 (c= -0.11196274)
    87a ->  96a  :     0.042671 (c=  0.20656975)
    87a ->  97a  :     0.066820 (c=  0.25849609)
    87a -> 102a  :     0.036984 (c=  0.19231153)

STATE  8:  E=   0.172929 au      4.706 eV    37953.5 cm**-1 <S**2> =   0.000000
    84a ->  88a  :     0.416267 (c=  0.64518789)
    85a ->  88a  :     0.024260 (c= -0.15575602)
    86a ->  88a  :     0.050151 (c=  0.22394514)
    86a ->  93a  :     0.011355 (c= -0.10655852)
    86a ->  96a  :     0.010367 (c= -0.10182007)
    86a -> 101a  :     0.014159 (c=  0.11898990)
    87a ->  91a  :     0.031033 (c=  0.17616072)
    87a ->  93a  :     0.059395 (c=  0.24371125)
    87a ->  94a  :     0.063938 (c=  0.25285923)
    87a ->  95a  :     0.060347 (c=  0.24565655)
    87a ->  96a  :     0.095678 (c=  0.30931846)
    87a ->  97a  :     0.043005 (c= -0.20737715)
    87a -> 101a  :     0.019567 (c= -0.13988140)
    87a -> 109a  :     0.011644 (c=  0.10790753)

STATE  9:  E=   0.193862 au      5.275 eV    42547.9 cm**-1 <S**2> =   0.000000
    84a ->  88a  :     0.032552 (c= -0.18042198)
    86a ->  95a  :     0.020523 (c=  0.14325783)
    87a ->  89a  :     0.018131 (c= -0.13464956)
    87a ->  91a  :     0.704826 (c=  0.83953900)
    87a ->  92a  :     0.011786 (c=  0.10856387)
    87a ->  93a  :     0.038033 (c= -0.19502073)
    87a ->  98a  :     0.029554 (c=  0.17191319)
    87a -> 103a  :     0.016316 (c= -0.12773275)
    87a -> 104a  :     0.012580 (c= -0.11216052)

STATE 10:  E=   0.191486 au      5.211 eV    42026.3 cm**-1 <S**2> =   0.000000
    84a ->  88a  :     0.089519 (c= -0.29919764)
    85a ->  88a  :     0.011282 (c= -0.10621620)
    86a ->  93a  :     0.018463 (c= -0.13587833)
    86a ->  94a  :     0.030341 (c=  0.17418797)
    87a ->  91a  :     0.010083 (c= -0.10041581)
    87a ->  92a  :     0.024125 (c=  0.15532332)
    87a ->  93a  :     0.429659 (c=  0.65548403)
    87a ->  96a  :     0.016176 (c= -0.12718440)
    87a -> 100a  :     0.014818 (c=  0.12173103)
    87a -> 101a  :     0.039978 (c=  0.19994502)
    87a -> 103a  :     0.109469 (c= -0.33086038)
    87a -> 104a  :     0.029741 (c= -0.17245500)
    87a -> 105a  :     0.012508 (c= -0.11183857)


-----------------------------
TD-DFT/TDA-EXCITATION SPECTRA
-----------------------------

Center of mass = (  1.5364, -0.2143,  0.3906)
Calculating the Dipole integrals                  ... done
Transforming integrals                            ... done
Calculating the Linear Momentum integrals         ... done
Transforming integrals                            ... done
Calculating angular momentum integrals            ... done
Transforming integrals                            ... done

-----------------------------------------------------------------------------
         ABSORPTION SPECTRUM VIA TRANSITION ELECTRIC DIPOLE MOMENTS
-----------------------------------------------------------------------------
State   Energy    Wavelength  fosc         T2        TX        TY        TZ  
        (cm-1)      (nm)                 (au**2)    (au)      (au)      (au) 
-----------------------------------------------------------------------------
   1   24404.9    409.8   1.375764201  18.55845   4.20934  -0.43859   0.80469
   2   34329.0    291.3   0.062904325   0.60325  -0.52337  -0.47980   0.31484
   3   35162.7    284.4   0.035850416   0.33565  -0.55629  -0.11578   0.11306
   4   39400.0    253.8   0.004904474   0.04098  -0.02257   0.18473   0.07965
   5   36276.4    275.7   0.085515967   0.77607  -0.78349   0.26149  -0.30632
   6   37898.8    263.9   0.182732338   1.58732   1.13271   0.46275  -0.30027
   7   42056.0    237.8   0.011068139   0.08664  -0.03833  -0.28450  -0.06507
   8   37953.5    263.5   0.118125262   1.02463  -0.47263  -0.72193   0.52921
   9   42547.9    235.0   0.010462200   0.08095   0.15454   0.21202  -0.11006
  10   42026.3    237.9   0.024807384   0.19433   0.23071   0.31121  -0.21035

-----------------------------------------------------------------------------
         ABSORPTION SPECTRUM VIA TRANSITION VELOCITY DIPOLE MOMENTS
-----------------------------------------------------------------------------
State   Energy    Wavelength   fosc        P2         PX        PY        PZ  
        (cm-1)      (nm)                 (au**2)     (au)      (au)      (au) 
-----------------------------------------------------------------------------
   1   24404.9    409.8   1.092284959   0.18219  -0.42326   0.01091  -0.05407
   2   34329.0    291.3   0.035787415   0.00840   0.08871   0.02233  -0.00540
   3   35162.7    284.4   0.018099563   0.00435   0.06525   0.00700  -0.00654
   4   39400.0    253.8   0.001623014   0.00044   0.00441  -0.02009  -0.00376
   5   36276.4    275.7   0.055700531   0.01381   0.11717   0.00834   0.00329
   6   37898.8    263.9   0.129765445   0.03361  -0.18258  -0.01662  -0.00139
   7   42056.0    237.8   0.008239246   0.00237   0.00342   0.04491   0.01843
   8   37953.5    263.5   0.007783684   0.00202   0.04448   0.00605   0.00191
   9   42547.9    235.0   0.001551221   0.00045  -0.02114  -0.00203   0.00047
  10   42026.3    237.9   0.002140942   0.00061  -0.02334  -0.00772  -0.00325

-------------------------------------------------------------------
                             CD SPECTRUM
-------------------------------------------------------------------
State  Energy     Wavelength     R         MX        MY        MZ   
       (cm-1)       (nm)     (1e40*cgs)   (au)      (au)      (au)  
-------------------------------------------------------------------
   1   24404.9    409.8     39.65572   0.05616  -0.24086  -0.32051
   2   34329.0    291.3     11.40673   0.05150  -0.36916  -0.40012
   3   35162.7    284.4     -4.03844   0.01118   0.00260  -0.01809
   4   39400.0    253.8     -3.58796   0.01857   0.02926  -0.15816
   5   36276.4    275.7      3.37642  -0.01723   0.05774   0.06997
   6   37898.8    263.9     17.02002   0.03342  -0.03413  -0.04677
   7   42056.0    237.8    -19.51358   0.02854   0.12578   0.06935
   8   37953.5    263.5      7.62205   0.02085   0.01673   0.07199
   9   42547.9    235.0     -1.53722   0.01184  -0.00750   0.03181
  10   42026.3    237.9     10.14964   0.06689   0.03841   0.02784

-------------------------------------------------------------------
         CD SPECTRUM VIA TRANSITION VELOCITY DIPOLE MOMENTS        
-------------------------------------------------------------------
State  Energy     Wavelength     R         MX        MY        MZ   
       (cm-1)       (nm)     (1e40*cgs)   (au)      (au)      (au)  
-------------------------------------------------------------------
   1   24404.9    409.8    -38.43946   0.05616  -0.24086  -0.32051
   2   34329.0    291.3     -4.56132   0.05150  -0.36916  -0.40012
   3   35162.7    284.4      2.54822   0.01118   0.00260  -0.01809
   4   39400.0    253.8      0.23347   0.01857   0.02926  -0.15816
   5   36276.4    275.7     -3.72563  -0.01723   0.05774   0.06997
   6   37898.8    263.9    -14.93280   0.03342  -0.03413  -0.04677
   7   42056.0    237.8     17.28251   0.02854   0.12578   0.06935
   8   37953.5    263.5      3.18029   0.02085   0.01673   0.07199
   9   42547.9    235.0     -0.53568   0.01184  -0.00750   0.03181
  10   42026.3    237.9     -4.79655   0.06689   0.03841   0.02784

Total run time:    23997.553 sec

           *** ORCA-CIS/TD-DFT FINISHED WITHOUT ERROR ***

Maximum memory used throughout the entire CIS-calculation: 2663.8 MB

-----------------------
CIS/TD-DFT TOTAL ENERGY
-----------------------

    E(SCF)  =  -1085.856753343 Eh
    DE(CIS) =      0.111197109 Eh (Root  1)
    ----------------------------- ---------
    E(tot)  =  -1085.745556234 Eh



-------------------------------------------------------------------------------
                          DFT DISPERSION CORRECTION                            
                                                                               
                              DFTD3 V3.1  Rev 1                                
                          USING Becke-Johnson damping                          
-------------------------------------------------------------------------------
The B2GP-PLYP functional is recognized
Active option DFTDOPT                   ...         4   

molecular C6(AA) [au] = 21984.290858 


            DFT-D V3
 parameters
 s6 scaling factor         :     0.5600 
 a1 scaling factor         :     0.0000 
 s8 scaling factor         :     0.2597 
 a2 scaling factor         :     6.3332 
 ad hoc parameters k1-k3   :    16.0000     1.3333    -4.0000 

 Edisp/kcal,au: -20.768244310310  -0.033096300460 
 E6   /kcal   : -16.275816625 
 E8   /kcal   :  -4.492427686 
 % E8         :  21.631234776 

-------------------------   ----------------
Dispersion correction           -0.033096300
-------------------------   ----------------


-------------------------   --------------------
FINAL SINGLE POINT ENERGY     -1085.778652534103
-------------------------   --------------------


                            ***************************************
                            *     ORCA property calculations      *
                            ***************************************


  WARNING: The energy has been calculated at the MP2 level but the densities
           used in the property calculations are still SCF densities
           MP2 response densities have not been calculated 
           use %mp2 Density relaxed end
           or  %mp2 Density unrelaxed end

                                    ---------------------
                                    Active property flags
                                    ---------------------
   (+) Dipole Moment


------------------------------------------------------------------------------
                       ORCA ELECTRIC PROPERTIES CALCULATION
------------------------------------------------------------------------------

Dipole Moment Calculation                       ... on
Quadrupole Moment Calculation                   ... off
Polarizability Calculation                      ... off
GBWName                                         ... optpbed3-b2gp-plyp-train-12_job2.gbw
Electron density                                ... optpbed3-b2gp-plyp-train-12_job2.scfp
The origin for moment calculation is the CENTER OF MASS  = ( 1.536406, -0.214332  0.390625)

-------------
DIPOLE MOMENT
-------------
                                X             Y             Z
Electronic contribution:     31.58153      -3.23322       6.46650
Nuclear contribution   :    -36.33351       4.04667      -7.63426
                        -----------------------------------------
Total Dipole Moment    :     -4.75198       0.81345      -1.16776
                        -----------------------------------------
Magnitude (a.u.)       :      4.96052
Magnitude (Debye)      :     12.60863



--------------------
Rotational spectrum 
--------------------
 
Rotational constants in cm-1:     0.026480     0.002666     0.002454 
Rotational constants in MHz :   793.857086    79.927084    73.557605 

 Dipole components along the rotational axes: 
x,y,z [a.u.] :    -4.879444    -0.883616    -0.130300 
x,y,z [Debye]:   -12.402561    -2.245974    -0.331197 

 

Timings for individual modules:

Sum of individual times         ...    28430.535 sec (= 473.842 min)
GTO integral calculation        ...        7.464 sec (=   0.124 min)   0.0 %
SCF iterations                  ...     1814.774 sec (=  30.246 min)   6.4 %
MP2 module                      ...     2609.193 sec (=  43.487 min)   9.2 %
CIS module                      ...    23999.105 sec (= 399.985 min)  84.4 %



                             ****ORCA TERMINATED NORMALLY****
TOTAL RUN TIME: 0 days 12 hours 18 minutes 48 seconds 960 msec
