
                                 *****************
                                 * O   R   C   A *
                                 *****************

                                            #,                                       
                                            ###                                      
                                            ####                                     
                                            #####                                    
                                            ######                                   
                                           ########,                                 
                                     ,,################,,,,,                         
                               ,,#################################,,                 
                          ,,##########################################,,             
                       ,#########################################, ''#####,          
                    ,#############################################,,   '####,        
                  ,##################################################,,,,####,       
                ,###########''''           ''''###############################       
              ,#####''   ,,,,##########,,,,          '''####'''          '####       
            ,##' ,,,,###########################,,,                        '##       
           ' ,,###''''                  '''############,,,                           
         ,,##''                                '''############,,,,        ,,,,,,###''
      ,#''                                            '''#######################'''  
     '                                                          ''''####''''         
             ,#######,   #######,   ,#######,      ##                                
            ,#'     '#,  ##    ##  ,#'     '#,    #''#        ######   ,####,        
            ##       ##  ##   ,#'  ##            #'  '#       #        #'  '#        
            ##       ##  #######   ##           ,######,      #####,   #    #        
            '#,     ,#'  ##    ##  '#,     ,#' ,#      #,         ##   #,  ,#        
             '#######'   ##     ##  '#######'  #'      '#     #####' # '####'        



                  #######################################################
                  #                        -***-                        #
                  #          Department of theory and spectroscopy      #
                  #    Directorship and core code : Frank Neese         #
                  #        Max Planck Institute fuer Kohlenforschung    #
                  #                Kaiser Wilhelm Platz 1               #
                  #                 D-45470 Muelheim/Ruhr               #
                  #                      Germany                        #
                  #                                                     #
                  #                  All rights reserved                #
                  #                        -***-                        #
                  #######################################################


                         Program Version 5.0.2 -  RELEASE  -


 With contributions from (in alphabetic order):
   Daniel Aravena         : Magnetic Suceptibility
   Michael Atanasov       : Ab Initio Ligand Field Theory (pilot matlab implementation)
   Alexander A. Auer      : GIAO ZORA, VPT2 properties, NMR spectrum
   Ute Becker             : Parallelization
   Giovanni Bistoni       : ED, misc. LED, open-shell LED, HFLD
   Martin Brehm           : Molecular dynamics
   Dmytro Bykov           : SCF Hessian
   Vijay G. Chilkuri      : MRCI spin determinant printing, contributions to CSF-ICE
   Dipayan Datta          : RHF DLPNO-CCSD density
   Achintya Kumar Dutta   : EOM-CC, STEOM-CC
   Dmitry Ganyushin       : Spin-Orbit,Spin-Spin,Magnetic field MRCI
   Miquel Garcia          : C-PCM and meta-GGA Hessian, CC/C-PCM, Gaussian charge scheme
   Yang Guo               : DLPNO-NEVPT2, F12-NEVPT2, CIM, IAO-localization
   Andreas Hansen         : Spin unrestricted coupled pair/coupled cluster methods
   Benjamin Helmich-Paris : MC-RPA, TRAH-SCF, COSX integrals
   Lee Huntington         : MR-EOM, pCC
   Robert Izsak           : Overlap fitted RIJCOSX, COSX-SCS-MP3, EOM
   Marcus Kettner         : VPT2
   Christian Kollmar      : KDIIS, OOCD, Brueckner-CCSD(T), CCSD density, CASPT2, CASPT2-K
   Simone Kossmann        : Meta GGA functionals, TD-DFT gradient, OOMP2, MP2 Hessian
   Martin Krupicka        : Initial AUTO-CI
   Lucas Lang             : DCDCAS
   Marvin Lechner         : AUTO-CI (C++ implementation), FIC-MRCC
   Dagmar Lenk            : GEPOL surface, SMD
   Dimitrios Liakos       : Extrapolation schemes; Compound Job, initial MDCI parallelization
   Dimitrios Manganas     : Further ROCIS development; embedding schemes
   Dimitrios Pantazis     : SARC Basis sets
   Anastasios Papadopoulos: AUTO-CI, single reference methods and gradients
   Taras Petrenko         : DFT Hessian,TD-DFT gradient, ASA, ECA, R-Raman, ABS, FL, XAS/XES, NRVS
   Peter Pinski           : DLPNO-MP2, DLPNO-MP2 Gradient
   Christoph Reimann      : Effective Core Potentials
   Marius Retegan         : Local ZFS, SOC
   Christoph Riplinger    : Optimizer, TS searches, QM/MM, DLPNO-CCSD(T), (RO)-DLPNO pert. Triples
   Tobias Risthaus        : Range-separated hybrids, TD-DFT gradient, RPA, STAB
   Michael Roemelt        : Original ROCIS implementation
   Masaaki Saitow         : Open-shell DLPNO-CCSD energy and density
   Barbara Sandhoefer     : DKH picture change effects
   Avijit Sen             : IP-ROCIS
   Kantharuban Sivalingam : CASSCF convergence, NEVPT2, FIC-MRCI
   Bernardo de Souza      : ESD, SOC TD-DFT
   Georgi Stoychev        : AutoAux, RI-MP2 NMR, DLPNO-MP2 response
   Willem Van den Heuvel  : Paramagnetic NMR
   Boris Wezisla          : Elementary symmetry handling
   Frank Wennmohs         : Technical directorship


 We gratefully acknowledge several colleagues who have allowed us to
 interface, adapt or use parts of their codes:
   Stefan Grimme, W. Hujo, H. Kruse, P. Pracht,  : VdW corrections, initial TS optimization,
                  C. Bannwarth, S. Ehlert          DFT functionals, gCP, sTDA/sTD-DF
   Ed Valeev, F. Pavosevic, A. Kumar             : LibInt (2-el integral package), F12 methods
   Garnet Chan, S. Sharma, J. Yang, R. Olivares  : DMRG
   Ulf Ekstrom                                   : XCFun DFT Library
   Mihaly Kallay                                 : mrcc  (arbitrary order and MRCC methods)
   Jiri Pittner, Ondrej Demel                    : Mk-CCSD
   Frank Weinhold                                : gennbo (NPA and NBO analysis)
   Christopher J. Cramer and Donald G. Truhlar   : smd solvation model
   Lars Goerigk                                  : TD-DFT with DH, B97 family of functionals
   V. Asgeirsson, H. Jonsson                     : NEB implementation
   FAccTs GmbH                                   : IRC, NEB, NEB-TS, DLPNO-Multilevel, CI-OPT
                                                   MM, QMMM, 2- and 3-layer-ONIOM, Crystal-QMMM,
                                                   LR-CPCM, SF, NACMEs, symmetry and pop. for TD-DFT,
                                                   nearIR, NL-DFT gradient (VV10), updates on ESD,
                                                   ML-optimized integration grids
   S Lehtola, MJT Oliveira, MAL Marques          : LibXC Library
   Liviu Ungur et al                             : ANISO software


 Your calculation uses the libint2 library for the computation of 2-el integrals
 For citations please refer to: http://libint.valeyev.net

 Your ORCA version has been built with support for libXC version: 5.1.0
 For citations please refer to: https://tddft.org/programs/libxc/

 This ORCA versions uses:
   CBLAS   interface :  Fast vector & matrix operations
   LAPACKE interface :  Fast linear algebra routines
   SCALAPACK package :  Parallel linear algebra routines
   Shared memory     :  Shared parallel matrices
   BLAS/LAPACK       :  OpenBLAS 0.3.15  USE64BITINT DYNAMIC_ARCH NO_AFFINITY Haswell SINGLE_THREADED
        Core in use  :  Haswell
   Copyright (c) 2011-2014, The OpenBLAS Project


Your calculation utilizes the SMD solvation module
Please cite in your paper:
A.V. Marenich, C.J. Cramer, D.G. Truhlar J. Phys. Chem. B, 113, (2009), 6378 

================================================================================

----- Orbital basis set information -----
Your calculation utilizes the basis: aug-cc-pVTZ 
    H, B-Ne : Obtained from the ccRepo (grant-hill.group.shef.ac.uk/ccrepo) Feb. 2017
              R. A. Kendall, T. H. Dunning, Jr., R. J. Harrison, J. Chem. Phys. 96, 6796 (1992)
         He : Obtained from the ccRepo (grant-hill.group.shef.ac.uk/ccrepo) Feb. 2017
              D. E. Woon, T. H. Dunning, Jr., J. Chem. Phys. 100, 2975 (1994)
  Li-Be, Na : Obtained from the ccRepo (grant-hill.group.shef.ac.uk/ccrepo) Feb. 2017
              B. P. Prascher, D. E. Woon, K. A. Peterson, T. H. Dunning, Jr., A. K. Wilson, Theor. Chem. Acc. 128, 69 (2011)
         Mg : Obtained from the Peterson Research Group Website (tyr0.chem.wsu.edu/~kipeters) Feb. 2017
              B. P. Prascher, D. E. Woon, K. A. Peterson, T. H. Dunning, Jr., A. K. Wilson, Theor. Chem. Acc. 128, 69 (2011)
      Al-Ar : Obtained from the ccRepo (grant-hill.group.shef.ac.uk/ccrepo) Feb. 2017
              D. E. Woon, T. H. Dunning, Jr., J. Chem. Phys. 98, 1358 (1993)
      Sc-Zn : Obtained from the ccRepo (grant-hill.group.shef.ac.uk/ccrepo) Feb. 2017
              N. B. Balabanov, K. A. Peterson, J. Chem. Phys. 123, 064107 (2005)
              N. B. Balabanov, K. A. Peterson, J. Chem. Phys. 125, 074110 (2006)
      Ga-Kr : Obtained from the ccRepo (grant-hill.group.shef.ac.uk/ccrepo) Feb. 2017
              A. K. Wilson, D. E. Woon, K. A. Peterson, T. H. Dunning, Jr., J. Chem. Phys. 110, 7667 (1999)
     Ag, Au : Obtained from the Peterson Research Group Website (tyr0.chem.wsu.edu/~kipeters) Feb. 2017
              K. A. Peterson, C. Puzzarini, Theor. Chem. Acc. 114, 283 (2005)

The basis set includes element-specific modifications.

Your calculation utilizes the basis: cc-pVTZ 
       H, B-Ne : Obtained from the ccRepo (grant-hill.group.shef.ac.uk/ccrepo) Feb. 2017
                 T. H. Dunning, Jr., J. Chem. Phys. 90, 1007 (1989)
            He : Obtained from the ccRepo (grant-hill.group.shef.ac.uk/ccrepo) Feb. 2017
                 D. E. Woon, T. H. Dunning, Jr., J. Chem. Phys. 100, 2975 (1994)
  Li-Be, Na-Mg : Obtained from the ccRepo (grant-hill.group.shef.ac.uk/ccrepo) Feb. 2017
                 B. P. Prascher, D. E. Woon, K. A. Peterson, T. H. Dunning, Jr., A. K. Wilson, Theor. Chem. Acc. 128, 69 (2011)
         Al-Ar : Obtained from the ccRepo (grant-hill.group.shef.ac.uk/ccrepo) Feb. 2017
                 D. E. Woon, T. H. Dunning, Jr., J. Chem. Phys. 98, 1358 (1993)
            Ca : Obtained from the Peterson Research Group Website (tyr0.chem.wsu.edu/~kipeters) Feb. 2017
                 J. Koput, K. A. Peterson, J. Phys. Chem. 106, 9595 (2002)
         Sc-Zn : Obtained from the ccRepo (grant-hill.group.shef.ac.uk/ccrepo) Feb. 2017
                 N. B. Balabanov, K. A. Peterson, J. Chem. Phys. 123, 064107 (2005)
                 N. B. Balabanov, K. A. Peterson, J. Chem. Phys. 125, 074110 (2006)
         Ga-Kr : Obtained from the ccRepo (grant-hill.group.shef.ac.uk/ccrepo) Feb. 2017
                 A. K. Wilson, D. E. Woon, K. A. Peterson, T. H. Dunning, Jr., J. Chem. Phys. 110, 7667 (1999)
             Y : Obtained from the ccRepo (grant-hill.group.shef.ac.uk/ccrepo) Feb. 2017
                 K. A. Peterson, D. Figgen, M. Dolg, H. Stoll, J. Chem. Phys. 126, 124101 (2007)
        Ag, Au : Obtained from the Peterson Research Group Website (tyr0.chem.wsu.edu/~kipeters) Feb. 2017
                 K. A. Peterson, C. Puzzarini, Theor. Chem. Acc. 114, 283 (2005)

----- AuxJ basis set information -----
Your calculation utilizes the auxiliary basis: aug-cc-pVTZ/JK 
  H, B-F, Al-Cl, Ga-Br : Obtained from the TURBOMOLE 7.0 basis set library

The basis set includes element-specific modifications.

Your calculation utilizes the auxiliary basis: cc-pVTZ/JK 
  H, B-F, Al-Cl, Ga-Br : Obtained from the TURBOMOLE 7.0 basis set library

----- AuxC basis set information -----
Your calculation utilizes the auxiliary basis: aug-cc-pVTZ/C 
  H-He, B-F, Al-Ar, Ga-Kr : Obtained from the EMSL Basis Set Exchange (bse.pnl.gov) Feb. 2017
                            F. Weigend, A. Kohn, C. Hattig, J. Chem. Phys. 116, 3175 (2002)
                   Be, Mg : Obtained from the TURBOMOLE 7.0 basis set library
                            C. Haettig, Phys. Chem. Chem. Phys. 7, 59 (2005)
                       Ne : Obtained from the EMSL Basis Set Exchange (bse.pnl.gov) Feb. 2017
                            C. Haettig, Phys. Chem. Chem. Phys. 7, 59 (2005)
                            F. Weigend, A. Kohn, C. Hattig, J. Chem. Phys. 116, 3175 (2002)
                    Sc-Zn : Obtained from the EMSL Basis Set Exchange (bse.pnl.gov) Feb. 2017
                            J. G. Hill, J. A. Platts, J. Chem. Phys. 128, 044104 (2008)

The basis set includes element-specific modifications.

Your calculation utilizes the auxiliary basis: cc-pVTZ/C 
  Obtained from the EMSL Basis Set Exchange (bse.pnl.gov) Feb. 2017
  H-He, B-F, Al-Ar, Ga-Kr : F. Weigend, A. Kohn, C. Hattig, J. Chem. Phys. 116, 3175 (2002)
             Li-Be, Na-Mg : C. Haettig, Phys. Chem. Chem. Phys. 7, 59 (2005)
                       Ne : C. Haettig, Phys. Chem. Chem. Phys. 7, 59 (2005)
                            F. Weigend, A. Kohn, C. Hattig, J. Chem. Phys. 116, 3175 (2002)
                    Sc-Zn : J. G. Hill, J. A. Platts, J. Chem. Phys. 128, 044104 (2008)

================================================================================
                                        WARNINGS
                       Please study these warnings very carefully!
================================================================================


WARNING: Geometry Optimization
  ===> : Switching off AutoStart
         For restart on a previous wavefunction, please use MOREAD

INFO   : the flag for use of the SHARK integral package has been found!



***************************************
The coordinates will be read from file: 
***************************************


Your calculation utilizes the SMD solvation module
Please cite in your paper:
A.V. Marenich, C.J. Cramer, D.G. Truhlar J. Phys. Chem. B, 113, (2009), 6378 

================================================================================

----- Orbital basis set information -----
Your calculation utilizes the basis: aug-cc-pVTZ 
    H, B-Ne : Obtained from the ccRepo (grant-hill.group.shef.ac.uk/ccrepo) Feb. 2017
              R. A. Kendall, T. H. Dunning, Jr., R. J. Harrison, J. Chem. Phys. 96, 6796 (1992)
         He : Obtained from the ccRepo (grant-hill.group.shef.ac.uk/ccrepo) Feb. 2017
              D. E. Woon, T. H. Dunning, Jr., J. Chem. Phys. 100, 2975 (1994)
  Li-Be, Na : Obtained from the ccRepo (grant-hill.group.shef.ac.uk/ccrepo) Feb. 2017
              B. P. Prascher, D. E. Woon, K. A. Peterson, T. H. Dunning, Jr., A. K. Wilson, Theor. Chem. Acc. 128, 69 (2011)
         Mg : Obtained from the Peterson Research Group Website (tyr0.chem.wsu.edu/~kipeters) Feb. 2017
              B. P. Prascher, D. E. Woon, K. A. Peterson, T. H. Dunning, Jr., A. K. Wilson, Theor. Chem. Acc. 128, 69 (2011)
      Al-Ar : Obtained from the ccRepo (grant-hill.group.shef.ac.uk/ccrepo) Feb. 2017
              D. E. Woon, T. H. Dunning, Jr., J. Chem. Phys. 98, 1358 (1993)
      Sc-Zn : Obtained from the ccRepo (grant-hill.group.shef.ac.uk/ccrepo) Feb. 2017
              N. B. Balabanov, K. A. Peterson, J. Chem. Phys. 123, 064107 (2005)
              N. B. Balabanov, K. A. Peterson, J. Chem. Phys. 125, 074110 (2006)
      Ga-Kr : Obtained from the ccRepo (grant-hill.group.shef.ac.uk/ccrepo) Feb. 2017
              A. K. Wilson, D. E. Woon, K. A. Peterson, T. H. Dunning, Jr., J. Chem. Phys. 110, 7667 (1999)
     Ag, Au : Obtained from the Peterson Research Group Website (tyr0.chem.wsu.edu/~kipeters) Feb. 2017
              K. A. Peterson, C. Puzzarini, Theor. Chem. Acc. 114, 283 (2005)

The basis set includes element-specific modifications.

Your calculation utilizes the basis: cc-pVTZ 
       H, B-Ne : Obtained from the ccRepo (grant-hill.group.shef.ac.uk/ccrepo) Feb. 2017
                 T. H. Dunning, Jr., J. Chem. Phys. 90, 1007 (1989)
            He : Obtained from the ccRepo (grant-hill.group.shef.ac.uk/ccrepo) Feb. 2017
                 D. E. Woon, T. H. Dunning, Jr., J. Chem. Phys. 100, 2975 (1994)
  Li-Be, Na-Mg : Obtained from the ccRepo (grant-hill.group.shef.ac.uk/ccrepo) Feb. 2017
                 B. P. Prascher, D. E. Woon, K. A. Peterson, T. H. Dunning, Jr., A. K. Wilson, Theor. Chem. Acc. 128, 69 (2011)
         Al-Ar : Obtained from the ccRepo (grant-hill.group.shef.ac.uk/ccrepo) Feb. 2017
                 D. E. Woon, T. H. Dunning, Jr., J. Chem. Phys. 98, 1358 (1993)
            Ca : Obtained from the Peterson Research Group Website (tyr0.chem.wsu.edu/~kipeters) Feb. 2017
                 J. Koput, K. A. Peterson, J. Phys. Chem. 106, 9595 (2002)
         Sc-Zn : Obtained from the ccRepo (grant-hill.group.shef.ac.uk/ccrepo) Feb. 2017
                 N. B. Balabanov, K. A. Peterson, J. Chem. Phys. 123, 064107 (2005)
                 N. B. Balabanov, K. A. Peterson, J. Chem. Phys. 125, 074110 (2006)
         Ga-Kr : Obtained from the ccRepo (grant-hill.group.shef.ac.uk/ccrepo) Feb. 2017
                 A. K. Wilson, D. E. Woon, K. A. Peterson, T. H. Dunning, Jr., J. Chem. Phys. 110, 7667 (1999)
             Y : Obtained from the ccRepo (grant-hill.group.shef.ac.uk/ccrepo) Feb. 2017
                 K. A. Peterson, D. Figgen, M. Dolg, H. Stoll, J. Chem. Phys. 126, 124101 (2007)
        Ag, Au : Obtained from the Peterson Research Group Website (tyr0.chem.wsu.edu/~kipeters) Feb. 2017
                 K. A. Peterson, C. Puzzarini, Theor. Chem. Acc. 114, 283 (2005)

----- AuxJ basis set information -----
Your calculation utilizes the auxiliary basis: aug-cc-pVTZ/JK 
  H, B-F, Al-Cl, Ga-Br : Obtained from the TURBOMOLE 7.0 basis set library

The basis set includes element-specific modifications.

Your calculation utilizes the auxiliary basis: cc-pVTZ/JK 
  H, B-F, Al-Cl, Ga-Br : Obtained from the TURBOMOLE 7.0 basis set library

----- AuxC basis set information -----
Your calculation utilizes the auxiliary basis: aug-cc-pVTZ/C 
  H-He, B-F, Al-Ar, Ga-Kr : Obtained from the EMSL Basis Set Exchange (bse.pnl.gov) Feb. 2017
                            F. Weigend, A. Kohn, C. Hattig, J. Chem. Phys. 116, 3175 (2002)
                   Be, Mg : Obtained from the TURBOMOLE 7.0 basis set library
                            C. Haettig, Phys. Chem. Chem. Phys. 7, 59 (2005)
                       Ne : Obtained from the EMSL Basis Set Exchange (bse.pnl.gov) Feb. 2017
                            C. Haettig, Phys. Chem. Chem. Phys. 7, 59 (2005)
                            F. Weigend, A. Kohn, C. Hattig, J. Chem. Phys. 116, 3175 (2002)
                    Sc-Zn : Obtained from the EMSL Basis Set Exchange (bse.pnl.gov) Feb. 2017
                            J. G. Hill, J. A. Platts, J. Chem. Phys. 128, 044104 (2008)

The basis set includes element-specific modifications.

Your calculation utilizes the auxiliary basis: cc-pVTZ/C 
  Obtained from the EMSL Basis Set Exchange (bse.pnl.gov) Feb. 2017
  H-He, B-F, Al-Ar, Ga-Kr : F. Weigend, A. Kohn, C. Hattig, J. Chem. Phys. 116, 3175 (2002)
             Li-Be, Na-Mg : C. Haettig, Phys. Chem. Chem. Phys. 7, 59 (2005)
                       Ne : C. Haettig, Phys. Chem. Chem. Phys. 7, 59 (2005)
                            F. Weigend, A. Kohn, C. Hattig, J. Chem. Phys. 116, 3175 (2002)
                    Sc-Zn : J. G. Hill, J. A. Platts, J. Chem. Phys. 128, 044104 (2008)

================================================================================
                                        WARNINGS
                       Please study these warnings very carefully!
================================================================================

INFO   : Checking CIS options ...

INFO   : the flag for use of the SHARK integral package has been found!

================================================================================
                                       INPUT FILE
================================================================================
NAME = x3lyp-train-12.inp
|  1> ! x3lyp aug-cc-PVTZ RIJCOSX Opt
|  2> %maxcore 4000
|  3> %basis
|  4>  AuxJ "aug-cc-PVTZ/JK"
|  5>  AuxC "aug-cc-PVTZ/C"
|  6>  newGTO H "cc-PVTZ" end
|  7>  newAuxJGTO H "cc-PVTZ/JK" end
|  8>  newAuxCGTO H "cc-PVTZ/C" end
|  9> end
| 10> %cpcm
| 11>  SMD true
| 12>  SMDsolvent "ethanol"
| 13> end
| 14> %pal nprocs 4 end
| 15> * xyz 0 1
| 16> C         -5.31350       -0.67230        1.61530
| 17> C         -4.98860       -1.00350        0.15820
| 18> N         -4.31760        0.08600       -0.51830
| 19> C         -5.17770        1.01910       -1.21330
| 20> C         -5.38980        0.63450       -2.67850
| 21> C         -2.96420        0.22450       -0.49050
| 22> C         -2.30650        1.20300       -1.27640
| 23> C         -0.94740        1.34780       -1.25280
| 24> C         -0.13810        0.52510       -0.45370
| 25> C          1.27010        0.60840       -0.37510
| 26> C          1.97440       -0.24100        0.43220
| 27> C          3.41400       -0.15410        0.51230
| 28> N          4.13550        0.72660       -0.14420
| 29> C          5.42960        0.47250        0.20380
| 30> C          6.61000        1.09780       -0.19030
| 31> C          7.79230        0.61980        0.33000
| 32> C          7.82310       -0.45530        1.22370
| 33> C          6.66850       -1.09120        1.63080
| 34> C          5.47290       -0.61740        1.11380
| 35> N          4.17210       -0.98910        1.28630
| 36> C          1.27570       -1.24620        1.22220
| 37> O          1.80080       -2.05190        1.96550
| 38> O         -0.07990       -1.29110        1.12290
| 39> C         -0.78570       -0.45320        0.32350
| 40> C         -2.16100       -0.59690        0.31240
| 41> H         -5.82200       -1.51070        2.08350
| 42> H         -5.96020        0.20030        1.67140
| 43> H         -4.40520       -0.45840        2.17180
| 44> H         -5.91620       -1.21230       -0.38130
| 45> H         -4.37230       -1.90330        0.10310
| 46> H         -4.76340        2.02720       -1.14250
| 47> H         -6.14280        1.03090       -0.70010
| 48> H         -5.84560       -0.35020       -2.74970
| 49> H         -4.44230        0.60850       -3.20990
| 50> H         -6.04430        1.35450       -3.16240
| 51> H         -2.87500        1.84980       -1.92280
| 52> H         -0.47230        2.10160       -1.86230
| 53> H          1.80920        1.34470       -0.95160
| 54> H          6.58540        1.92670       -0.87970
| 55> H          8.72530        1.08330        0.04380
| 56> H          8.77620       -0.79370        1.60290
| 57> H          6.69150       -1.92120        2.32110
| 58> H          3.77900       -1.72240        1.86020
| 59> H         -2.57410       -1.35710        0.95190
| 60> *
| 61> 
| 62> 
| 63> $new_job
| 64> ! x3lyp aug-cc-PVTZ RIJCOSX SP
| 65> %maxcore 4000
| 66> %basis
| 67>  AuxJ "aug-cc-PVTZ/JK"
| 68>  AuxC "aug-cc-PVTZ/C"
| 69>  newGTO H "cc-PVTZ" end
| 70>  newAuxJGTO H "cc-PVTZ/JK" end
| 71>  newAuxCGTO H "cc-PVTZ/C" end
| 72> end
| 73> %cpcm
| 74>  SMD true
| 75>  SMDsolvent "ethanol"
| 76> end
| 77> %pal nprocs 4 end
| 78> %tddft
| 79>  nroots 10
| 80>  maxdim 7
| 81> end
| 82> * xyzfile 0 1
| 83> 
| 84>                          ****END OF INPUT****
================================================================================


                 $$$$$$$$$$$$$$$$$$$$$$$$$$$$$$$$$$$$$$$$$$$$$$ 
                 $ THERE ARE  2 JOBS TO BE PROCESSED THIS RUN $
                 $$$$$$$$$$$$$$$$$$$$$$$$$$$$$$$$$$$$$$$$$$$$$$ 




                 $$$$$$$$$$$$$$$$  JOB NUMBER  1 $$$$$$$$$$$$$$


                       *****************************
                       * Geometry Optimization Run *
                       *****************************

Geometry optimization settings:
Update method            Update   .... BFGS
Choice of coordinates    CoordSys .... Z-matrix Internals
Initial Hessian          InHess   .... Almoef's Model

Convergence Tolerances:
Energy Change            TolE     ....  5.0000e-06 Eh
Max. Gradient            TolMAXG  ....  3.0000e-04 Eh/bohr
RMS Gradient             TolRMSG  ....  1.0000e-04 Eh/bohr
Max. Displacement        TolMAXD  ....  4.0000e-03 bohr
RMS Displacement         TolRMSD  ....  2.0000e-03 bohr
Strict Convergence                ....  False
------------------------------------------------------------------------------
                        ORCA OPTIMIZATION COORDINATE SETUP
------------------------------------------------------------------------------

The optimization will be done in new redundant internal coordinates
Making redundant internal coordinates   ...  (new redundants) done
Evaluating the initial hessian          ...  (Almloef) done
Evaluating the coordinates              ...  done
Calculating the B-matrix                .... done
Calculating the G-matrix                .... done
Diagonalizing the G-matrix              .... done
Small eigenvalue found = 2.297e-03
Small eigenvalue found = 6.964e-03
Small eigenvalue found = 9.161e-03
Small eigenvalue found = 1.434e-02
Small eigenvalue found = 1.580e-02
The first mode is                       ....  115
The number of degrees of freedom        ....  126

    -----------------------------------------------------------------
                    Redundant Internal Coordinates


    -----------------------------------------------------------------
         Definition                    Initial Value    Approx d2E/dq
    -----------------------------------------------------------------
      1. B(C   1,C   0)                  1.5292         0.374701   
      2. B(N   2,C   1)                  1.4474         0.453244   
      3. B(C   3,N   2)                  1.4469         0.454068   
      4. B(C   4,C   3)                  1.5296         0.374107   
      5. B(C   5,N   2)                  1.3608         0.623072   
      6. B(C   6,C   5)                  1.4169         0.565959   
      7. B(C   7,C   6)                  1.3670         0.679893   
      8. B(C   8,C   7)                  1.4037         0.594138   
      9. B(C   9,C   8)                  1.4128         0.574491   
     10. B(C  10,C   9)                  1.3672         0.679368   
     11. B(C  11,C  10)                  1.4444         0.511538   
     12. B(N  12,C  11)                  1.3142         0.739213   
     13. B(C  13,N  12)                  1.3640         0.615791   
     14. B(C  14,C  13)                  1.3927         0.618593   
     15. B(C  15,C  14)                  1.3773         0.654572   
     16. B(C  16,C  15)                  1.3984         0.605838   
     17. B(C  17,C  16)                  1.3796         0.649212   
     18. B(C  18,C  17)                  1.3861         0.633845   
     19. B(C  18,C  13)                  1.4205         0.558544   
     20. B(N  19,C  18)                  1.3638         0.616096   
     21. B(N  19,C  11)                  1.3679         0.607033   
     22. B(C  20,C  10)                  1.4570         0.488564   
     23. B(O  21,C  20)                  1.2155         1.062479   
     24. B(O  22,C  20)                  1.3600         0.624857   
     25. B(C  23,O  22)                  1.3562         0.633587   
     26. B(C  23,C   8)                  1.4073         0.586321   
     27. B(C  24,C  23)                  1.3828         0.641469   
     28. B(C  24,C   5)                  1.4016         0.598735   
     29. B(H  25,C   0)                  1.0866         0.364627   
     30. B(H  26,C   0)                  1.0876         0.363335   
     31. B(H  27,C   0)                  1.0865         0.364777   
     32. B(H  28,C   1)                  1.0932         0.355884   
     33. B(H  29,C   1)                  1.0920         0.357441   
     34. B(H  30,C   3)                  1.0922         0.357188   
     35. B(H  31,C   3)                  1.0931         0.355984   
     36. B(H  32,C   4)                  1.0874         0.363545   
     37. B(H  33,C   4)                  1.0867         0.364553   
     38. B(H  34,C   4)                  1.0867         0.364484   
     39. B(H  35,C   6)                  1.0767         0.378071   
     40. B(H  36,C   7)                  1.0795         0.374195   
     41. B(H  37,C   9)                  1.0794         0.374390   
     42. B(H  38,C  14)                  1.0784         0.375773   
     43. B(H  39,C  15)                  1.0804         0.373047   
     44. B(H  40,C  16)                  1.0801         0.373380   
     45. B(H  41,C  17)                  1.0798         0.373865   
     46. B(H  42,N  19)                  1.0108         0.431516   
     47. B(H  43,C  24)                  1.0759         0.379273   
     48. A(H  26,C   0,H  27)          108.2238         0.291840   
     49. A(C   1,C   0,H  26)          110.4425         0.324956   
     50. A(H  25,C   0,H  27)          108.8098         0.292003   
     51. A(C   1,C   0,H  27)          110.6756         0.325168   
     52. A(C   1,C   0,H  25)          110.0530         0.325146   
     53. A(H  25,C   0,H  26)          108.5767         0.291821   
     54. A(C   0,C   1,H  28)          109.3493         0.323852   
     55. A(C   0,C   1,H  29)          110.2704         0.324085   
     56. A(C   0,C   1,N   2)          112.3851         0.373457   
     57. A(N   2,C   1,H  28)          107.8471         0.332171   
     58. A(H  28,C   1,H  29)          107.2532         0.289965   
     59. A(N   2,C   1,H  29)          109.5737         0.332412   
     60. A(C   1,N   2,C   3)          115.7452         0.383655   
     61. A(C   3,N   2,C   5)          122.3719         0.405661   
     62. A(C   1,N   2,C   5)          121.8811         0.405531   
     63. A(N   2,C   3,H  30)          109.7925         0.332473   
     64. A(N   2,C   3,H  31)          107.8351         0.332287   
     65. A(C   4,C   3,H  30)          110.2895         0.323962   
     66. A(H  30,C   3,H  31)          107.1275         0.289945   
     67. A(N   2,C   3,C   4)          112.3579         0.373472   
     68. A(C   4,C   3,H  31)          109.2688         0.323783   
     69. A(C   3,C   4,H  34)          110.0880         0.325040   
     70. A(H  32,C   4,H  33)          108.1676         0.291838   
     71. A(H  33,C   4,H  34)          108.8594         0.291957   
     72. A(H  32,C   4,H  34)          108.5641         0.291830   
     73. A(C   3,C   4,H  33)          110.7041         0.325050   
     74. A(C   3,C   4,H  32)          110.3974         0.324902   
     75. A(N   2,C   5,C  24)          121.4677         0.428914   
     76. A(N   2,C   5,C   6)          121.3741         0.424610   
     77. A(C   6,C   5,C  24)          117.1578         0.424357   
     78. A(C   5,C   6,H  35)          120.1808         0.350383   
     79. A(C   5,C   6,C   7)          121.6729         0.434146   
     80. A(C   7,C   6,H  35)          118.1425         0.361462   
     81. A(C   8,C   7,H  36)          118.4844         0.352657   
     82. A(C   6,C   7,C   8)          121.3970         0.437962   
     83. A(C   6,C   7,H  36)          120.1169         0.360827   
     84. A(C   9,C   8,C  23)          117.9642         0.423903   
     85. A(C   7,C   8,C   9)          124.8735         0.424908   
     86. A(C   7,C   8,C  23)          117.1623         0.426461   
     87. A(C   8,C   9,C  10)          120.6414         0.435256   
     88. A(C  10,C   9,H  37)          118.8078         0.360812   
     89. A(C   8,C   9,H  37)          120.5508         0.350689   
     90. A(C  11,C  10,C  20)          119.3007         0.402026   
     91. A(C   9,C  10,C  20)          120.1167         0.422789   
     92. A(C   9,C  10,C  11)          120.5825         0.426278   
     93. A(C  10,C  11,N  12)          124.0397         0.429956   
     94. A(N  12,C  11,N  19)          112.7974         0.440508   
     95. A(C  10,C  11,N  19)          123.1629         0.415087   
     96. A(C  11,N  12,C  13)          105.5799         0.441649   
     97. A(N  12,C  13,C  18)          109.5911         0.422721   
     98. A(N  12,C  13,C  14)          130.4140         0.430524   
     99. A(C  14,C  13,C  18)          119.9949         0.425836   
    100. A(C  13,C  14,C  15)          117.6990         0.438150   
    101. A(C  15,C  14,H  38)          121.8590         0.358759   
    102. A(C  13,C  14,H  38)          120.4420         0.355329   
    103. A(C  16,C  15,H  39)          118.6926         0.353640   
    104. A(C  14,C  15,H  39)          119.4945         0.358315   
    105. A(C  14,C  15,C  16)          121.8129         0.436508   
    106. A(C  17,C  16,H  40)          119.3726         0.357868   
    107. A(C  15,C  16,H  40)          118.9903         0.353693   
    108. A(C  15,C  16,C  17)          121.6371         0.435862   
    109. A(C  16,C  17,C  18)          117.0189         0.439428   
    110. A(C  18,C  17,H  41)          121.3038         0.356493   
    111. A(C  16,C  17,H  41)          121.6774         0.357947   
    112. A(C  17,C  18,N  19)          133.0296         0.432450   
    113. A(C  13,C  18,N  19)          105.1333         0.422758   
    114. A(C  13,C  18,C  17)          121.8371         0.427698   
    115. A(C  11,N  19,C  18)          106.8983         0.426308   
    116. A(C  18,N  19,H  42)          129.8288         0.358115   
    117. A(C  11,N  19,H  42)          123.2722         0.357214   
    118. A(O  21,C  20,O  22)          116.9614         0.473096   
    119. A(C  10,C  20,O  22)          117.4651         0.413834   
    120. A(C  10,C  20,O  21)          125.5735         0.455304   
    121. A(C  20,O  22,C  23)          122.7785         0.430683   
    122. A(O  22,C  23,C  24)          117.2658         0.435570   
    123. A(C   8,C  23,C  24)          121.7000         0.432367   
    124. A(C   8,C  23,O  22)          121.0331         0.428590   
    125. A(C  23,C  24,H  43)          116.7776         0.358091   
    126. A(C   5,C  24,C  23)          120.9064         0.433999   
    127. A(C   5,C  24,H  43)          122.3137         0.353925   
    128. D(H  28,C   1,C   0,H  25)     59.8312         0.011207   
    129. D(H  28,C   1,C   0,H  27)   -179.8630         0.011207   
    130. D(H  29,C   1,C   0,H  26)   -177.7327         0.011207   
    131. D(N   2,C   1,C   0,H  27)    -60.1319         0.011207   
    132. D(H  29,C   1,C   0,H  25)    -57.8659         0.011207   
    133. D(N   2,C   1,C   0,H  26)     59.6955         0.011207   
    134. D(H  29,C   1,C   0,H  27)     62.4399         0.011207   
    135. D(H  28,C   1,C   0,H  26)    -60.0356         0.011207   
    136. D(N   2,C   1,C   0,H  25)    179.5623         0.011207   
    137. D(C   5,N   2,C   1,H  28)   -151.6861         0.017528   
    138. D(C   3,N   2,C   1,H  28)     28.7912         0.017528   
    139. D(C   5,N   2,C   1,C   0)     87.7130         0.017528   
    140. D(C   5,N   2,C   1,H  29)    -35.2511         0.017528   
    141. D(C   3,N   2,C   1,C   0)    -91.8097         0.017528   
    142. D(C   3,N   2,C   1,H  29)    145.2263         0.017528   
    143. D(H  31,C   3,N   2,C   1)     28.4852         0.017593   
    144. D(H  31,C   3,N   2,C   5)   -151.0349         0.017593   
    145. D(H  30,C   3,N   2,C   5)    -34.6386         0.017593   
    146. D(C   4,C   3,N   2,C   1)    -91.9905         0.017593   
    147. D(H  30,C   3,N   2,C   1)    144.8814         0.017593   
    148. D(C   4,C   3,N   2,C   5)     88.4894         0.017593   
    149. D(H  33,C   4,C   3,H  31)   -179.5838         0.011174   
    150. D(H  33,C   4,C   3,N   2)    -59.9394         0.011174   
    151. D(H  34,C   4,C   3,H  31)     60.0073         0.011174   
    152. D(H  33,C   4,C   3,H  30)     62.9093         0.011174   
    153. D(H  34,C   4,C   3,N   2)    179.6516         0.011174   
    154. D(H  32,C   4,C   3,H  31)    -59.8374         0.011174   
    155. D(H  34,C   4,C   3,H  30)    -57.4997         0.011174   
    156. D(H  32,C   4,C   3,H  30)   -177.3444         0.011174   
    157. D(H  32,C   4,C   3,N   2)     59.8069         0.011174   
    158. D(C   6,C   5,N   2,C   1)    172.8108         0.031460   
    159. D(C  24,C   5,N   2,C   3)    172.5294         0.031460   
    160. D(C  24,C   5,N   2,C   1)     -6.9616         0.031460   
    161. D(C   6,C   5,N   2,C   3)     -7.6983         0.031460   
    162. D(H  35,C   6,C   5,C  24)    179.0332         0.021959   
    163. D(H  35,C   6,C   5,N   2)     -0.7485         0.021959   
    164. D(C   7,C   6,C   5,C  24)     -0.2440         0.021959   
    165. D(C   7,C   6,C   5,N   2)    179.9742         0.021959   
    166. D(H  36,C   7,C   6,H  35)      0.6823         0.032402   
    167. D(H  36,C   7,C   6,C   5)    179.9737         0.032402   
    168. D(C   8,C   7,C   6,H  35)   -178.8363         0.032402   
    169. D(C   8,C   7,C   6,C   5)      0.4552         0.032402   
    170. D(C  23,C   8,C   7,H  36)   -179.6321         0.024310   
    171. D(C  23,C   8,C   7,C   6)     -0.1059         0.024310   
    172. D(C   9,C   8,C   7,H  36)      0.3437         0.024310   
    173. D(C   9,C   8,C   7,C   6)    179.8699         0.024310   
    174. D(H  37,C   9,C   8,C  23)   -179.8646         0.022655   
    175. D(H  37,C   9,C   8,C   7)      0.1597         0.022655   
    176. D(C  10,C   9,C   8,C  23)      0.1109         0.022655   
    177. D(C  10,C   9,C   8,C   7)   -179.8648         0.022655   
    178. D(C  20,C  10,C   9,H  37)   -179.9643         0.032348   
    179. D(C  11,C  10,C   9,H  37)      0.0193         0.032348   
    180. D(C  11,C  10,C   9,C   8)   -179.9565         0.032348   
    181. D(C  20,C  10,C   9,C   8)      0.0598         0.032348   
    182. D(N  19,C  11,C  10,C  20)      0.9924         0.017834   
    183. D(N  19,C  11,C  10,C   9)   -178.9914         0.017834   
    184. D(N  12,C  11,C  10,C  20)   -179.0505         0.017834   
    185. D(N  12,C  11,C  10,C   9)      0.9657         0.017834   
    186. D(C  13,N  12,C  11,N  19)     -0.0235         0.041373   
    187. D(C  13,N  12,C  11,C  10)   -179.9845         0.041373   
    188. D(C  18,C  13,N  12,C  11)      0.0417         0.027794   
    189. D(C  14,C  13,N  12,C  11)   -179.9385         0.027794   
    190. D(C  15,C  14,C  13,N  12)   -179.9374         0.026471   
    191. D(H  38,C  14,C  13,C  18)   -179.9151         0.026471   
    192. D(H  38,C  14,C  13,N  12)      0.0633         0.026471   
    193. D(C  15,C  14,C  13,C  18)      0.0841         0.026471   
    194. D(H  39,C  15,C  14,H  38)     -0.0089         0.029862   
    195. D(H  39,C  15,C  14,C  13)    179.9919         0.029862   
    196. D(C  16,C  15,C  14,H  38)   -179.9871         0.029862   
    197. D(C  16,C  15,C  14,C  13)      0.0137         0.029862   
    198. D(H  40,C  16,C  15,H  39)     -0.0417         0.025330   
    199. D(H  40,C  16,C  15,C  14)    179.9367         0.025330   
    200. D(C  17,C  16,C  15,H  39)    179.9509         0.025330   
    201. D(C  17,C  16,C  15,C  14)     -0.0708         0.025330   
    202. D(H  41,C  17,C  16,H  40)      0.0129         0.029341   
    203. D(H  41,C  17,C  16,C  15)   -179.9796         0.029341   
    204. D(C  18,C  17,C  16,H  40)   -179.9831         0.029341   
    205. D(C  18,C  17,C  16,C  15)      0.0244         0.029341   
    206. D(N  19,C  18,C  17,H  41)     -0.0140         0.027878   
    207. D(N  19,C  18,C  17,C  16)    179.9820         0.027878   
    208. D(C  13,C  18,C  17,H  41)   -179.9205         0.027878   
    209. D(C  13,C  18,C  17,C  16)      0.0755         0.027878   
    210. D(N  19,C  18,C  13,C  14)    179.9381         0.021365   
    211. D(N  19,C  18,C  13,N  12)     -0.0445         0.021365   
    212. D(C  17,C  18,C  13,C  14)     -0.1327         0.021365   
    213. D(C  17,C  18,C  13,N  12)    179.8847         0.021365   
    214. D(H  42,N  19,C  18,C  17)      0.4151         0.030706   
    215. D(H  42,N  19,C  18,C  13)   -179.6672         0.030706   
    216. D(C  11,N  19,C  18,C  17)   -179.8886         0.030706   
    217. D(C  11,N  19,C  18,C  13)      0.0291         0.030706   
    218. D(H  42,N  19,C  11,N  12)    179.7166         0.029743   
    219. D(H  42,N  19,C  11,C  10)     -0.3220         0.029743   
    220. D(C  18,N  19,C  11,N  12)     -0.0044         0.029743   
    221. D(C  18,N  19,C  11,C  10)    179.9570         0.029743   
    222. D(O  22,C  20,C  10,C  11)    179.7162         0.016253   
    223. D(O  22,C  20,C  10,C   9)     -0.2999         0.016253   
    224. D(O  21,C  20,C  10,C  11)     -0.2918         0.016253   
    225. D(O  21,C  20,C  10,C   9)    179.6921         0.016253   
    226. D(C  23,O  22,C  20,O  21)   -179.6132         0.028679   
    227. D(C  23,O  22,C  20,C  10)      0.3794         0.028679   
    228. D(C  24,C  23,O  22,C  20)   -179.8442         0.029548   
    229. D(C   8,C  23,O  22,C  20)     -0.2157         0.029548   
    230. D(C  24,C  23,C   8,C   9)    179.5699         0.023643   
    231. D(C  24,C  23,C   8,C   7)     -0.4525         0.023643   
    232. D(O  22,C  23,C   8,C   9)     -0.0420         0.023643   
    233. D(O  22,C  23,C   8,C   7)    179.9356         0.023643   
    234. D(H  43,C  24,C  23,O  22)      0.8329         0.028598   
    235. D(H  43,C  24,C  23,C   8)   -178.7930         0.028598   
    236. D(C   5,C  24,C  23,O  22)   -179.7055         0.028598   
    237. D(C   5,C  24,C  23,C   8)      0.6687         0.028598   
    238. D(H  43,C  24,C   5,C   6)    179.1207         0.024707   
    239. D(H  43,C  24,C   5,N   2)     -1.0978         0.024707   
    240. D(C  23,C  24,C   5,C   6)     -0.3106         0.024707   
    241. D(C  23,C  24,C   5,N   2)    179.4709         0.024707   
    -----------------------------------------------------------------

Number of atoms                         .... 44
Number of degrees of freedom            .... 241

         *************************************************************
         *                GEOMETRY OPTIMIZATION CYCLE   1            *
         *************************************************************
---------------------------------
CARTESIAN COORDINATES (ANGSTROEM)
---------------------------------
  C     -5.313500   -0.672300    1.615300
  C     -4.988600   -1.003500    0.158200
  N     -4.317600    0.086000   -0.518300
  C     -5.177700    1.019100   -1.213300
  C     -5.389800    0.634500   -2.678500
  C     -2.964200    0.224500   -0.490500
  C     -2.306500    1.203000   -1.276400
  C     -0.947400    1.347800   -1.252800
  C     -0.138100    0.525100   -0.453700
  C      1.270100    0.608400   -0.375100
  C      1.974400   -0.241000    0.432200
  C      3.414000   -0.154100    0.512300
  N      4.135500    0.726600   -0.144200
  C      5.429600    0.472500    0.203800
  C      6.610000    1.097800   -0.190300
  C      7.792300    0.619800    0.330000
  C      7.823100   -0.455300    1.223700
  C      6.668500   -1.091200    1.630800
  C      5.472900   -0.617400    1.113800
  N      4.172100   -0.989100    1.286300
  C      1.275700   -1.246200    1.222200
  O      1.800800   -2.051900    1.965500
  O     -0.079900   -1.291100    1.122900
  C     -0.785700   -0.453200    0.323500
  C     -2.161000   -0.596900    0.312400
  H     -5.822000   -1.510700    2.083500
  H     -5.960200    0.200300    1.671400
  H     -4.405200   -0.458400    2.171800
  H     -5.916200   -1.212300   -0.381300
  H     -4.372300   -1.903300    0.103100
  H     -4.763400    2.027200   -1.142500
  H     -6.142800    1.030900   -0.700100
  H     -5.845600   -0.350200   -2.749700
  H     -4.442300    0.608500   -3.209900
  H     -6.044300    1.354500   -3.162400
  H     -2.875000    1.849800   -1.922800
  H     -0.472300    2.101600   -1.862300
  H      1.809200    1.344700   -0.951600
  H      6.585400    1.926700   -0.879700
  H      8.725300    1.083300    0.043800
  H      8.776200   -0.793700    1.602900
  H      6.691500   -1.921200    2.321100
  H      3.779000   -1.722400    1.860200
  H     -2.574100   -1.357100    0.951900

----------------------------
CARTESIAN COORDINATES (A.U.)
----------------------------
  NO LB      ZA    FRAG     MASS         X           Y           Z
   0 C     6.0000    0    12.011  -10.041060   -1.270463    3.052475
   1 C     6.0000    0    12.011   -9.427088   -1.896340    0.298955
   2 N     7.0000    0    14.007   -8.159082    0.162516   -0.979445
   3 C     6.0000    0    12.011   -9.784435    1.925820   -2.292805
   4 C     6.0000    0    12.011  -10.185246    1.199031   -5.061631
   5 C     6.0000    0    12.011   -5.601526    0.424244   -0.926911
   6 C     6.0000    0    12.011   -4.358653    2.273341   -2.412046
   7 C     6.0000    0    12.011   -1.790327    2.546973   -2.367449
   8 C     6.0000    0    12.011   -0.260971    0.992295   -0.857369
   9 C     6.0000    0    12.011    2.400141    1.149709   -0.708836
  10 C     6.0000    0    12.011    3.731075   -0.455424    0.816740
  11 C     6.0000    0    12.011    6.451525   -0.291207    0.968107
  12 N     7.0000    0    14.007    7.814962    1.373075   -0.272499
  13 C     6.0000    0    12.011   10.260457    0.892896    0.385126
  14 C     6.0000    0    12.011   12.491090    2.074541   -0.359615
  15 C     6.0000    0    12.011   14.725313    1.171252    0.623610
  16 C     6.0000    0    12.011   14.783517   -0.860392    2.312458
  17 C     6.0000    0    12.011   12.601639   -2.062069    3.081765
  18 C     6.0000    0    12.011   10.342282   -1.166717    2.104777
  19 N     7.0000    0    14.007    7.884126   -1.869128    2.430755
  20 C     6.0000    0    12.011    2.410724   -2.354977    2.309623
  21 O     8.0000    0    15.999    3.403019   -3.877529    3.714257
  22 O     8.0000    0    15.999   -0.150989   -2.439825    2.121973
  23 C     6.0000    0    12.011   -1.484758   -0.856424    0.611326
  24 C     6.0000    0    12.011   -4.083698   -1.127978    0.590350
  25 H     1.0000    0     1.008  -11.001986   -2.854809    3.937244
  26 H     1.0000    0     1.008  -11.263146    0.378512    3.158488
  27 H     1.0000    0     1.008   -8.324622   -0.866250    4.104107
  28 H     1.0000    0     1.008  -11.179998   -2.290915   -0.720553
  29 H     1.0000    0     1.008   -8.262450   -3.596716    0.194831
  30 H     1.0000    0     1.008   -9.001521    3.830853   -2.159012
  31 H     1.0000    0     1.008  -11.608210    1.948119   -1.322997
  32 H     1.0000    0     1.008  -11.046583   -0.661782   -5.196180
  33 H     1.0000    0     1.008   -8.394730    1.149898   -6.065832
  34 H     1.0000    0     1.008  -11.422072    2.559634   -5.976070
  35 H     1.0000    0     1.008   -5.432963    3.495615   -3.633565
  36 H     1.0000    0     1.008   -0.892518    3.971448   -3.519237
  37 H     1.0000    0     1.008    3.418893    2.541115   -1.798263
  38 H     1.0000    0     1.008   12.444602    3.640935   -1.662392
  39 H     1.0000    0     1.008   16.488427    2.047140    0.082770
  40 H     1.0000    0     1.008   16.584614   -1.499876    3.029042
  41 H     1.0000    0     1.008   12.645102   -3.630542    4.386243
  42 H     1.0000    0     1.008    7.141275   -3.254864    3.515269
  43 H     1.0000    0     1.008   -4.864344   -2.564547    1.798830

--------------------------------
INTERNAL COORDINATES (ANGSTROEM)
--------------------------------
 C      0   0   0     0.000000000000     0.00000000     0.00000000
 C      1   0   0     1.529180780680     0.00000000     0.00000000
 N      2   1   0     1.447378146857   112.38514701     0.00000000
 C      3   2   1     1.446883761745   115.74522600   268.19033833
 C      4   3   2     1.529612568594   112.35791530   268.00948290
 C      3   2   1     1.360752236816   121.88112009    87.71300520
 C      6   3   2     1.416922845465   121.37412457   172.81076213
 C      7   6   3     1.366995541324   121.67286046   179.97423717
 C      8   7   6     1.403696046158   121.39699359     0.45517956
 C      9   8   7     1.412849634604   124.87352742   179.86992620
 C     10   9   8     1.367205961075   120.64139193   180.13516594
 C     11  10   9     1.444443069145   120.58251162   180.04345941
 N     12  11  10     1.314224862799   124.03968622     0.96568948
 C     13  12  11     1.363952205908   105.57994908   180.01549055
 C     14  13  12     1.392716432013   130.41395970   180.06152695
 C     15  14  13     1.377326896565   117.69903127   180.06257327
 C     16  15  14     1.398387764535   121.81289386     0.00000000
 C     17  16  15     1.379565286603   121.63708288   359.92923603
 C     18  17  16     1.386086144509   117.01885625     0.02436354
 N     19  18  17     1.363817355807   133.02961434   179.98202865
 C     11  10   9     1.456951862623   120.11674178     0.05978411
 O     21  11  10     1.215474142053   125.57354664   179.69205424
 O     21  11  10     1.359973477683   117.46506352   359.70011408
 C     23  21  11     1.356197039519   122.77852679     0.37944465
 C     24  23  21     1.382831511790   117.26583569   180.15577002
 H      1   2   3     1.086599305172   110.05302619   179.56226362
 H      1   2   3     1.087565565840   110.44251660    59.69547989
 H      1   2   3     1.086487160532   110.67558154   299.86813073
 H      2   1   3     1.093206041879   109.34934680   240.26889451
 H      2   1   3     1.092017280083   110.27040063   122.57179404
 H      4   3   2     1.092210025590   109.79247914   144.88144427
 H      4   3   2     1.093129219260   107.83508076    28.48521678
 H      5   4   3     1.087408465113   110.39736837    59.80692440
 H      5   4   3     1.086654595536   110.70406077   300.06055332
 H      5   4   3     1.086705783550   110.08800699   179.65163180
 H      7   6   3     1.076742982331   120.18083193   359.25148360
 H      8   7   6     1.079548377795   120.11687907   179.97372197
 H     10   9   8     1.079406665720   120.55083549     0.15969914
 H     15  14  13     1.078402860716   120.44198339     0.06332086
 H     16  15  14     1.080384973054   119.49449098   179.99188435
 H     17  16  15     1.080142032327   118.99028895   179.93666610
 H     18  17  16     1.079788446873   121.67737401   180.02035622
 H     20  19  18     1.010751062329   129.82876164     0.41514681
 H     25  24  23     1.075879128899   116.77762445     0.83285595

---------------------------
INTERNAL COORDINATES (A.U.)
---------------------------
 C      0   0   0     0.000000000000     0.00000000     0.00000000
 C      1   0   0     2.889732884740     0.00000000     0.00000000
 N      2   1   0     2.735148309783   112.38514701     0.00000000
 C      3   2   1     2.734214057315   115.74522600   268.19033833
 C      4   3   2     2.890548845646   112.35791530   268.00948290
 C      3   2   1     2.571449063703   121.88112009    87.71300520
 C      6   3   2     2.677596130825   121.37412457   172.81076213
 C      7   6   3     2.583247199394   121.67286046   179.97423717
 C      8   7   6     2.652601102507   121.39699359     0.45517956
 C      9   8   7     2.669898877812   124.87352742   179.86992620
 C     10   9   8     2.583644835097   120.64139193   180.13516594
 C     11  10   9     2.729601816724   120.58251162   180.04345941
 N     12  11  10     2.483525069081   124.03968622     0.96568948
 C     13  12  11     2.577496128923   105.57994908   180.01549055
 C     14  13  12     2.631852638717   130.41395970   180.06152695
 C     15  14  13     2.602770631391   117.69903127   180.06257327
 C     16  15  14     2.642569903997   121.81289386     0.00000000
 C     17  16  15     2.607000575544   121.63708288   359.92923603
 C     18  17  16     2.619323211145   117.01885625     0.02436354
 N     19  18  17     2.577241299164   133.02961434   179.98202865
 C     11  10   9     2.753240010664   120.11674178     0.05978411
 O     21  11  10     2.296913251343   125.57354664   179.69205424
 O     21  11  10     2.569977422217   117.46506352   359.70011408
 C     23  21  11     2.562840988326   122.77852679     0.37944465
 C     24  23  21     2.613172846640   117.26583569   180.15577002
 H      1   2   3     2.053375104084   110.05302619   179.56226362
 H      1   2   3     2.055201072120   110.44251660    59.69547989
 H      1   2   3     2.053163181426   110.67558154   299.86813073
 H      2   1   3     2.065860027099   109.34934680   240.26889451
 H      2   1   3     2.063613592867   110.27040063   122.57179404
 H      4   3   2     2.063977829089   109.79247914   144.88144427
 H      4   3   2     2.065714853389   107.83508076    28.48521678
 H      5   4   3     2.054904194772   110.39736837    59.80692440
 H      5   4   3     2.053479587730   110.70406077   300.06055332
 H      5   4   3     2.053576319057   110.08800699   179.65163180
 H      7   6   3     2.034749353228   120.18083193   359.25148360
 H      8   7   6     2.040050782352   120.11687907   179.97372197
 H     10   9   8     2.039782985339   120.55083549     0.15969914
 H     15  14  13     2.037886068790   120.44198339     0.06332086
 H     16  15  14     2.041631718275   119.49449098   179.99188435
 H     17  16  15     2.041172626836   118.99028895   179.93666610
 H     18  17  16     2.040504447162   121.67737401   180.02035622
 H     20  19  18     1.910042697373   129.82876164     0.41514681
 H     25  24  23     2.033116906820   116.77762445     0.83285595

---------------------
BASIS SET INFORMATION
---------------------
There are 4 groups of distinct atoms

 Group   1 Type C   : 19s6p3d2f contracted to 5s4p3d2f pattern {88111/3111/111/11}
 Group   2 Type N   : 19s6p3d2f contracted to 5s4p3d2f pattern {88111/3111/111/11}
 Group   3 Type O   : 19s6p3d2f contracted to 5s4p3d2f pattern {88111/3111/111/11}
 Group   4 Type H   : 5s2p1d contracted to 3s2p1d pattern {311/11/1}

Atom   0C    basis set group =>   1
Atom   1C    basis set group =>   1
Atom   2N    basis set group =>   2
Atom   3C    basis set group =>   1
Atom   4C    basis set group =>   1
Atom   5C    basis set group =>   1
Atom   6C    basis set group =>   1
Atom   7C    basis set group =>   1
Atom   8C    basis set group =>   1
Atom   9C    basis set group =>   1
Atom  10C    basis set group =>   1
Atom  11C    basis set group =>   1
Atom  12N    basis set group =>   2
Atom  13C    basis set group =>   1
Atom  14C    basis set group =>   1
Atom  15C    basis set group =>   1
Atom  16C    basis set group =>   1
Atom  17C    basis set group =>   1
Atom  18C    basis set group =>   1
Atom  19N    basis set group =>   2
Atom  20C    basis set group =>   1
Atom  21O    basis set group =>   3
Atom  22O    basis set group =>   3
Atom  23C    basis set group =>   1
Atom  24C    basis set group =>   1
Atom  25H    basis set group =>   4
Atom  26H    basis set group =>   4
Atom  27H    basis set group =>   4
Atom  28H    basis set group =>   4
Atom  29H    basis set group =>   4
Atom  30H    basis set group =>   4
Atom  31H    basis set group =>   4
Atom  32H    basis set group =>   4
Atom  33H    basis set group =>   4
Atom  34H    basis set group =>   4
Atom  35H    basis set group =>   4
Atom  36H    basis set group =>   4
Atom  37H    basis set group =>   4
Atom  38H    basis set group =>   4
Atom  39H    basis set group =>   4
Atom  40H    basis set group =>   4
Atom  41H    basis set group =>   4
Atom  42H    basis set group =>   4
Atom  43H    basis set group =>   4
---------------------------------
AUXILIARY/J BASIS SET INFORMATION
---------------------------------
There are 4 groups of distinct atoms

 Group   1 Type C   : 10s7p5d2f1g contracted to 10s7p5d2f1g pattern {1111111111/1111111/11111/11/1}
 Group   2 Type N   : 10s7p5d2f1g contracted to 10s7p5d2f1g pattern {1111111111/1111111/11111/11/1}
 Group   3 Type O   : 10s7p5d2f1g contracted to 10s7p5d2f1g pattern {1111111111/1111111/11111/11/1}
 Group   4 Type H   : 4s3p2d1f contracted to 4s3p2d1f pattern {1111/111/11/1}

Atom   0C    basis set group =>   1
Atom   1C    basis set group =>   1
Atom   2N    basis set group =>   2
Atom   3C    basis set group =>   1
Atom   4C    basis set group =>   1
Atom   5C    basis set group =>   1
Atom   6C    basis set group =>   1
Atom   7C    basis set group =>   1
Atom   8C    basis set group =>   1
Atom   9C    basis set group =>   1
Atom  10C    basis set group =>   1
Atom  11C    basis set group =>   1
Atom  12N    basis set group =>   2
Atom  13C    basis set group =>   1
Atom  14C    basis set group =>   1
Atom  15C    basis set group =>   1
Atom  16C    basis set group =>   1
Atom  17C    basis set group =>   1
Atom  18C    basis set group =>   1
Atom  19N    basis set group =>   2
Atom  20C    basis set group =>   1
Atom  21O    basis set group =>   3
Atom  22O    basis set group =>   3
Atom  23C    basis set group =>   1
Atom  24C    basis set group =>   1
Atom  25H    basis set group =>   4
Atom  26H    basis set group =>   4
Atom  27H    basis set group =>   4
Atom  28H    basis set group =>   4
Atom  29H    basis set group =>   4
Atom  30H    basis set group =>   4
Atom  31H    basis set group =>   4
Atom  32H    basis set group =>   4
Atom  33H    basis set group =>   4
Atom  34H    basis set group =>   4
Atom  35H    basis set group =>   4
Atom  36H    basis set group =>   4
Atom  37H    basis set group =>   4
Atom  38H    basis set group =>   4
Atom  39H    basis set group =>   4
Atom  40H    basis set group =>   4
Atom  41H    basis set group =>   4
Atom  42H    basis set group =>   4
Atom  43H    basis set group =>   4
---------------------------------
AUXILIARY/C BASIS SET INFORMATION
---------------------------------
There are 4 groups of distinct atoms

 Group   1 Type C   : 9s7p6d4f2g contracted to 9s7p6d4f2g pattern {111111111/1111111/111111/1111/11}
 Group   2 Type N   : 9s7p6d4f2g contracted to 9s7p6d4f2g pattern {111111111/1111111/111111/1111/11}
 Group   3 Type O   : 9s7p6d4f2g contracted to 9s7p6d4f2g pattern {111111111/1111111/111111/1111/11}
 Group   4 Type H   : 4s3p2d1f contracted to 4s3p2d1f pattern {1111/111/11/1}

Atom   0C    basis set group =>   1
Atom   1C    basis set group =>   1
Atom   2N    basis set group =>   2
Atom   3C    basis set group =>   1
Atom   4C    basis set group =>   1
Atom   5C    basis set group =>   1
Atom   6C    basis set group =>   1
Atom   7C    basis set group =>   1
Atom   8C    basis set group =>   1
Atom   9C    basis set group =>   1
Atom  10C    basis set group =>   1
Atom  11C    basis set group =>   1
Atom  12N    basis set group =>   2
Atom  13C    basis set group =>   1
Atom  14C    basis set group =>   1
Atom  15C    basis set group =>   1
Atom  16C    basis set group =>   1
Atom  17C    basis set group =>   1
Atom  18C    basis set group =>   1
Atom  19N    basis set group =>   2
Atom  20C    basis set group =>   1
Atom  21O    basis set group =>   3
Atom  22O    basis set group =>   3
Atom  23C    basis set group =>   1
Atom  24C    basis set group =>   1
Atom  25H    basis set group =>   4
Atom  26H    basis set group =>   4
Atom  27H    basis set group =>   4
Atom  28H    basis set group =>   4
Atom  29H    basis set group =>   4
Atom  30H    basis set group =>   4
Atom  31H    basis set group =>   4
Atom  32H    basis set group =>   4
Atom  33H    basis set group =>   4
Atom  34H    basis set group =>   4
Atom  35H    basis set group =>   4
Atom  36H    basis set group =>   4
Atom  37H    basis set group =>   4
Atom  38H    basis set group =>   4
Atom  39H    basis set group =>   4
Atom  40H    basis set group =>   4
Atom  41H    basis set group =>   4
Atom  42H    basis set group =>   4
Atom  43H    basis set group =>   4


           ************************************************************
           *        Program running with 4 parallel MPI-processes     *
           *              working on a common directory               *
           ************************************************************
------------------------------------------------------------------------------
                           ORCA GTO INTEGRAL CALCULATION
                           -- RI-GTO INTEGRALS CHOSEN --
------------------------------------------------------------------------------
------------------------------------------------------------------------------
                   ___                                                        
                  /   \      - P O W E R E D   B Y -                         
                 /     \                                                     
                 |  |  |   _    _      __       _____    __    __             
                 |  |  |  | |  | |    /  \     |  _  \  |  |  /  |          
                  \  \/   | |  | |   /    \    | | | |  |  | /  /          
                 / \  \   | |__| |  /  /\  \   | |_| |  |  |/  /          
                |  |  |   |  __  | /  /__\  \  |    /   |      \           
                |  |  |   | |  | | |   __   |  |    \   |  |\   \          
                \     /   | |  | | |  |  |  |  | |\  \  |  | \   \       
                 \___/    |_|  |_| |__|  |__|  |_| \__\ |__|  \__/        
                                                                              
                      - O R C A' S   B I G   F R I E N D -                    
                                      &                                       
                       - I N T E G R A L  F E E D E R -                       
                                                                              
 v1 FN, 2020, v2 2021                                                         
------------------------------------------------------------------------------


Reading SHARK input file x3lyp-train-12.SHARKINP.tmp ... ok
----------------------
SHARK INTEGRAL PACKAGE
----------------------

Number of atoms                             ...     44
Number of basis functions                   ...   1566
Number of shells                            ...    614
Maximum angular momentum                    ...      3
Integral batch strategy                     ... SHARK/LIBINT Hybrid
RI-J (if used) integral strategy            ... SPLIT-RIJ (Revised 2003 algorithm where possible)
Printlevel                                  ...      1
Contraction scheme used                     ... PARTIAL GENERAL contraction
Coulomb Range Separation                    ... NOT USED
Exchange Range Separation                   ... NOT USED
Finite Nucleus Model                        ... NOT USED
Auxiliary Coulomb fitting basis             ... AVAILABLE
   # of basis functions in Aux-J            ...   2545
   # of shells in Aux-J                     ...    815
   Maximum angular momentum in Aux-J        ...      4
Auxiliary J/K fitting basis                 ... NOT available
Auxiliary Correlation fitting basis         ... AVAILABLE
   # of basis functions in Aux-C            ...   3220
   # of shells in Aux-C                     ...    890
   Maximum angular momentum in Aux-C        ...      4
Auxiliary 'external' fitting basis          ... NOT available
Integral threshold                          ...     2.500000e-11
Primitive cut-off                           ...     2.500000e-12
Primitive pair pre-selection threshold      ...     2.500000e-12

Calculating pre-screening integrals         ... done (  0.4 sec) Dimension = 614
Calculating pre-screening integrals (ORCA)  ... done (  0.9 sec) Dimension = 464
Organizing shell pair data                  ... done (  3.7 sec)
Shell pair information
Total number of shell pairs                 ...    188805
Shell pairs after pre-screening             ...    105438
Total number of primitive shell pairs       ...    246885
Primitive shell pairs kept                  ...    123383
          la=0 lb=0:  23890 shell pairs
          la=1 lb=0:  27567 shell pairs
          la=1 lb=1:   6882 shell pairs
          la=2 lb=0:  17422 shell pairs
          la=2 lb=1:   8867 shell pairs
          la=2 lb=2:   2946 shell pairs
          la=3 lb=0:   9188 shell pairs
          la=3 lb=1:   4712 shell pairs
          la=3 lb=2:   3101 shell pairs
          la=3 lb=3:    863 shell pairs

Calculating one electron integrals          ... done (  0.4 sec)
Calculating RI/J V-Matrix + Cholesky decomp.... done (  0.6 sec)
Calculating RI/C V-Matrix + Cholesky decomp.... done (  0.9 sec)
Calculating Nuclear repulsion               ... done (  0.0 sec) ENN=   2009.678569578428 Eh

SHARK setup successfully completed in   8.9 seconds

Maximum memory used throughout the entire GTOINT-calculation: 175.6 MB


           ************************************************************
           *        Program running with 4 parallel MPI-processes     *
           *              working on a common directory               *
           ************************************************************
-------------------------------------------------------------------------------
                                 ORCA SCF
-------------------------------------------------------------------------------

------------
SCF SETTINGS
------------
Hamiltonian:
 Density Functional     Method          .... DFT(GTOs)
 Exchange Functional    Exchange        .... X
 Correlation Functional Correlation     .... LYP
 LDA part of GGA corr.  LDAOpt          .... VWN-5
 Gradients option       PostSCFGGA      .... off
 Hybrid DFT is turned on
   Fraction HF Exchange ScalHFX         ....  0.218000
   Scaling of DF-GGA-X  ScalDFX         ....  0.709000
   Scaling of DF-GGA-C  ScalDFC         ....  0.871000
   Scaling of DF-LDA-C  ScalLDAC        ....  1.000000
   Perturbative correction              ....  0.000000
   Density functional embedding theory  .... OFF
 RI-approximation to the Coulomb term is turned on
   Number of AuxJ basis functions       .... 2545
   RIJ-COSX (HFX calculated with COS-X)).... on


General Settings:
 Integral files         IntName         .... x3lyp-train-12
 Hartree-Fock type      HFTyp           .... RHF
 Total Charge           Charge          ....    0
 Multiplicity           Mult            ....    1
 Number of Electrons    NEL             ....  176
 Basis Dimension        Dim             .... 1416
 Nuclear Repulsion      ENuc            ....   2009.6785695784 Eh

Convergence Acceleration:
 DIIS                   CNVDIIS         .... on
   Start iteration      DIISMaxIt       ....    12
   Startup error        DIISStart       ....  0.200000
   # of expansion vecs  DIISMaxEq       ....     5
   Bias factor          DIISBfac        ....   1.050
   Max. coefficient     DIISMaxC        ....  10.000
 Trust-Rad. Augm. Hess. CNVTRAH         .... auto
   Auto Start mean grad. ratio tolernc. ....  1.125000
   Auto Start start iteration           ....    20
   Auto Start num. interpolation iter.  ....    10
   Max. Number of Micro iterations      ....    16
   Max. Number of Macro iterations      .... Maxiter - #DIIS iter
   Number of Davidson start vectors     ....     2
   Converg. threshold I  (grad. norm)   ....   1.000e-05
   Converg. threshold II (energy diff.) ....   1.000e-08
   Grad. Scal. Fac. for Micro threshold ....   0.100
   Minimum threshold for Micro iter.    ....   0.010
   NR start threshold (gradient norm)   ....   0.001
   Initial trust radius                 ....   0.400
   Minimum AH scaling param. (alpha)    ....   1.000
   Maximum AH scaling param. (alpha)    .... 1000.000
   Orbital update algorithm             .... Taylor
   White noise on init. David. guess    .... on
   Maximum white noise                  ....   0.010
   Quad. conv. algorithm                .... NR
 SOSCF                  CNVSOSCF        .... on
   Start iteration      SOSCFMaxIt      ....   150
   Startup grad/error   SOSCFStart      ....  0.003300
 Level Shifting         CNVShift        .... on
   Level shift para.    LevelShift      ....    0.2500
   Turn off err/grad.   ShiftErr        ....    0.0010
 Zerner damping         CNVZerner       .... off
 Static damping         CNVDamp         .... on
   Fraction old density DampFac         ....    0.7000
   Max. Damping (<1)    DampMax         ....    0.9800
   Min. Damping (>=0)   DampMin         ....    0.0000
   Turn off err/grad.   DampErr         ....    0.1000
 Fernandez-Rico         CNVRico         .... off

SCF Procedure:
 Maximum # iterations   MaxIter         ....   125
 SCF integral mode      SCFMode         .... Direct
   Integral package                     .... SHARK and LIBINT hybrid scheme
 Reset frequency        DirectResetFreq ....    20
 Integral Threshold     Thresh          ....  2.500e-11 Eh
 Primitive CutOff       TCut            ....  2.500e-12 Eh

Convergence Tolerance:
 Convergence Check Mode ConvCheckMode   .... Total+1el-Energy
 Convergence forced     ConvForced      .... 0
 Energy Change          TolE            ....  1.000e-08 Eh
 1-El. energy change                    ....  1.000e-05 Eh
 Orbital Gradient       TolG            ....  1.000e-05
 Orbital Rotation angle TolX            ....  1.000e-05
 DIIS Error             TolErr          ....  5.000e-07


Diagonalization of the overlap matrix:
Smallest eigenvalue                        ... 1.212e-07
Time for diagonalization                   ...    0.488 sec
Threshold for overlap eigenvalues          ... 1.000e-08
Number of eigenvalues below threshold      ... 0
Time for construction of square roots      ...    0.379 sec
Total time needed                          ...    0.878 sec

Time for model grid setup =    1.105 sec

------------------------------
INITIAL GUESS: MODEL POTENTIAL
------------------------------
Loading Hartree-Fock densities                     ... done
Calculating cut-offs                               ... done
Initializing the effective Hamiltonian             ... done
Setting up the integral package (SHARK)            ... done
Starting the Coulomb interaction                   ... done (   4.9 sec)
Reading the grid                                   ... done
Mapping shells                                     ... done
Starting the XC term evaluation                    ... done (   3.5 sec)
  promolecular density results
     # of electrons  =    175.988518205
     EX              =   -145.708889921
     EC              =     -6.014511642
     EX+EC           =   -151.723401563
Transforming the Hamiltonian                       ... done (   0.3 sec)
Diagonalizing the Hamiltonian                      ... done (   0.5 sec)
Back transforming the eigenvectors                 ... done (   0.1 sec)
Now organizing SCF variables                       ... done
                      ------------------
                      INITIAL GUESS DONE (  10.6 sec)
                      ------------------
-------------------
DFT GRID GENERATION
-------------------

General Integration Accuracy     IntAcc      ... 4.388
Radial Grid Type                 RadialGrid  ... OptM3 with GC (2021)
Angular Grid (max. ang.)         AngularGrid ... 4 (Lebedev-302)
Angular grid pruning method      GridPruning ... 4 (adaptive)
Weight generation scheme         WeightScheme... Becke
Basis function cutoff            BFCut       ... 1.0000e-11
Integration weight cutoff        WCut        ... 1.0000e-14
Angular grids for H and He will be reduced by one unit
Partially contracted basis set               ... off
Rotationally invariant grid construction     ... off

Total number of grid points                  ...   215839
Total number of batches                      ...     3396
Average number of points per batch           ...       63
Average number of grid points per atom       ...     4905
Time for grid setup =    3.630 sec

--------------------
COSX GRID GENERATION
--------------------

GRIDX 1
-------
General Integration Accuracy     IntAcc      ... 3.816
Radial Grid Type                 RadialGrid  ... OptM3 with GC (2021)
Angular Grid (max. ang.)         AngularGrid ... 1 (Lebedev-50)
Angular grid pruning method      GridPruning ... 4 (adaptive)
Weight generation scheme         WeightScheme... Becke
Basis function cutoff            BFCut       ... 1.0000e-11
Integration weight cutoff        WCut        ... 1.0000e-14
Angular grids for H and He will be reduced by one unit
Partially contracted basis set               ... on
Rotationally invariant grid construction     ... off

Total number of grid points                  ...    27389
Total number of batches                      ...      448
Average number of points per batch           ...       61
Average number of grid points per atom       ...      622
UseSFitting                                  ... on

GRIDX 2
-------
General Integration Accuracy     IntAcc      ... 4.020
Radial Grid Type                 RadialGrid  ... OptM3 with GC (2021)
Angular Grid (max. ang.)         AngularGrid ... 2 (Lebedev-110)
Angular grid pruning method      GridPruning ... 4 (adaptive)
Weight generation scheme         WeightScheme... Becke
Basis function cutoff            BFCut       ... 1.0000e-11
Integration weight cutoff        WCut        ... 1.0000e-14
Angular grids for H and He will be reduced by one unit
Partially contracted basis set               ... on
Rotationally invariant grid construction     ... off

Total number of grid points                  ...    64462
Total number of batches                      ...     1031
Average number of points per batch           ...       62
Average number of grid points per atom       ...     1465
UseSFitting                                  ... on

GRIDX 3
-------
General Integration Accuracy     IntAcc      ... 4.338
Radial Grid Type                 RadialGrid  ... OptM3 with GC (2021)
Angular Grid (max. ang.)         AngularGrid ... 3 (Lebedev-194)
Angular grid pruning method      GridPruning ... 4 (adaptive)
Weight generation scheme         WeightScheme... Becke
Basis function cutoff            BFCut       ... 1.0000e-11
Integration weight cutoff        WCut        ... 1.0000e-14
Angular grids for H and He will be reduced by one unit
Partially contracted basis set               ... on
Rotationally invariant grid construction     ... off

Total number of grid points                  ...   139029
Total number of batches                      ...     2197
Average number of points per batch           ...       63
Average number of grid points per atom       ...     3160
UseSFitting                                  ... on

Time for X-Grid setup             =   10.828 sec


--------------------
CPCM SOLVATION MODEL
--------------------
CPCM parameters:
  Epsilon                                         ...      24.8520
  Refrac                                          ...       1.3611
  Rsolv                                           ...       1.3000
  Surface type                                    ... GAUSSIAN VDW
  Epsilon function type                           ...         CPCM
Solvent:                                     ... ETHANOL
SMD-CDS solvent descriptors:
  Soln                                       ...    1.3611
  Soln25                                     ...    1.3593
  Sola                                       ...    0.3700
  Solb                                       ...    0.4800
  Solg                                       ...   31.6200
  Solc                                       ...    0.0000
  Solh                                       ...    0.0000
Radii:
 Radius for C  used is    3.4960 Bohr (=   1.8500 Ang.)
 Radius for N  used is    3.5716 Bohr (=   1.8900 Ang.)
 Radius for O  used is    3.0765 Bohr (=   1.6280 Ang.)
 Radius for H  used is    2.2677 Bohr (=   1.2000 Ang.)
Calculating surface                               ...        done! (  0.0s)
GEPOL surface points                              ...         2494
GEPOL Volume                                      ...    2250.5754
GEPOL Surface-area                                ...    1252.7328
Calculating surface distance matrix               ...        done! (  0.1s)
Performing Cholesky decomposition & store         ...        done! (  1.0s)
Overall time for CPCM initialization              ...                 1.1s
 re-compute Schwartz prescreening matrix in partically contracted basis (1) ...done (   0.331 sec)
--------------
SCF ITERATIONS
--------------
ITER       Energy         Delta-E        Max-DP      RMS-DP      [F,P]     Damp
               ***  Starting incremental Fock matrix formation  ***
  0  -1087.1077754231   0.000000000000 0.37074767  0.00189862  0.3135164 0.7000
  1  -1087.4208086411  -0.313033217997 0.32644904  0.00160261  0.1180645 0.7000
                               ***Turning on DIIS***
  2  -1087.5510940519  -0.130285410801 0.83543920  0.00366513  0.0427917 0.0000
  3  -1087.7500612341  -0.198967182210 0.07128445  0.00057406  0.0589257 0.0000
  4  -1087.7947930595  -0.044731825471 0.03964656  0.00025605  0.0172359 0.0000
  5  -1087.7971491299  -0.002356070348 0.02253432  0.00012078  0.0137758 0.0000
                      *** Initiating the SOSCF procedure ***
                           *** Shutting down DIIS ***
                      *** Re-Reading the Fockian *** 
                      *** Removing any level shift *** 
ITER      Energy       Delta-E        Grad      Rot      Max-DP    RMS-DP
  6  -1087.79743329  -0.0002841651  0.000367  0.000367  0.034318  0.000118
               *** Restarting incremental Fock matrix formation ***
  7  -1087.79744267  -0.0000093780  0.000182  0.000915  0.209281  0.001189
  8  -1087.79744392  -0.0000012489  0.000185  0.000643  0.064364  0.000362
  9  -1087.79744922  -0.0000052934  0.000056  0.000235  0.110749  0.000463
 10  -1087.79744966  -0.0000004457  0.000041  0.000095  0.032731  0.000181
 11  -1087.79744984  -0.0000001755  0.000022  0.000116  0.080230  0.000250
 12  -1087.79744984  -0.0000000083  0.000012  0.000036  0.075815  0.000243
 13  -1087.79744991  -0.0000000658  0.000006  0.000016  0.102567  0.000402
 14  -1087.79744991  -0.0000000016  0.000003  0.000009  0.094197  0.000250
 15  -1087.79744988   0.0000000359  0.000003  0.000012  0.055466  0.000271
 16  -1087.79744985   0.0000000289  0.000004  0.000009  0.115322  0.000429
                  ***Gradient check signals convergence***
              ***Rediagonalizing the Fockian in SOSCF/NRSCF***

               *****************************************************
               *                     SUCCESS                       *
               *           SCF CONVERGED AFTER  17 CYCLES          *
               *****************************************************

Old exchange energy                            =    -32.041210146 Eh
New exchange energy                            =    -32.041179415 Eh
Exchange energy change after final integration =      0.000030730 Eh
Total energy after final integration           =  -1087.797419155 Eh
Final COS-X integration done in                =   260.522 sec

SMD CDS free energy correction energy :                -1.25716     Kcal/mol
Total Energy after SMD CDS correction =             -1087.799422563 Eh

----------------
TOTAL SCF ENERGY
----------------

Total Energy       :        -1087.79942256 Eh          -29600.52715 eV

Components:
[...]
B( 17-C , 19-N ) :  -0.1159 B( 17-C , 41-H ) :   0.9695 B( 18-C , 19-N ) :   0.7451 
B( 19-N , 42-H ) :   1.1310 B( 20-C , 21-O ) :   0.7757 B( 20-C , 22-O ) :   0.9161 
B( 20-C , 23-C ) :   0.4271 B( 21-O , 24-C ) :   0.1666 B( 22-O , 24-C ) :   0.4268 
B( 23-C , 24-C ) :   0.4475 B( 24-C , 43-H ) :   1.1402 

-------
TIMINGS
-------

Total SCF time: 0 days 0 hours 16 min 12 sec 

Total time                  ....     972.153 sec
Sum of individual times     ....     963.596 sec  ( 99.1%)

Fock matrix formation       ....     944.449 sec  ( 97.2%)
  Split-RI-J                ....      51.814 sec  (  5.5% of F)
  Chain of spheres X        ....     807.476 sec  ( 85.5% of F)
  XC integration            ....      43.070 sec  (  4.6% of F)
    Basis function eval.    ....       7.853 sec  ( 18.2% of XC)
    Density eval.           ....      21.273 sec  ( 49.4% of XC)
    XC-Functional eval.     ....       0.628 sec  (  1.5% of XC)
    XC-Potential eval.      ....      12.312 sec  ( 28.6% of XC)
Diagonalization             ....       0.853 sec  (  0.1%)
Density matrix formation    ....       0.203 sec  (  0.0%)
Population analysis         ....       1.345 sec  (  0.1%)
Initial guess               ....       1.659 sec  (  0.2%)
Orbital Transformation      ....       0.000 sec  (  0.0%)
Orbital Orthonormalization  ....       1.511 sec  (  0.2%)
DIIS solution               ....       0.444 sec  (  0.0%)
SOSCF solution              ....       2.645 sec  (  0.3%)
Grid generation             ....      11.997 sec  (  1.2%)

Maximum memory used throughout the entire SCF-calculation: 449.2 MB


           ************************************************************
           *        Program running with 4 parallel MPI-processes     *
           *              working on a common directory               *
           ************************************************************
------------------------------------------------------------------------------
                        ORCA TD-DFT/TDA CALCULATION
------------------------------------------------------------------------------

Input orbitals are from        ... x3lyp-train-12_job2.gbw
CI-vector output               ... x3lyp-train-12_job2.cis
Tamm-Dancoff approximation     ... operative
CIS-Integral strategy          ... AO-integrals
Integral handling              ... AO integral Direct
Max. core memory used          ... 4000 MB
Reference state                ... RHF
Generation of triplets         ... off
Follow IRoot                   ... off
Number of operators            ... 1
Orbital ranges used for CIS calculation:
 Operator 0:  Orbitals  25... 87  to  88...1415
XAS localization array:
 Operator 0:  Orbitals  -1... -1

-------------------
XC-INTEGRATION GRID
-------------------

General Integration Accuracy     IntAcc      ... 3.467
Radial Grid Type                 RadialGrid  ... OptM3 with GC (2021)
Angular Grid (max. ang.)         AngularGrid ... 1 (Lebedev-50)
Angular grid pruning method      GridPruning ... 4 (adaptive)
Weight generation scheme         WeightScheme... Becke
Basis function cutoff            BFCut       ... 1.0000e-11
Integration weight cutoff        WCut        ... 1.0000e-14
Angular grids for H and He will be reduced by one unit
Partially contracted basis set               ... off
Rotationally invariant grid construction     ... off

Total number of grid points                  ...    31770
Total number of batches                      ...      517
Average number of points per batch           ...       61
Average number of grid points per atom       ...      722

---------------------
COSX-INTEGRATION GRID
---------------------

General Integration Accuracy     IntAcc      ... 3.067
Radial Grid Type                 RadialGrid  ... OptM3 with GC (2021)
Angular Grid (max. ang.)         AngularGrid ... 1 (Lebedev-50)
Angular grid pruning method      GridPruning ... 4 (adaptive)
Weight generation scheme         WeightScheme... Becke
Basis function cutoff            BFCut       ... 1.0000e-11
Integration weight cutoff        WCut        ... 1.0000e-14
Angular grids for H and He will be reduced by one unit
Partially contracted basis set               ... on
Rotationally invariant grid construction     ... off

Total number of grid points                  ...    14541
Total number of batches                      ...      255
Average number of points per batch           ...       57
Average number of grid points per atom       ...      330

---------------
TD-DFT XC SETUP
---------------

DFT calculation                         ... on
Name of the grid file                   ... x3lyp-train-12_job2.grid_cis.tmp
Exchange functional (TD-DFT)            ... X
Correlation functional (TD-DFT)         ... LYP
 LDA part of GGA corr.  LDAOpt (TD-DFT) ... VWN-5
Hybrid DFT                              ... on
   Exchange mixing (TD-DFT)             ...  0.218
   GGA exch. scaling (TD-DFT)           ...  0.709
   GGA corr. scaling (TD-DFT)           ...  0.871

Building densities             ... done
Calculating rho(r) on the grid ... done
Building xc-kernel on the grid ... done
                    *** TD-DFT CALCULATION INITIALIZED ***

---------------------------------
    LR-CPCM (non-equilibrium)
---------------------------------

Setting up LR-CPCM             ... done

------------------------
DAVIDSON-DIAGONALIZATION
------------------------

Dimension of the eigenvalue problem            ...  83664
Number of roots to be determined               ...     10
Maximum size of the expansion space            ...     70
Maximum number of iterations                   ...    100
Convergence tolerance for the residual         ...    1.000e-06
Convergence tolerance for the energies         ...    1.000e-06
Orthogonality tolerance                        ...    1.000e-14
Level Shift                                    ...    0.000e+00
Constructing the preconditioner                ... o.k.
Building the initial guess                     ... o.k.
Number of trial vectors determined             ...     70


                       ****Iteration    0****

   Memory handling for direct AO based CIS:
   Memory per vector needed      ...    91 MB
   Memory needed                 ...  2753 MB
   Memory available              ...  4000 MB
   Number of vectors per batch   ...    43
   Number of batches             ...     1
   Time for densities:            1.287
   Time for RI-J (Direct):       38.295
   Time for K (COSX):           232.699
   Time for XC-Integration:      75.352
   Time for LR-CPCM terms:       44.935
   Time for Sigma-Completion:     0.999
   Size of expansion space: 30
   Lowest Energy          :     0.124421381497
   Maximum Energy change  :     0.184756174543 (vector 9)
   Maximum residual norm  :     0.013080217141

                       ****Iteration    1****
   Time for densities:            0.458
   Time for RI-J (Direct):       22.411
   Time for K (COSX):            82.774
   Time for XC-Integration:      25.899
   Time for LR-CPCM terms:       20.460
   Time for Sigma-Completion:     0.354
   Size of expansion space: 40
   Lowest Energy          :     0.112260673373
   Maximum Energy change  :     0.012160708124 (vector 0)
   Maximum residual norm  :     0.000378906671

                       ****Iteration    2****
   Time for densities:            0.453
   Time for RI-J (Direct):       22.475
   Time for K (COSX):            82.913
   Time for XC-Integration:      27.210
   Time for LR-CPCM terms:       20.747
   Time for Sigma-Completion:     0.328
   Size of expansion space: 50
   Lowest Energy          :     0.111877540523
   Maximum Energy change  :     0.001024497622 (vector 8)
   Maximum residual norm  :     0.000103966448

                       ****Iteration    3****
   Time for densities:            0.446
   Time for RI-J (Direct):       22.755
   Time for K (COSX):            82.210
   Time for XC-Integration:      26.705
   Time for LR-CPCM terms:       20.727
   Time for Sigma-Completion:     0.361
   Size of expansion space: 60
   Lowest Energy          :     0.111845351688
   Maximum Energy change  :     0.000338473518 (vector 8)
   Maximum residual norm  :     0.000033652295

                       ****Iteration    4****
   Time for densities:            0.458
   Time for RI-J (Direct):       22.167
   Time for K (COSX):            85.317
   Time for XC-Integration:      29.678
   Time for LR-CPCM terms:       20.779
   Time for Sigma-Completion:     0.333
   Size of expansion space: 70
   Lowest Energy          :     0.111843948057
   Maximum Energy change  :     0.000046026259 (vector 8)
   Maximum residual norm  :     0.000003272509
   Rebuilding the expansion space

                       ****Iteration    5****
   Time for densities:            0.909
   Time for RI-J (Direct):       30.183
   Time for K (COSX):           160.882
   Time for XC-Integration:      53.222
   Time for LR-CPCM terms:       32.919
   Time for Sigma-Completion:     0.665
   Size of expansion space: 20
   Lowest Energy          :     0.111843639579
   Maximum Energy change  :     0.000005880503 (vector 8)
   Maximum residual norm  :     0.000000709112

      *** CONVERGENCE OF RESIDUAL NORM REACHED ***

Storing the converged CI vectors               ... x3lyp-train-12_job2.cis1

                 *** DAVIDSON DONE ***

Total time for solving the CIS problem:  1295.959sec

------------------------------------
TD-DFT/TDA EXCITED STATES (SINGLETS)
------------------------------------

the weight of the individual excitations are printed if larger than 1.0e-02

STATE  1:  E=   0.111844 au      3.043 eV    24546.8 cm**-1 <S**2> =   0.000000
    87a ->  88a  :     0.956494 (c=  0.97800525)

STATE  2:  E=   0.140165 au      3.814 eV    30762.7 cm**-1 <S**2> =   0.000000
    85a ->  88a  :     0.154648 (c= -0.39325265)
    86a ->  88a  :     0.815687 (c=  0.90315367)

STATE  3:  E=   0.146814 au      3.995 eV    32222.0 cm**-1 <S**2> =   0.000000
    84a ->  88a  :     0.012614 (c= -0.11231391)
    85a ->  88a  :     0.794502 (c=  0.89134863)
    86a ->  88a  :     0.129492 (c=  0.35984999)
    87a ->  93a  :     0.010434 (c= -0.10214699)

STATE  4:  E=   0.151406 au      4.120 eV    33229.7 cm**-1 <S**2> =   0.000000
    84a ->  88a  :     0.260591 (c= -0.51048098)
    87a ->  89a  :     0.566964 (c=  0.75297018)
    87a ->  90a  :     0.118148 (c=  0.34372682)

STATE  5:  E=   0.156210 au      4.251 eV    34284.1 cm**-1 <S**2> =   0.000000
    84a ->  88a  :     0.418396 (c= -0.64683543)
    87a ->  89a  :     0.384265 (c= -0.61989137)
    87a ->  90a  :     0.166543 (c=  0.40809681)

STATE  6:  E=   0.164970 au      4.489 eV    36206.8 cm**-1 <S**2> =   0.000000
    84a ->  88a  :     0.278849 (c= -0.52806128)
    87a ->  90a  :     0.659482 (c= -0.81208527)

STATE  7:  E=   0.170322 au      4.635 eV    37381.4 cm**-1 <S**2> =   0.000000
    87a ->  91a  :     0.930011 (c= -0.96437069)
    87a ->  94a  :     0.017157 (c= -0.13098644)
    87a ->  95a  :     0.020518 (c= -0.14324249)

STATE  8:  E=   0.177755 au      4.837 eV    39012.7 cm**-1 <S**2> =   0.000000
    86a ->  91a  :     0.013146 (c= -0.11465607)
    87a ->  92a  :     0.879420 (c=  0.93777417)
    87a ->  93a  :     0.034666 (c= -0.18618917)
    87a ->  94a  :     0.016492 (c=  0.12842251)
    87a ->  99a  :     0.012515 (c= -0.11187032)

STATE  9:  E=   0.179926 au      4.896 eV    39489.2 cm**-1 <S**2> =   0.000000
    83a ->  88a  :     0.026900 (c=  0.16401355)
    85a ->  89a  :     0.049354 (c= -0.22215843)
    86a ->  89a  :     0.017955 (c=  0.13399559)
    86a ->  96a  :     0.017042 (c=  0.13054677)
    87a ->  92a  :     0.026196 (c= -0.16185105)
    87a ->  93a  :     0.762368 (c= -0.87313706)
    87a ->  97a  :     0.020714 (c=  0.14392476)

STATE 10:  E=   0.181215 au      4.931 eV    39772.0 cm**-1 <S**2> =   0.000000
    81a ->  88a  :     0.011559 (c= -0.10751423)
    82a ->  88a  :     0.960490 (c= -0.98004577)


-----------------------------
TD-DFT/TDA-EXCITATION SPECTRA
-----------------------------

Center of mass = (  1.5492, -0.2160,  0.3966)
Calculating the Dipole integrals                  ... done
Transforming integrals                            ... done
Calculating the Linear Momentum integrals         ... done
Transforming integrals                            ... done
Calculating angular momentum integrals            ... done
Transforming integrals                            ... done

-----------------------------------------------------------------------------
         ABSORPTION SPECTRUM VIA TRANSITION ELECTRIC DIPOLE MOMENTS
-----------------------------------------------------------------------------
State   Energy    Wavelength  fosc         T2        TX        TY        TZ  
        (cm-1)      (nm)                 (au**2)    (au)      (au)      (au) 
-----------------------------------------------------------------------------
   1   24546.8    407.4   1.489183347  19.97230   4.37652  -0.41543   0.80363
   2   30762.7    325.1   0.041441207   0.44349   0.57173  -0.21886   0.26215
   3   32222.0    310.3   0.002520657   0.02575   0.00810   0.13296  -0.08950
   4   33229.7    300.9   0.123578743   1.22431   0.93080   0.51170  -0.30999
   5   34284.1    291.7   0.314287186   3.01794  -1.69982  -0.33448   0.12908
   6   36206.8    276.2   0.026284243   0.23899   0.25926  -0.33407   0.24530
   7   37381.4    267.5   0.006999425   0.06164   0.02774  -0.24673  -0.00002
   8   39012.7    256.3   0.009287429   0.07837   0.11538  -0.24971   0.05203
   9   39489.2    253.2   0.111744308   0.93159  -0.95624  -0.12022  -0.05223
  10   39772.0    251.4   0.000981669   0.00813   0.01669  -0.06029  -0.06490

-----------------------------------------------------------------------------
         ABSORPTION SPECTRUM VIA TRANSITION VELOCITY DIPOLE MOMENTS
-----------------------------------------------------------------------------
State   Energy    Wavelength   fosc        P2         PX        PY        PZ  
        (cm-1)      (nm)                 (au**2)     (au)      (au)      (au) 
-----------------------------------------------------------------------------
   1   24546.8    407.4   0.550597484   0.09237  -0.30286  -0.00997  -0.02340
   2   30762.7    325.1   0.015397710   0.00324  -0.05130  -0.02073   0.01324
   3   32222.0    310.3   0.003518400   0.00077   0.00916   0.01982  -0.01727
   4   33229.7    300.9   0.068064756   0.01546  -0.12308   0.00153  -0.01755
   5   34284.1    291.7   0.134536714   0.03152   0.17423  -0.01666   0.02984
   6   36206.8    276.2   0.015950768   0.00395  -0.05730  -0.01959   0.01674
   7   37381.4    267.5   0.003314045   0.00085  -0.00407   0.02847  -0.00442
   8   39012.7    256.3   0.007681967   0.00205  -0.01830   0.04134  -0.00204
   9   39489.2    253.2   0.067400888   0.01819   0.13349   0.00052   0.01924
  10   39772.0    251.4   0.002297159   0.00062   0.00034  -0.01688  -0.01842

-------------------------------------------------------------------
                             CD SPECTRUM
-------------------------------------------------------------------
State  Energy     Wavelength     R         MX        MY        MZ   
       (cm-1)       (nm)     (1e40*cgs)   (au)      (au)      (au)  
-------------------------------------------------------------------
   1   24546.8    407.4     41.75815   0.04924  -0.19555  -0.25901
   2   30762.7    325.1      0.92217   0.00910  -0.01587  -0.02564
   3   32222.0    310.3     -1.62617   0.02561  -0.13080  -0.15346
   4   33229.7    300.9      9.46416  -0.03490   0.28874   0.30708
   5   34284.1    291.7      8.31783  -0.01903   0.08933   0.11758
   6   36206.8    276.2      8.05391   0.01551  -0.09259  -0.07285
   7   37381.4    267.5     -1.63386  -0.02926   0.01074   0.17917
   8   39012.7    256.3     -9.18582   0.01297   0.10369   0.09440
   9   39489.2    253.2     17.34574  -0.05740   0.09911   0.11837
  10   39772.0    251.4     -0.46491  -0.14202  -0.07937   0.05239

-------------------------------------------------------------------
         CD SPECTRUM VIA TRANSITION VELOCITY DIPOLE MOMENTS        
-------------------------------------------------------------------
State  Energy     Wavelength     R         MX        MY        MZ   
       (cm-1)       (nm)     (1e40*cgs)   (au)      (au)      (au)  
-------------------------------------------------------------------
   1   24546.8    407.4    -29.08238   0.04924  -0.19555  -0.25901
   2   30762.7    325.1     -1.60553   0.00910  -0.01587  -0.02564
   3   32222.0    310.3      0.93547   0.02561  -0.13080  -0.15346
   4   33229.7    300.9     -2.02825  -0.03490   0.28874   0.30708
   5   34284.1    291.7     -3.90615  -0.01903   0.08933   0.11758
   6   36206.8    276.2     -0.83890   0.01551  -0.09259  -0.07285
   7   37381.4    267.5     -1.01367  -0.02926   0.01074   0.17917
   8   39012.7    256.3     10.22752   0.01297   0.10369   0.09440
   9   39489.2    253.2    -13.97573  -0.05740   0.09911   0.11837
  10   39772.0    251.4      0.85127  -0.14202  -0.07937   0.05239

Total run time:     1307.165 sec

           *** ORCA-CIS/TD-DFT FINISHED WITHOUT ERROR ***

Maximum memory used throughout the entire CIS-calculation: 2447.8 MB

-----------------------
CIS/TD-DFT TOTAL ENERGY
-----------------------

    E(SCF)  =  -1087.802487314 Eh
    DE(CIS) =      0.111843640 Eh (Root  1)
    ----------------------------- ---------
    E(tot)  =  -1087.690643675 Eh


-------------------------   --------------------
FINAL SINGLE POINT ENERGY     -1087.690643674604
-------------------------   --------------------


                            ***************************************
                            *     ORCA property calculations      *
                            ***************************************

                                    ---------------------
                                    Active property flags
                                    ---------------------
   (+) Dipole Moment


------------------------------------------------------------------------------
                       ORCA ELECTRIC PROPERTIES CALCULATION
------------------------------------------------------------------------------

Dipole Moment Calculation                       ... on
Quadrupole Moment Calculation                   ... off
Polarizability Calculation                      ... off
GBWName                                         ... x3lyp-train-12_job2.gbw
Electron density                                ... x3lyp-train-12_job2.scfp
The origin for moment calculation is the CENTER OF MASS  = ( 1.549228, -0.216031  0.396596)

-------------
DIPOLE MOMENT
-------------
                                X             Y             Z
Electronic contribution:     31.76448      -3.38114       6.66430
Nuclear contribution   :    -36.63483       4.08276      -7.76518
                        -----------------------------------------
Total Dipole Moment    :     -4.87035       0.70161      -1.10088
                        -----------------------------------------
Magnitude (a.u.)       :      5.04227
Magnitude (Debye)      :     12.81643



--------------------
Rotational spectrum 
--------------------
 
Rotational constants in cm-1:     0.026263     0.002639     0.002428 
Rotational constants in MHz :   787.335935    79.101854    72.800454 

 Dipole components along the rotational axes: 
x,y,z [a.u.] :    -4.985405    -0.748200    -0.101944 
x,y,z [Debye]:   -12.671894    -1.901774    -0.259122 

 

Timings for individual modules:

Sum of individual times         ...     2290.963 sec (=  38.183 min)
GTO integral calculation        ...        9.160 sec (=   0.153 min)   0.4 %
SCF iterations                  ...      972.949 sec (=  16.216 min)  42.5 %
CIS module                      ...     1308.854 sec (=  21.814 min)  57.1 %



                             ****ORCA TERMINATED NORMALLY****
TOTAL RUN TIME: 0 days 5 hours 16 minutes 53 seconds 342 msec
