
                                 *****************
                                 * O   R   C   A *
                                 *****************

                                            #,                                       
                                            ###                                      
                                            ####                                     
                                            #####                                    
                                            ######                                   
                                           ########,                                 
                                     ,,################,,,,,                         
                               ,,#################################,,                 
                          ,,##########################################,,             
                       ,#########################################, ''#####,          
                    ,#############################################,,   '####,        
                  ,##################################################,,,,####,       
                ,###########''''           ''''###############################       
              ,#####''   ,,,,##########,,,,          '''####'''          '####       
            ,##' ,,,,###########################,,,                        '##       
           ' ,,###''''                  '''############,,,                           
         ,,##''                                '''############,,,,        ,,,,,,###''
      ,#''                                            '''#######################'''  
     '                                                          ''''####''''         
             ,#######,   #######,   ,#######,      ##                                
            ,#'     '#,  ##    ##  ,#'     '#,    #''#        ######   ,####,        
            ##       ##  ##   ,#'  ##            #'  '#       #        #'  '#        
            ##       ##  #######   ##           ,######,      #####,   #    #        
            '#,     ,#'  ##    ##  '#,     ,#' ,#      #,         ##   #,  ,#        
             '#######'   ##     ##  '#######'  #'      '#     #####' # '####'        



                  #######################################################
                  #                        -***-                        #
                  #          Department of theory and spectroscopy      #
                  #    Directorship and core code : Frank Neese         #
                  #        Max Planck Institute fuer Kohlenforschung    #
                  #                Kaiser Wilhelm Platz 1               #
                  #                 D-45470 Muelheim/Ruhr               #
                  #                      Germany                        #
                  #                                                     #
                  #                  All rights reserved                #
                  #                        -***-                        #
                  #######################################################


                         Program Version 5.0.2 -  RELEASE  -


 With contributions from (in alphabetic order):
   Daniel Aravena         : Magnetic Suceptibility
   Michael Atanasov       : Ab Initio Ligand Field Theory (pilot matlab implementation)
   Alexander A. Auer      : GIAO ZORA, VPT2 properties, NMR spectrum
   Ute Becker             : Parallelization
   Giovanni Bistoni       : ED, misc. LED, open-shell LED, HFLD
   Martin Brehm           : Molecular dynamics
   Dmytro Bykov           : SCF Hessian
   Vijay G. Chilkuri      : MRCI spin determinant printing, contributions to CSF-ICE
   Dipayan Datta          : RHF DLPNO-CCSD density
   Achintya Kumar Dutta   : EOM-CC, STEOM-CC
   Dmitry Ganyushin       : Spin-Orbit,Spin-Spin,Magnetic field MRCI
   Miquel Garcia          : C-PCM and meta-GGA Hessian, CC/C-PCM, Gaussian charge scheme
   Yang Guo               : DLPNO-NEVPT2, F12-NEVPT2, CIM, IAO-localization
   Andreas Hansen         : Spin unrestricted coupled pair/coupled cluster methods
   Benjamin Helmich-Paris : MC-RPA, TRAH-SCF, COSX integrals
   Lee Huntington         : MR-EOM, pCC
   Robert Izsak           : Overlap fitted RIJCOSX, COSX-SCS-MP3, EOM
   Marcus Kettner         : VPT2
   Christian Kollmar      : KDIIS, OOCD, Brueckner-CCSD(T), CCSD density, CASPT2, CASPT2-K
   Simone Kossmann        : Meta GGA functionals, TD-DFT gradient, OOMP2, MP2 Hessian
   Martin Krupicka        : Initial AUTO-CI
   Lucas Lang             : DCDCAS
   Marvin Lechner         : AUTO-CI (C++ implementation), FIC-MRCC
   Dagmar Lenk            : GEPOL surface, SMD
   Dimitrios Liakos       : Extrapolation schemes; Compound Job, initial MDCI parallelization
   Dimitrios Manganas     : Further ROCIS development; embedding schemes
   Dimitrios Pantazis     : SARC Basis sets
   Anastasios Papadopoulos: AUTO-CI, single reference methods and gradients
   Taras Petrenko         : DFT Hessian,TD-DFT gradient, ASA, ECA, R-Raman, ABS, FL, XAS/XES, NRVS
   Peter Pinski           : DLPNO-MP2, DLPNO-MP2 Gradient
   Christoph Reimann      : Effective Core Potentials
   Marius Retegan         : Local ZFS, SOC
   Christoph Riplinger    : Optimizer, TS searches, QM/MM, DLPNO-CCSD(T), (RO)-DLPNO pert. Triples
   Tobias Risthaus        : Range-separated hybrids, TD-DFT gradient, RPA, STAB
   Michael Roemelt        : Original ROCIS implementation
   Masaaki Saitow         : Open-shell DLPNO-CCSD energy and density
   Barbara Sandhoefer     : DKH picture change effects
   Avijit Sen             : IP-ROCIS
   Kantharuban Sivalingam : CASSCF convergence, NEVPT2, FIC-MRCI
   Bernardo de Souza      : ESD, SOC TD-DFT
   Georgi Stoychev        : AutoAux, RI-MP2 NMR, DLPNO-MP2 response
   Willem Van den Heuvel  : Paramagnetic NMR
   Boris Wezisla          : Elementary symmetry handling
   Frank Wennmohs         : Technical directorship


 We gratefully acknowledge several colleagues who have allowed us to
 interface, adapt or use parts of their codes:
   Stefan Grimme, W. Hujo, H. Kruse, P. Pracht,  : VdW corrections, initial TS optimization,
                  C. Bannwarth, S. Ehlert          DFT functionals, gCP, sTDA/sTD-DF
   Ed Valeev, F. Pavosevic, A. Kumar             : LibInt (2-el integral package), F12 methods
   Garnet Chan, S. Sharma, J. Yang, R. Olivares  : DMRG
   Ulf Ekstrom                                   : XCFun DFT Library
   Mihaly Kallay                                 : mrcc  (arbitrary order and MRCC methods)
   Jiri Pittner, Ondrej Demel                    : Mk-CCSD
   Frank Weinhold                                : gennbo (NPA and NBO analysis)
   Christopher J. Cramer and Donald G. Truhlar   : smd solvation model
   Lars Goerigk                                  : TD-DFT with DH, B97 family of functionals
   V. Asgeirsson, H. Jonsson                     : NEB implementation
   FAccTs GmbH                                   : IRC, NEB, NEB-TS, DLPNO-Multilevel, CI-OPT
                                                   MM, QMMM, 2- and 3-layer-ONIOM, Crystal-QMMM,
                                                   LR-CPCM, SF, NACMEs, symmetry and pop. for TD-DFT,
                                                   nearIR, NL-DFT gradient (VV10), updates on ESD,
                                                   ML-optimized integration grids
   S Lehtola, MJT Oliveira, MAL Marques          : LibXC Library
   Liviu Ungur et al                             : ANISO software


 Your calculation uses the libint2 library for the computation of 2-el integrals
 For citations please refer to: http://libint.valeyev.net

 Your ORCA version has been built with support for libXC version: 5.1.0
 For citations please refer to: https://tddft.org/programs/libxc/

 This ORCA versions uses:
   CBLAS   interface :  Fast vector & matrix operations
   LAPACKE interface :  Fast linear algebra routines
   SCALAPACK package :  Parallel linear algebra routines
   Shared memory     :  Shared parallel matrices
   BLAS/LAPACK       :  OpenBLAS 0.3.15  USE64BITINT DYNAMIC_ARCH NO_AFFINITY Haswell SINGLE_THREADED
        Core in use  :  Haswell
   Copyright (c) 2011-2014, The OpenBLAS Project


Your calculation utilizes the atom-pairwise dispersion correction
with the Becke-Johnson damping scheme (D3BJ)
Cite in your paper:
S.Grimme, S.Ehrlich, L.Goerigk, J Comput Chem, (2011), 32, 1456–1465 
S.Grimme, J.Antony, S.Ehrlich and H.Krieg, J.Chem.Phys., 132, (2010), 154104 
   

Your calculation utilizes the SMD solvation module
Please cite in your paper:
A.V. Marenich, C.J. Cramer, D.G. Truhlar J. Phys. Chem. B, 113, (2009), 6378 

================================================================================

----- Orbital basis set information -----
Your calculation utilizes the basis: aug-cc-pVTZ 
    H, B-Ne : Obtained from the ccRepo (grant-hill.group.shef.ac.uk/ccrepo) Feb. 2017
              R. A. Kendall, T. H. Dunning, Jr., R. J. Harrison, J. Chem. Phys. 96, 6796 (1992)
         He : Obtained from the ccRepo (grant-hill.group.shef.ac.uk/ccrepo) Feb. 2017
              D. E. Woon, T. H. Dunning, Jr., J. Chem. Phys. 100, 2975 (1994)
  Li-Be, Na : Obtained from the ccRepo (grant-hill.group.shef.ac.uk/ccrepo) Feb. 2017
              B. P. Prascher, D. E. Woon, K. A. Peterson, T. H. Dunning, Jr., A. K. Wilson, Theor. Chem. Acc. 128, 69 (2011)
         Mg : Obtained from the Peterson Research Group Website (tyr0.chem.wsu.edu/~kipeters) Feb. 2017
              B. P. Prascher, D. E. Woon, K. A. Peterson, T. H. Dunning, Jr., A. K. Wilson, Theor. Chem. Acc. 128, 69 (2011)
      Al-Ar : Obtained from the ccRepo (grant-hill.group.shef.ac.uk/ccrepo) Feb. 2017
              D. E. Woon, T. H. Dunning, Jr., J. Chem. Phys. 98, 1358 (1993)
      Sc-Zn : Obtained from the ccRepo (grant-hill.group.shef.ac.uk/ccrepo) Feb. 2017
              N. B. Balabanov, K. A. Peterson, J. Chem. Phys. 123, 064107 (2005)
              N. B. Balabanov, K. A. Peterson, J. Chem. Phys. 125, 074110 (2006)
      Ga-Kr : Obtained from the ccRepo (grant-hill.group.shef.ac.uk/ccrepo) Feb. 2017
              A. K. Wilson, D. E. Woon, K. A. Peterson, T. H. Dunning, Jr., J. Chem. Phys. 110, 7667 (1999)
     Ag, Au : Obtained from the Peterson Research Group Website (tyr0.chem.wsu.edu/~kipeters) Feb. 2017
              K. A. Peterson, C. Puzzarini, Theor. Chem. Acc. 114, 283 (2005)

The basis set includes element-specific modifications.

Your calculation utilizes the basis: cc-pVTZ 
       H, B-Ne : Obtained from the ccRepo (grant-hill.group.shef.ac.uk/ccrepo) Feb. 2017
                 T. H. Dunning, Jr., J. Chem. Phys. 90, 1007 (1989)
            He : Obtained from the ccRepo (grant-hill.group.shef.ac.uk/ccrepo) Feb. 2017
                 D. E. Woon, T. H. Dunning, Jr., J. Chem. Phys. 100, 2975 (1994)
  Li-Be, Na-Mg : Obtained from the ccRepo (grant-hill.group.shef.ac.uk/ccrepo) Feb. 2017
                 B. P. Prascher, D. E. Woon, K. A. Peterson, T. H. Dunning, Jr., A. K. Wilson, Theor. Chem. Acc. 128, 69 (2011)
         Al-Ar : Obtained from the ccRepo (grant-hill.group.shef.ac.uk/ccrepo) Feb. 2017
                 D. E. Woon, T. H. Dunning, Jr., J. Chem. Phys. 98, 1358 (1993)
            Ca : Obtained from the Peterson Research Group Website (tyr0.chem.wsu.edu/~kipeters) Feb. 2017
                 J. Koput, K. A. Peterson, J. Phys. Chem. 106, 9595 (2002)
         Sc-Zn : Obtained from the ccRepo (grant-hill.group.shef.ac.uk/ccrepo) Feb. 2017
                 N. B. Balabanov, K. A. Peterson, J. Chem. Phys. 123, 064107 (2005)
                 N. B. Balabanov, K. A. Peterson, J. Chem. Phys. 125, 074110 (2006)
         Ga-Kr : Obtained from the ccRepo (grant-hill.group.shef.ac.uk/ccrepo) Feb. 2017
                 A. K. Wilson, D. E. Woon, K. A. Peterson, T. H. Dunning, Jr., J. Chem. Phys. 110, 7667 (1999)
             Y : Obtained from the ccRepo (grant-hill.group.shef.ac.uk/ccrepo) Feb. 2017
                 K. A. Peterson, D. Figgen, M. Dolg, H. Stoll, J. Chem. Phys. 126, 124101 (2007)
        Ag, Au : Obtained from the Peterson Research Group Website (tyr0.chem.wsu.edu/~kipeters) Feb. 2017
                 K. A. Peterson, C. Puzzarini, Theor. Chem. Acc. 114, 283 (2005)

----- AuxJ basis set information -----
Your calculation utilizes the auxiliary basis: aug-cc-pVTZ/JK 
  H, B-F, Al-Cl, Ga-Br : Obtained from the TURBOMOLE 7.0 basis set library

The basis set includes element-specific modifications.

Your calculation utilizes the auxiliary basis: cc-pVTZ/JK 
  H, B-F, Al-Cl, Ga-Br : Obtained from the TURBOMOLE 7.0 basis set library

----- AuxC basis set information -----
Your calculation utilizes the auxiliary basis: aug-cc-pVTZ/C 
  H-He, B-F, Al-Ar, Ga-Kr : Obtained from the EMSL Basis Set Exchange (bse.pnl.gov) Feb. 2017
                            F. Weigend, A. Kohn, C. Hattig, J. Chem. Phys. 116, 3175 (2002)
                   Be, Mg : Obtained from the TURBOMOLE 7.0 basis set library
                            C. Haettig, Phys. Chem. Chem. Phys. 7, 59 (2005)
                       Ne : Obtained from the EMSL Basis Set Exchange (bse.pnl.gov) Feb. 2017
                            C. Haettig, Phys. Chem. Chem. Phys. 7, 59 (2005)
                            F. Weigend, A. Kohn, C. Hattig, J. Chem. Phys. 116, 3175 (2002)
                    Sc-Zn : Obtained from the EMSL Basis Set Exchange (bse.pnl.gov) Feb. 2017
                            J. G. Hill, J. A. Platts, J. Chem. Phys. 128, 044104 (2008)

The basis set includes element-specific modifications.

Your calculation utilizes the auxiliary basis: cc-pVTZ/C 
  Obtained from the EMSL Basis Set Exchange (bse.pnl.gov) Feb. 2017
  H-He, B-F, Al-Ar, Ga-Kr : F. Weigend, A. Kohn, C. Hattig, J. Chem. Phys. 116, 3175 (2002)
             Li-Be, Na-Mg : C. Haettig, Phys. Chem. Chem. Phys. 7, 59 (2005)
                       Ne : C. Haettig, Phys. Chem. Chem. Phys. 7, 59 (2005)
                            F. Weigend, A. Kohn, C. Hattig, J. Chem. Phys. 116, 3175 (2002)
                    Sc-Zn : J. G. Hill, J. A. Platts, J. Chem. Phys. 128, 044104 (2008)

================================================================================
                                        WARNINGS
                       Please study these warnings very carefully!
================================================================================


WARNING: Geometry Optimization
  ===> : Switching off AutoStart
         For restart on a previous wavefunction, please use MOREAD

INFO   : the flag for use of the SHARK integral package has been found!



***************************************
The coordinates will be read from file: 
***************************************


Your calculation utilizes the atom-pairwise dispersion correction
with the Becke-Johnson damping scheme (D3BJ)
Cite in your paper:
S.Grimme, S.Ehrlich, L.Goerigk, J Comput Chem, (2011), 32, 1456–1465 
S.Grimme, J.Antony, S.Ehrlich and H.Krieg, J.Chem.Phys., 132, (2010), 154104 
   

Your calculation utilizes the SMD solvation module
Please cite in your paper:
A.V. Marenich, C.J. Cramer, D.G. Truhlar J. Phys. Chem. B, 113, (2009), 6378 

================================================================================

----- Orbital basis set information -----
Your calculation utilizes the basis: aug-cc-pVTZ 
    H, B-Ne : Obtained from the ccRepo (grant-hill.group.shef.ac.uk/ccrepo) Feb. 2017
              R. A. Kendall, T. H. Dunning, Jr., R. J. Harrison, J. Chem. Phys. 96, 6796 (1992)
         He : Obtained from the ccRepo (grant-hill.group.shef.ac.uk/ccrepo) Feb. 2017
              D. E. Woon, T. H. Dunning, Jr., J. Chem. Phys. 100, 2975 (1994)
  Li-Be, Na : Obtained from the ccRepo (grant-hill.group.shef.ac.uk/ccrepo) Feb. 2017
              B. P. Prascher, D. E. Woon, K. A. Peterson, T. H. Dunning, Jr., A. K. Wilson, Theor. Chem. Acc. 128, 69 (2011)
         Mg : Obtained from the Peterson Research Group Website (tyr0.chem.wsu.edu/~kipeters) Feb. 2017
              B. P. Prascher, D. E. Woon, K. A. Peterson, T. H. Dunning, Jr., A. K. Wilson, Theor. Chem. Acc. 128, 69 (2011)
      Al-Ar : Obtained from the ccRepo (grant-hill.group.shef.ac.uk/ccrepo) Feb. 2017
              D. E. Woon, T. H. Dunning, Jr., J. Chem. Phys. 98, 1358 (1993)
      Sc-Zn : Obtained from the ccRepo (grant-hill.group.shef.ac.uk/ccrepo) Feb. 2017
              N. B. Balabanov, K. A. Peterson, J. Chem. Phys. 123, 064107 (2005)
              N. B. Balabanov, K. A. Peterson, J. Chem. Phys. 125, 074110 (2006)
      Ga-Kr : Obtained from the ccRepo (grant-hill.group.shef.ac.uk/ccrepo) Feb. 2017
              A. K. Wilson, D. E. Woon, K. A. Peterson, T. H. Dunning, Jr., J. Chem. Phys. 110, 7667 (1999)
     Ag, Au : Obtained from the Peterson Research Group Website (tyr0.chem.wsu.edu/~kipeters) Feb. 2017
              K. A. Peterson, C. Puzzarini, Theor. Chem. Acc. 114, 283 (2005)

The basis set includes element-specific modifications.

Your calculation utilizes the basis: cc-pVTZ 
       H, B-Ne : Obtained from the ccRepo (grant-hill.group.shef.ac.uk/ccrepo) Feb. 2017
                 T. H. Dunning, Jr., J. Chem. Phys. 90, 1007 (1989)
            He : Obtained from the ccRepo (grant-hill.group.shef.ac.uk/ccrepo) Feb. 2017
                 D. E. Woon, T. H. Dunning, Jr., J. Chem. Phys. 100, 2975 (1994)
  Li-Be, Na-Mg : Obtained from the ccRepo (grant-hill.group.shef.ac.uk/ccrepo) Feb. 2017
                 B. P. Prascher, D. E. Woon, K. A. Peterson, T. H. Dunning, Jr., A. K. Wilson, Theor. Chem. Acc. 128, 69 (2011)
         Al-Ar : Obtained from the ccRepo (grant-hill.group.shef.ac.uk/ccrepo) Feb. 2017
                 D. E. Woon, T. H. Dunning, Jr., J. Chem. Phys. 98, 1358 (1993)
            Ca : Obtained from the Peterson Research Group Website (tyr0.chem.wsu.edu/~kipeters) Feb. 2017
                 J. Koput, K. A. Peterson, J. Phys. Chem. 106, 9595 (2002)
         Sc-Zn : Obtained from the ccRepo (grant-hill.group.shef.ac.uk/ccrepo) Feb. 2017
                 N. B. Balabanov, K. A. Peterson, J. Chem. Phys. 123, 064107 (2005)
                 N. B. Balabanov, K. A. Peterson, J. Chem. Phys. 125, 074110 (2006)
         Ga-Kr : Obtained from the ccRepo (grant-hill.group.shef.ac.uk/ccrepo) Feb. 2017
                 A. K. Wilson, D. E. Woon, K. A. Peterson, T. H. Dunning, Jr., J. Chem. Phys. 110, 7667 (1999)
             Y : Obtained from the ccRepo (grant-hill.group.shef.ac.uk/ccrepo) Feb. 2017
                 K. A. Peterson, D. Figgen, M. Dolg, H. Stoll, J. Chem. Phys. 126, 124101 (2007)
        Ag, Au : Obtained from the Peterson Research Group Website (tyr0.chem.wsu.edu/~kipeters) Feb. 2017
                 K. A. Peterson, C. Puzzarini, Theor. Chem. Acc. 114, 283 (2005)

----- AuxJ basis set information -----
Your calculation utilizes the auxiliary basis: aug-cc-pVTZ/JK 
  H, B-F, Al-Cl, Ga-Br : Obtained from the TURBOMOLE 7.0 basis set library

The basis set includes element-specific modifications.

Your calculation utilizes the auxiliary basis: cc-pVTZ/JK 
  H, B-F, Al-Cl, Ga-Br : Obtained from the TURBOMOLE 7.0 basis set library

----- AuxC basis set information -----
Your calculation utilizes the auxiliary basis: aug-cc-pVTZ/C 
  H-He, B-F, Al-Ar, Ga-Kr : Obtained from the EMSL Basis Set Exchange (bse.pnl.gov) Feb. 2017
                            F. Weigend, A. Kohn, C. Hattig, J. Chem. Phys. 116, 3175 (2002)
                   Be, Mg : Obtained from the TURBOMOLE 7.0 basis set library
                            C. Haettig, Phys. Chem. Chem. Phys. 7, 59 (2005)
                       Ne : Obtained from the EMSL Basis Set Exchange (bse.pnl.gov) Feb. 2017
                            C. Haettig, Phys. Chem. Chem. Phys. 7, 59 (2005)
                            F. Weigend, A. Kohn, C. Hattig, J. Chem. Phys. 116, 3175 (2002)
                    Sc-Zn : Obtained from the EMSL Basis Set Exchange (bse.pnl.gov) Feb. 2017
                            J. G. Hill, J. A. Platts, J. Chem. Phys. 128, 044104 (2008)

The basis set includes element-specific modifications.

Your calculation utilizes the auxiliary basis: cc-pVTZ/C 
  Obtained from the EMSL Basis Set Exchange (bse.pnl.gov) Feb. 2017
  H-He, B-F, Al-Ar, Ga-Kr : F. Weigend, A. Kohn, C. Hattig, J. Chem. Phys. 116, 3175 (2002)
             Li-Be, Na-Mg : C. Haettig, Phys. Chem. Chem. Phys. 7, 59 (2005)
                       Ne : C. Haettig, Phys. Chem. Chem. Phys. 7, 59 (2005)
                            F. Weigend, A. Kohn, C. Hattig, J. Chem. Phys. 116, 3175 (2002)
                    Sc-Zn : J. G. Hill, J. A. Platts, J. Chem. Phys. 128, 044104 (2008)

================================================================================
                                        WARNINGS
                       Please study these warnings very carefully!
================================================================================

INFO   : Checking CIS options ...
  ===> : (D) CORRECTION FOUND - SETTING MODE=3
  ===> : JK MODE FOUND - ACTIVATING RI-MP2 CODE
  ===> : MP2 AND CIS FOUND - CHECKING
WARNING: CIS(D) and MP2 runs must have the same orbital window
  ===> : adjusting orbital windows

WARNING: No MP2 level density has been requested!
         To caclulate MP2 level properties use
         %mp2 Density relaxed end
         or
         %mp2 Density unrelaxed end
         Otherwise for double-hybrid DFT only the energy is correct!

WARNING: The frozen-core approximation is turned on by default for 
         the MP2 part of double-hybrid DFT.

WARNING:  You are using a Range-Separated Double Hybrid functional with Doubles Correction 
          Changing Mode to AOINTS 


INFO   : the flag for use of the SHARK integral package has been found!

================================================================================
                                       INPUT FILE
================================================================================
NAME = optpbed3-wb2plyp-train-3.inp
|  1> ! pbe0 d3bj aug-cc-PVTZ RIJCOSX Opt
|  2> %maxcore 4000
|  3> %basis
|  4>  AuxJ "aug-cc-PVTZ/JK"
|  5>  AuxC "aug-cc-PVTZ/C"
|  6>  newGTO H "cc-PVTZ" end
|  7>  newAuxJGTO H "cc-PVTZ/JK" end
|  8>  newAuxCGTO H "cc-PVTZ/C" end
|  9> end
| 10> %cpcm
| 11>  SMD true
| 12>  SMDsolvent "dichloromethane"
| 13> end
| 14> %pal nprocs 4 end
| 15> * xyz 0 1
| 16> C         -1.00590       -0.61600        2.10610
| 17> C         -0.82430       -0.80940        0.59740
| 18> C         -0.70850       -2.29480        0.24150
| 19> C          0.35590       -0.01940        0.07520
| 20> C         -0.04950        0.90770       -0.82140
| 21> C         -1.47290        0.86060       -1.00630
| 22> C         -2.32270        1.60350       -1.80920
| 23> C         -3.67690        1.31370       -1.76610
| 24> C         -4.16430        0.30930       -0.94260
| 25> C         -3.31160       -0.43630       -0.13640
| 26> C         -1.96300       -0.16070       -0.16770
| 27> S          1.35280        1.83120       -1.42690
| 28> O          1.59060        1.57500       -2.82150
| 29> O          1.30250        3.20400       -1.00210
| 30> C          2.48960        0.88190       -0.39640
| 31> C          3.85070        1.01580       -0.30260
| 32> C          4.54150        0.17220        0.56280
| 33> C          3.85550       -0.77500        1.30520
| 34> C          2.47840       -0.90500        1.20540
| 35> C          1.77630       -0.06850        0.34410
| 36> H         -1.08770        0.44300        2.33950
| 37> H         -0.16070       -1.02730        2.65140
| 38> H         -1.91260       -1.11600        2.43770
| 39> H         -1.61150       -2.81990        0.54310
| 40> H         -0.57990       -2.41280       -0.83180
| 41> H          0.14240       -2.74600        0.74480
| 42> H         -1.93030        2.38170       -2.44500
| 43> H         -4.36340        1.87620       -2.38110
| 44> H         -5.22420        0.10230       -0.92680
| 45> H         -3.70880       -1.21460        0.49870
| 46> H          4.36320        1.76090       -0.89060
| 47> H          5.61340        0.25730        0.65470
| 48> H          4.40100       -1.42460        1.97380
| 49> H          1.96480       -1.64980        1.79320
| 50> *
| 51> 
| 52> 
| 53> $new_job
| 54> ! wb2plyp aug-cc-PVTZ RIJCOSX SP
| 55> %maxcore 4000
| 56> %basis
| 57>  AuxJ "aug-cc-PVTZ/JK"
| 58>  AuxC "aug-cc-PVTZ/C"
| 59>  newGTO H "cc-PVTZ" end
| 60>  newAuxJGTO H "cc-PVTZ/JK" end
| 61>  newAuxCGTO H "cc-PVTZ/C" end
| 62> end
| 63> %cpcm
| 64>  SMD true
| 65>  SMDsolvent "dichloromethane"
| 66> end
| 67> %pal nprocs 4 end
| 68> %tddft
| 69>  nroots 10
| 70>  maxdim 7
| 71> end
| 72> * xyzfile 0 1
| 73> 
| 74>                          ****END OF INPUT****
================================================================================


                 $$$$$$$$$$$$$$$$$$$$$$$$$$$$$$$$$$$$$$$$$$$$$$ 
                 $ THERE ARE  2 JOBS TO BE PROCESSED THIS RUN $
                 $$$$$$$$$$$$$$$$$$$$$$$$$$$$$$$$$$$$$$$$$$$$$$ 




                 $$$$$$$$$$$$$$$$  JOB NUMBER  1 $$$$$$$$$$$$$$


                       *****************************
                       * Geometry Optimization Run *
                       *****************************

Geometry optimization settings:
Update method            Update   .... BFGS
Choice of coordinates    CoordSys .... Z-matrix Internals
Initial Hessian          InHess   .... Almoef's Model

Convergence Tolerances:
Energy Change            TolE     ....  5.0000e-06 Eh
Max. Gradient            TolMAXG  ....  3.0000e-04 Eh/bohr
RMS Gradient             TolRMSG  ....  1.0000e-04 Eh/bohr
Max. Displacement        TolMAXD  ....  4.0000e-03 bohr
RMS Displacement         TolRMSD  ....  2.0000e-03 bohr
Strict Convergence                ....  False
------------------------------------------------------------------------------
                        ORCA OPTIMIZATION COORDINATE SETUP
------------------------------------------------------------------------------

The optimization will be done in new redundant internal coordinates
Making redundant internal coordinates   ...  (new redundants) done
Evaluating the initial hessian          ...  (Almloef) done
Evaluating the coordinates              ...  done
Calculating the B-matrix                .... done
Calculating the G-matrix                .... done
Diagonalizing the G-matrix              .... done
Small eigenvalue found = 1.512e-02
The first mode is                       ....  109
The number of degrees of freedom        ....   96

    -----------------------------------------------------------------
                    Redundant Internal Coordinates


    -----------------------------------------------------------------
         Definition                    Initial Value    Approx d2E/dq
    -----------------------------------------------------------------
      1. B(C   1,C   0)                  1.5318         0.371047   
      2. B(C   2,C   1)                  1.5318         0.371079   
      3. B(C   3,C   1)                  1.5132         0.397410   
      4. B(C   4,C   3)                  1.3519         0.718543   
      5. B(C   5,C   4)                  1.4361         0.527398   
      6. B(C   6,C   5)                  1.3852         0.635971   
      7. B(C   7,C   6)                  1.3855         0.635136   
      8. B(C   8,C   7)                  1.3873         0.631084   
      9. B(C   9,C   8)                  1.3903         0.624074   
     10. B(C  10,C   9)                  1.3768         0.655772   
     11. B(C  10,C   5)                  1.4094         0.581747   
     12. B(C  10,C   1)                  1.5175         0.391119   
     13. B(S  11,C   4)                  1.7849         0.394859   
     14. B(O  12,S  11)                  1.4377         1.266126   
     15. B(O  13,S  11)                  1.4379         1.265369   
     16. B(C  14,S  11)                  1.8043         0.367751   
     17. B(C  15,C  14)                  1.3709         0.670252   
     18. B(C  16,C  15)                  1.3920         0.620126   
     19. B(C  17,C  16)                  1.3853         0.635774   
     20. B(C  18,C  17)                  1.3868         0.632143   
     21. B(C  19,C  18)                  1.3909         0.622807   
     22. B(C  19,C  14)                  1.4001         0.601946   
     23. B(C  19,C   3)                  1.4465         0.507757   
     24. B(H  20,C   0)                  1.0875         0.363428   
     25. B(H  21,C   0)                  1.0867         0.364513   
     26. B(H  22,C   0)                  1.0872         0.363787   
     27. B(H  23,C   2)                  1.0872         0.363763   
     28. B(H  24,C   2)                  1.0874         0.363558   
     29. B(H  25,C   2)                  1.0867         0.364488   
     30. B(H  26,C   6)                  1.0788         0.375222   
     31. B(H  27,C   7)                  1.0798         0.373884   
     32. B(H  28,C   8)                  1.0800         0.373520   
     33. B(H  29,C   9)                  1.0802         0.373276   
     34. B(H  30,C  15)                  1.0787         0.375375   
     35. B(H  31,C  16)                  1.0792         0.374684   
     36. B(H  32,C  17)                  1.0801         0.373463   
     37. B(H  33,C  18)                  1.0789         0.375090   
     38. A(C   1,C   0,H  20)          110.0744         0.324447   
     39. A(C   1,C   0,H  22)          109.9494         0.324500   
     40. A(C   1,C   0,H  21)          110.7461         0.324606   
     41. A(H  21,C   0,H  22)          108.7551         0.291864   
     42. A(H  20,C   0,H  22)          108.6416         0.291727   
     43. A(H  20,C   0,H  21)          108.6254         0.291818   
     44. A(C   2,C   1,C   3)          111.5381         0.366797   
     45. A(C   2,C   1,C  10)          110.7387         0.365796   
     46. A(C   0,C   1,C   3)          111.4961         0.366792   
     47. A(C   3,C   1,C  10)          100.8410         0.370124   
     48. A(C   0,C   1,C   2)          111.1134         0.362515   
     49. A(C   0,C   1,C  10)          110.7099         0.365791   
     50. A(C   1,C   2,H  24)          110.0898         0.324471   
     51. A(H  24,C   2,H  25)          108.6316         0.291832   
     52. A(C   1,C   2,H  25)          110.7447         0.324607   
     53. A(H  23,C   2,H  24)          108.6397         0.291740   
     54. A(H  23,C   2,H  25)          108.7427         0.291858   
     55. A(C   1,C   2,H  23)          109.9434         0.324501   
     56. A(C   1,C   3,C   4)          110.6716         0.411614   
     57. A(C   4,C   3,C  19)          116.1695         0.430012   
     58. A(C   1,C   3,C  19)          133.1589         0.387231   
     59. A(C   5,C   4,S  11)          138.7611         0.410452   
     60. A(C   3,C   4,C   5)          111.1064         0.432954   
     61. A(C   3,C   4,S  11)          110.1326         0.433760   
     62. A(C   6,C   5,C  10)          121.3442         0.431091   
     63. A(C   4,C   5,C  10)          106.9661         0.416900   
     64. A(C   4,C   5,C   6)          131.6897         0.423581   
     65. A(C   5,C   6,H  26)          120.3540         0.356915   
     66. A(C   5,C   6,C   7)          117.9963         0.437958   
     67. A(C   7,C   6,H  26)          121.6497         0.356836   
     68. A(C   8,C   7,H  27)          119.4650         0.356232   
     69. A(C   6,C   7,H  27)          119.6516         0.356619   
     70. A(C   6,C   7,C   8)          120.8833         0.437349   
     71. A(C   9,C   8,H  28)          119.3808         0.355498   
     72. A(C   7,C   8,H  28)          119.4874         0.356173   
     73. A(C   7,C   8,C   9)          121.1318         0.435967   
     74. A(C  10,C   9,H  29)          121.1817         0.358464   
     75. A(C   8,C   9,H  29)          120.1192         0.355459   
     76. A(C   8,C   9,C  10)          118.6991         0.438993   
     77. A(C   5,C  10,C   9)          119.9452         0.433474   
     78. A(C   1,C  10,C   9)          129.6399         0.403869   
     79. A(C   1,C  10,C   5)          110.4148         0.395448   
     80. A(O  13,S  11,C  14)          110.8317         0.498798   
     81. A(O  12,S  11,C  14)          110.8571         0.498853   
     82. A(C   4,S  11,C  14)           91.6635         0.406061   
     83. A(O  12,S  11,O  13)          117.5472         0.627328   
     84. A(C   4,S  11,O  13)          111.4854         0.505448   
     85. A(C   4,S  11,O  12)          111.5183         0.505504   
     86. A(S  11,C  14,C  15)          127.8250         0.422955   
     87. A(C  15,C  14,C  19)          122.4067         0.437866   
     88. A(S  11,C  14,C  19)          109.7683         0.414928   
     89. A(C  16,C  15,H  30)          121.4468         0.355414   
     90. A(C  14,C  15,H  30)          120.1253         0.360143   
     91. A(C  14,C  15,C  16)          118.4279         0.440223   
     92. A(C  17,C  16,H  31)          120.0099         0.356810   
     93. A(C  15,C  16,H  31)          119.8709         0.355303   
     94. A(C  15,C  16,C  17)          120.1192         0.436050   
     95. A(C  16,C  17,H  32)          119.5306         0.356612   
     96. A(C  16,C  17,C  18)          121.1495         0.437561   
     97. A(C  18,C  17,H  32)          119.3198         0.356265   
     98. A(C  17,C  18,C  19)          119.3039         0.435939   
     99. A(C  19,C  18,H  33)          120.8144         0.355629   
    100. A(C  17,C  18,H  33)          119.8817         0.356528   
    101. A(C  14,C  19,C  18)          118.5928         0.432116   
    102. A(C   3,C  19,C  18)          129.1411         0.419153   
    103. A(C   3,C  19,C  14)          112.2661         0.416617   
    104. D(C   2,C   1,C   0,H  21)     59.9517         0.011002   
    105. D(C  10,C   1,C   0,H  22)     63.2265         0.011002   
    106. D(C   3,C   1,C   0,H  20)     54.9848         0.011002   
    107. D(C  10,C   1,C   0,H  20)    -56.4230         0.011002   
    108. D(C  10,C   1,C   0,H  21)   -176.5580         0.011002   
    109. D(C   2,C   1,C   0,H  22)    -60.2639         0.011002   
    110. D(C   3,C   1,C   0,H  21)    -65.1502         0.011002   
    111. D(C   2,C   1,C   0,H  20)   -179.9133         0.011002   
    112. D(C   3,C   1,C   0,H  22)    174.6343         0.011002   
    113. D(H  23,C   2,C   1,C  10)    -63.1045         0.011004   
    114. D(H  24,C   2,C   1,C   0)   -179.9777         0.011004   
    115. D(H  24,C   2,C   1,C   3)    -54.8994         0.011004   
    116. D(H  25,C   2,C   1,C   0)    -59.8258         0.011004   
    117. D(H  24,C   2,C   1,C  10)     56.5485         0.011004   
    118. D(H  23,C   2,C   1,C   0)     60.3694         0.011004   
    119. D(H  25,C   2,C   1,C   3)     65.2524         0.011004   
    120. D(H  23,C   2,C   1,C   3)   -174.5523         0.011004   
    121. D(H  25,C   2,C   1,C  10)    176.7003         0.011004   
    122. D(C  19,C   3,C   1,C  10)   -179.9245         0.011728   
    123. D(C  19,C   3,C   1,C   2)    -62.3314         0.011728   
    124. D(C  19,C   3,C   1,C   0)     62.5335         0.011728   
    125. D(C   4,C   3,C   1,C  10)      0.0631         0.011728   
    126. D(C   4,C   3,C   1,C   2)    117.6561         0.011728   
    127. D(C   4,C   3,C   1,C   0)   -117.4790         0.011728   
    128. D(S  11,C   4,C   3,C   1)    179.9658         0.036529   
    129. D(S  11,C   4,C   3,C  19)     -0.0443         0.036529   
    130. D(C   5,C   4,C   3,C  19)    179.9399         0.036529   
    131. D(C   5,C   4,C   3,C   1)     -0.0500         0.036529   
    132. D(C   6,C   5,C   4,S  11)      0.0046         0.018981   
    133. D(C   6,C   5,C   4,C   3)   -179.9729         0.018981   
    134. D(C  10,C   5,C   4,C   3)      0.0122         0.018981   
    135. D(C  10,C   5,C   4,S  11)    179.9897         0.018981   
    136. D(H  26,C   6,C   5,C  10)    179.9929         0.028078   
    137. D(H  26,C   6,C   5,C   4)     -0.0239         0.028078   
    138. D(C   7,C   6,C   5,C  10)     -0.0190         0.028078   
    139. D(C   7,C   6,C   5,C   4)    179.9643         0.028078   
    140. D(H  27,C   7,C   6,H  26)     -0.0043         0.027999   
    141. D(H  27,C   7,C   6,C   5)   -179.9923         0.027999   
    142. D(C   8,C   7,C   6,H  26)    179.9942         0.027999   
    143. D(C   8,C   7,C   6,C   5)      0.0062         0.027999   
    144. D(H  28,C   8,C   7,H  27)      0.0049         0.027620   
    145. D(H  28,C   8,C   7,C   6)   -179.9936         0.027620   
    146. D(C   9,C   8,C   7,H  27)   -179.9932         0.027620   
    147. D(C   9,C   8,C   7,C   6)      0.0083         0.027620   
    148. D(H  29,C   9,C   8,H  28)     -0.0031         0.026972   
    149. D(H  29,C   9,C   8,C   7)    179.9950         0.026972   
    150. D(C  10,C   9,C   8,H  28)    179.9920         0.026972   
    151. D(C  10,C   9,C   8,C   7)     -0.0099         0.026972   
    152. D(C   5,C  10,C   9,H  29)    179.9923         0.029980   
    153. D(C   5,C  10,C   9,C   8)     -0.0028         0.029980   
    154. D(C   1,C  10,C   9,H  29)     -0.0074         0.029980   
    155. D(C   9,C  10,C   5,C   6)      0.0176         0.023258   
    156. D(C   9,C  10,C   5,C   4)   -179.9694         0.023258   
    157. D(C   1,C  10,C   5,C   6)   -179.9827         0.023258   
    158. D(C   1,C  10,C   5,C   4)      0.0303         0.023258   
    159. D(C   9,C  10,C   1,C   3)    179.9443         0.011378   
    160. D(C   9,C  10,C   1,C   2)     61.7671         0.011378   
    161. D(C   1,C  10,C   9,C   8)    179.9976         0.029980   
    162. D(C   9,C  10,C   1,C   0)    -61.9389         0.011378   
    163. D(C   5,C  10,C   1,C   0)    118.0615         0.011378   
    164. D(C   5,C  10,C   1,C   3)     -0.0554         0.011378   
    165. D(C   5,C  10,C   1,C   2)   -118.2325         0.011378   
    166. D(O  12,S  11,C   4,C   3)    113.2825         0.004242   
    167. D(C  14,S  11,C   4,C   5)   -179.9190         0.004242   
    168. D(C  14,S  11,C   4,C   3)      0.0586         0.004242   
    169. D(O  13,S  11,C   4,C   5)     66.8914         0.004242   
    170. D(O  13,S  11,C   4,C   3)   -113.1309         0.004242   
    171. D(O  12,S  11,C   4,C   5)    -66.6951         0.004242   
    172. D(C  19,C  14,S  11,O  13)    113.7126         0.003866   
    173. D(C  19,C  14,S  11,O  12)   -113.8722         0.003866   
    174. D(C  19,C  14,S  11,C   4)     -0.0593         0.003866   
    175. D(C  15,C  14,S  11,O  13)    -66.2930         0.003866   
    176. D(C  15,C  14,S  11,O  12)     66.1222         0.003866   
    177. D(C  15,C  14,S  11,C   4)    179.9351         0.003866   
    178. D(H  30,C  15,C  14,C  19)    179.9947         0.031420   
    179. D(H  30,C  15,C  14,S  11)      0.0009         0.031420   
    180. D(C  16,C  15,C  14,C  19)     -0.0010         0.031420   
    181. D(C  16,C  15,C  14,S  11)   -179.9948         0.031420   
    182. D(H  31,C  16,C  15,H  30)     -0.0060         0.026611   
    183. D(H  31,C  16,C  15,C  14)    179.9898         0.026611   
    184. D(C  17,C  16,C  15,H  30)    179.9883         0.026611   
    185. D(C  17,C  16,C  15,C  14)     -0.0159         0.026611   
    186. D(H  32,C  17,C  16,H  31)     -0.0018         0.028059   
    187. D(H  32,C  17,C  16,C  15)   -179.9961         0.028059   
    188. D(C  18,C  17,C  16,H  31)   -179.9899         0.028059   
    189. D(C  18,C  17,C  16,C  15)      0.0158         0.028059   
    190. D(H  33,C  18,C  17,H  32)      0.0110         0.027719   
    191. D(H  33,C  18,C  17,C  16)    179.9991         0.027719   
    192. D(C  19,C  18,C  17,H  32)   -179.9864         0.027719   
    193. D(C  19,C  18,C  17,C  16)      0.0016         0.027719   
    194. D(C  14,C  19,C  18,H  33)    179.9844         0.026856   
    195. D(C  14,C  19,C  18,C  17)     -0.0181         0.026856   
    196. D(C   3,C  19,C  18,H  33)     -0.0547         0.026856   
    197. D(C   3,C  19,C  18,C  17)    179.9428         0.026856   
    198. D(C  18,C  19,C  14,C  15)      0.0182         0.024988   
    199. D(C  18,C  19,C  14,S  11)   -179.9871         0.024988   
    200. D(C   3,C  19,C  14,C  15)   -179.9491         0.024988   
    201. D(C   3,C  19,C  14,S  11)      0.0457         0.024988   
    202. D(C  18,C  19,C   3,C   4)   -179.9642         0.017568   
    203. D(C  18,C  19,C   3,C   1)      0.0228         0.017568   
    204. D(C  14,C  19,C   3,C   4)     -0.0013         0.017568   
    205. D(C  14,C  19,C   3,C   1)    179.9857         0.017568   
    -----------------------------------------------------------------

Number of atoms                         .... 34
Number of degrees of freedom            .... 205

         *************************************************************
         *                GEOMETRY OPTIMIZATION CYCLE   1            *
         *************************************************************
---------------------------------
CARTESIAN COORDINATES (ANGSTROEM)
---------------------------------
  C     -1.005900   -0.616000    2.106100
  C     -0.824300   -0.809400    0.597400
  C     -0.708500   -2.294800    0.241500
  C      0.355900   -0.019400    0.075200
  C     -0.049500    0.907700   -0.821400
  C     -1.472900    0.860600   -1.006300
  C     -2.322700    1.603500   -1.809200
  C     -3.676900    1.313700   -1.766100
  C     -4.164300    0.309300   -0.942600
  C     -3.311600   -0.436300   -0.136400
  C     -1.963000   -0.160700   -0.167700
  S      1.352800    1.831200   -1.426900
  O      1.590600    1.575000   -2.821500
  O      1.302500    3.204000   -1.002100
  C      2.489600    0.881900   -0.396400
  C      3.850700    1.015800   -0.302600
  C      4.541500    0.172200    0.562800
  C      3.855500   -0.775000    1.305200
  C      2.478400   -0.905000    1.205400
  C      1.776300   -0.068500    0.344100
  H     -1.087700    0.443000    2.339500
  H     -0.160700   -1.027300    2.651400
  H     -1.912600   -1.116000    2.437700
  H     -1.611500   -2.819900    0.543100
  H     -0.579900   -2.412800   -0.831800
  H      0.142400   -2.746000    0.744800
  H     -1.930300    2.381700   -2.445000
  H     -4.363400    1.876200   -2.381100
  H     -5.224200    0.102300   -0.926800
  H     -3.708800   -1.214600    0.498700
  H      4.363200    1.760900   -0.890600
  H      5.613400    0.257300    0.654700
  H      4.401000   -1.424600    1.973800
  H      1.964800   -1.649800    1.793200

----------------------------
CARTESIAN COORDINATES (A.U.)
----------------------------
  NO LB      ZA    FRAG     MASS         X           Y           Z
   0 C     6.0000    0    12.011   -1.900876   -1.164071    3.979952
   1 C     6.0000    0    12.011   -1.557701   -1.529544    1.128922
   2 C     6.0000    0    12.011   -1.338871   -4.336544    0.456369
   3 C     6.0000    0    12.011    0.672554   -0.036661    0.142107
   4 C     6.0000    0    12.011   -0.093541    1.715304   -1.552221
   5 C     6.0000    0    12.011   -2.783378    1.626298   -1.901631
   6 C     6.0000    0    12.011   -4.389267    3.030176   -3.418893
   7 C     6.0000    0    12.011   -6.948334    2.482533   -3.337445
   8 C     6.0000    0    12.011   -7.869387    0.584492   -1.781256
   9 C     6.0000    0    12.011   -6.258017   -0.824488   -0.257759
  10 C     6.0000    0    12.011   -3.709532   -0.303679   -0.316907
  11 S    16.0000    0    32.060    2.556422    3.460466   -2.696450
  12 O     8.0000    0    15.999    3.005798    2.976319   -5.331862
  13 O     8.0000    0    15.999    2.461368    6.054683   -1.893695
  14 C     6.0000    0    12.011    4.704662    1.666549   -0.749087
  15 C     6.0000    0    12.011    7.276768    1.919584   -0.571831
  16 C     6.0000    0    12.011    8.582191    0.325411    1.063538
  17 C     6.0000    0    12.011    7.285839   -1.464538    2.466471
  18 C     6.0000    0    12.011    4.683497   -1.710202    2.277876
  19 C     6.0000    0    12.011    3.356721   -0.129446    0.650255
  20 H     1.0000    0     1.008   -2.055455    0.837149    4.421014
  21 H     1.0000    0     1.008   -0.303679   -1.941316    5.010420
  22 H     1.0000    0     1.008   -3.614290   -2.108934    4.606585
  23 H     1.0000    0     1.008   -3.045294   -5.328839    1.026310
  24 H     1.0000    0     1.008   -1.095852   -4.559531   -1.571874
  25 H     1.0000    0     1.008    0.269097   -5.189188    1.407468
  26 H     1.0000    0     1.008   -3.647738    4.500761   -4.620380
  27 H     1.0000    0     1.008   -8.245631    3.545504   -4.499627
  28 H     1.0000    0     1.008   -9.872307    0.193319   -1.751398
  29 H     1.0000    0     1.008   -7.008616   -2.295261    0.942406
  30 H     1.0000    0     1.008    8.245253    3.327619   -1.682990
  31 H     1.0000    0     1.008   10.607789    0.486227    1.237204
  32 H     1.0000    0     1.008    8.316685   -2.692104    3.729941
  33 H     1.0000    0     1.008    3.712934   -3.117670    3.388657

--------------------------------
INTERNAL COORDINATES (ANGSTROEM)
--------------------------------
 C      0   0   0     0.000000000000     0.00000000     0.00000000
 C      1   0   0     1.531847841661     0.00000000     0.00000000
 C      2   1   0     1.531824927986   111.11338197     0.00000000
 C      2   1   3     1.513163864226   111.49614197   234.89816878
 C      4   2   1     1.351944943406   110.67161663   242.52101244
 C      5   4   2     1.436131602605   111.10638886   359.95000634
 C      6   5   4     1.385174667686   131.68969245   180.02713247
 C      7   6   5     1.385532132431   117.99628226   179.96426312
 C      8   7   6     1.387274439323   120.88334640     0.00000000
 C      9   8   7     1.390314744941   121.13184209     0.00000000
 C     10   9   8     1.376828605891   118.69911012     0.00000000
 S      5   4   2     1.784916745958   110.13255255   179.96580417
 O     12   5   4     1.437740046044   111.51833751   113.28254205
 O     12   5   4     1.437902976560   111.48535771   246.86905821
 C     12   5   4     1.804276857913    91.66348908     0.05861186
 C     15  12   5     1.370883240834   127.82496330   179.93511084
 C     16  15  12     1.392042657392   118.42790269   180.00516615
 C     17  16  15     1.385258676205   120.11920968     0.00000000
 C     18  17  16     1.386818102708   121.14954114     0.00000000
 C     19  18  17     1.390868200082   119.30388447     0.00000000
 H      1   2   3     1.087496114936   110.07439204   180.08668078
 H      1   2   3     1.086684323987   110.74613883    59.95166522
 H      1   2   3     1.087227414114   109.94942721   299.73612151
 H      3   2   1     1.087244944803   109.94336656    60.36940369
 H      3   2   1     1.087398202132   110.08979332   180.02232440
 H      3   2   1     1.086702875675   110.74468919   300.17415123
 H      7   6   5     1.078802410083   120.35403485   359.97613752
 H      8   7   6     1.079774745028   119.65160616   180.00769225
 H      9   8   7     1.080040114996   119.48740023   180.00639330
 H     10   9   8     1.080217913201   120.11919821   179.99502858
 H     16  15  12     1.078690993751   120.12528531     0.00000000
 H     17  16  15     1.079192860429   119.87092412   179.98976129
 H     18  17  16     1.080081649691   119.53064234   180.00387777
 H     19  18  17     1.078897974787   119.88167861   179.99907885

---------------------------
INTERNAL COORDINATES (A.U.)
---------------------------
 C      0   0   0     0.000000000000     0.00000000     0.00000000
 C      1   0   0     2.894772899577     0.00000000     0.00000000
 C      2   1   0     2.894729599008   111.11338197     0.00000000
 C      2   1   3     2.859465299134   111.49614197   234.89816878
 C      4   2   1     2.554805691176   110.67161663   242.52101244
 C      5   4   2     2.713895421192   111.10638886   359.95000634
 C      6   5   4     2.617600769573   131.68969245   180.02713247
 C      7   6   5     2.618276280043   117.99628226   179.96426312
 C      8   7   6     2.621568762910   120.88334640     0.00000000
 C      9   8   7     2.627314107891   121.13184209     0.00000000
 C     10   9   8     2.601828998483   118.69911012     0.00000000
 S      5   4   2     3.373003821710   110.13255255   179.96580417
 O     12   5   4     2.716934938795   111.51833751   113.28254205
 O     12   5   4     2.717242832849   111.48535771   246.86905821
 C     12   5   4     3.409589131227    91.66348908     0.05861186
 C     15  12   5     2.590593886759   127.82496330   179.93511084
 C     16  15  12     2.630579389208   118.42790269   180.00516615
 C     17  16  15     2.617759522665   120.11920968     0.00000000
 C     18  17  16     2.620706411683   121.14954114     0.00000000
 C     19  18  17     2.628359986535   119.30388447     0.00000000
 H      1   2   3     2.055069828932   110.07439204   180.08668078
 H      1   2   3     2.053535766362   110.74613883    59.95166522
 H      1   2   3     2.054562057966   109.94942721   299.73612151
 H      3   2   1     2.054595186168   109.94336656    60.36940369
 H      3   2   1     2.054884800548   110.08979332   180.02232440
 H      3   2   1     2.053570823970   110.74468919   300.17415123
 H      7   6   5     2.038641107670   120.35403485   359.97613752
 H      8   7   6     2.040478554427   119.65160616   180.00769225
 H      9   8   7     2.040980030991   119.48740023   180.00639330
 H     10   9   8     2.041316020906   120.11919821   179.99502858
 H     16  15  12     2.038430561317   120.12528531     0.00000000
 H     17  16  15     2.039378951893   119.87092412   179.98976129
 H     18  17  16     2.041058520191   119.53064234   180.00387777
 H     19  18  17     2.038821698790   119.88167861   179.99907885

---------------------
BASIS SET INFORMATION
---------------------
There are 4 groups of distinct atoms

 Group   1 Type C   : 19s6p3d2f contracted to 5s4p3d2f pattern {88111/3111/111/11}
 Group   2 Type S   : 42s17p3d2f contracted to 6s5p3d2f pattern {131313111/77111/111/11}
 Group   3 Type O   : 19s6p3d2f contracted to 5s4p3d2f pattern {88111/3111/111/11}
 Group   4 Type H   : 5s2p1d contracted to 3s2p1d pattern {311/11/1}

Atom   0C    basis set group =>   1
Atom   1C    basis set group =>   1
Atom   2C    basis set group =>   1
Atom   3C    basis set group =>   1
Atom   4C    basis set group =>   1
Atom   5C    basis set group =>   1
Atom   6C    basis set group =>   1
Atom   7C    basis set group =>   1
Atom   8C    basis set group =>   1
Atom   9C    basis set group =>   1
Atom  10C    basis set group =>   1
Atom  11S    basis set group =>   2
Atom  12O    basis set group =>   3
Atom  13O    basis set group =>   3
Atom  14C    basis set group =>   1
Atom  15C    basis set group =>   1
Atom  16C    basis set group =>   1
Atom  17C    basis set group =>   1
Atom  18C    basis set group =>   1
Atom  19C    basis set group =>   1
Atom  20H    basis set group =>   4
Atom  21H    basis set group =>   4
Atom  22H    basis set group =>   4
Atom  23H    basis set group =>   4
Atom  24H    basis set group =>   4
Atom  25H    basis set group =>   4
Atom  26H    basis set group =>   4
Atom  27H    basis set group =>   4
Atom  28H    basis set group =>   4
Atom  29H    basis set group =>   4
Atom  30H    basis set group =>   4
Atom  31H    basis set group =>   4
Atom  32H    basis set group =>   4
Atom  33H    basis set group =>   4
---------------------------------
AUXILIARY/J BASIS SET INFORMATION
---------------------------------
There are 4 groups of distinct atoms

 Group   1 Type C   : 10s7p5d2f1g contracted to 10s7p5d2f1g pattern {1111111111/1111111/11111/11/1}
 Group   2 Type S   : 13s11p9d3f1g contracted to 13s11p9d3f1g pattern {1111111111111/11111111111/111111111/111/1}
 Group   3 Type O   : 10s7p5d2f1g contracted to 10s7p5d2f1g pattern {1111111111/1111111/11111/11/1}
 Group   4 Type H   : 4s3p2d1f contracted to 4s3p2d1f pattern {1111/111/11/1}

Atom   0C    basis set group =>   1
Atom   1C    basis set group =>   1
Atom   2C    basis set group =>   1
Atom   3C    basis set group =>   1
Atom   4C    basis set group =>   1
Atom   5C    basis set group =>   1
Atom   6C    basis set group =>   1
Atom   7C    basis set group =>   1
Atom   8C    basis set group =>   1
Atom   9C    basis set group =>   1
Atom  10C    basis set group =>   1
Atom  11S    basis set group =>   2
Atom  12O    basis set group =>   3
Atom  13O    basis set group =>   3
Atom  14C    basis set group =>   1
Atom  15C    basis set group =>   1
Atom  16C    basis set group =>   1
Atom  17C    basis set group =>   1
Atom  18C    basis set group =>   1
Atom  19C    basis set group =>   1
Atom  20H    basis set group =>   4
Atom  21H    basis set group =>   4
Atom  22H    basis set group =>   4
Atom  23H    basis set group =>   4
Atom  24H    basis set group =>   4
Atom  25H    basis set group =>   4
Atom  26H    basis set group =>   4
Atom  27H    basis set group =>   4
Atom  28H    basis set group =>   4
Atom  29H    basis set group =>   4
Atom  30H    basis set group =>   4
Atom  31H    basis set group =>   4
Atom  32H    basis set group =>   4
Atom  33H    basis set group =>   4
---------------------------------
AUXILIARY/C BASIS SET INFORMATION
---------------------------------
There are 4 groups of distinct atoms

 Group   1 Type C   : 9s7p6d4f2g contracted to 9s7p6d4f2g pattern {111111111/1111111/111111/1111/11}
 Group   2 Type S   : 11s9p8d6f3g contracted to 11s9p8d6f3g pattern {11111111111/111111111/11111111/111111/111}
 Group   3 Type O   : 9s7p6d4f2g contracted to 9s7p6d4f2g pattern {111111111/1111111/111111/1111/11}
 Group   4 Type H   : 4s3p2d1f contracted to 4s3p2d1f pattern {1111/111/11/1}

Atom   0C    basis set group =>   1
Atom   1C    basis set group =>   1
Atom   2C    basis set group =>   1
Atom   3C    basis set group =>   1
Atom   4C    basis set group =>   1
Atom   5C    basis set group =>   1
Atom   6C    basis set group =>   1
Atom   7C    basis set group =>   1
Atom   8C    basis set group =>   1
Atom   9C    basis set group =>   1
Atom  10C    basis set group =>   1
Atom  11S    basis set group =>   2
Atom  12O    basis set group =>   3
Atom  13O    basis set group =>   3
Atom  14C    basis set group =>   1
Atom  15C    basis set group =>   1
Atom  16C    basis set group =>   1
Atom  17C    basis set group =>   1
Atom  18C    basis set group =>   1
Atom  19C    basis set group =>   1
Atom  20H    basis set group =>   4
Atom  21H    basis set group =>   4
Atom  22H    basis set group =>   4
Atom  23H    basis set group =>   4
Atom  24H    basis set group =>   4
Atom  25H    basis set group =>   4
Atom  26H    basis set group =>   4
Atom  27H    basis set group =>   4
Atom  28H    basis set group =>   4
Atom  29H    basis set group =>   4
Atom  30H    basis set group =>   4
Atom  31H    basis set group =>   4
Atom  32H    basis set group =>   4
Atom  33H    basis set group =>   4


           ************************************************************
           *        Program running with 4 parallel MPI-processes     *
           *              working on a common directory               *
           ************************************************************
------------------------------------------------------------------------------
                           ORCA GTO INTEGRAL CALCULATION
                           -- RI-GTO INTEGRALS CHOSEN --
------------------------------------------------------------------------------
------------------------------------------------------------------------------
                   ___                                                        
                  /   \      - P O W E R E D   B Y -                         
                 /     \                                                     
                 |  |  |   _    _      __       _____    __    __             
                 |  |  |  | |  | |    /  \     |  _  \  |  |  /  |          
                  \  \/   | |  | |   /    \    | | | |  |  | /  /          
                 / \  \   | |__| |  /  /\  \   | |_| |  |  |/  /          
                |  |  |   |  __  | /  /__\  \  |    /   |      \           
                |  |  |   | |  | | |   __   |  |    \   |  |\   \          
                \     /   | |  | | |  |  |  |  | |\  \  |  | \   \       
                 \___/    |_|  |_| |__|  |__|  |_| \__\ |__|  \__/        
                                                                              
                      - O R C A' S   B I G   F R I E N D -                    
                                      &                                       
                       - I N T E G R A L  F E E D E R -                       
                                                                              
 v1 FN, 2020, v2 2021                                                         
------------------------------------------------------------------------------


Reading SHARK input file optpbed3-wb2plyp-train-3.SHARKINP.tmp ... ok
----------------------
SHARK INTEGRAL PACKAGE
----------------------

Number of atoms                             ...     34
Number of basis functions                   ...   1259
Number of shells                            ...    495
Maximum angular momentum                    ...      3
Integral batch strategy                     ... SHARK/LIBINT Hybrid
RI-J (if used) integral strategy            ... SPLIT-RIJ (Revised 2003 algorithm where possible)
Printlevel                                  ...      1
Contraction scheme used                     ... PARTIAL GENERAL contraction
Coulomb Range Separation                    ... NOT USED
Exchange Range Separation                   ... NOT USED
Finite Nucleus Model                        ... NOT USED
Auxiliary Coulomb fitting basis             ... AVAILABLE
   # of basis functions in Aux-J            ...   2042
   # of shells in Aux-J                     ...    652
   Maximum angular momentum in Aux-J        ...      4
Auxiliary J/K fitting basis                 ... NOT available
Auxiliary Correlation fitting basis         ... AVAILABLE
   # of basis functions in Aux-C            ...   2581
   # of shells in Aux-C                     ...    709
   Maximum angular momentum in Aux-C        ...      4
Auxiliary 'external' fitting basis          ... NOT available
Integral threshold                          ...     2.500000e-11
Primitive cut-off                           ...     2.500000e-12
Primitive pair pre-selection threshold      ...     2.500000e-12

Calculating pre-screening integrals         ... done (  0.2 sec) Dimension = 495
Calculating pre-screening integrals (ORCA)  ... done (  0.6 sec) Dimension = 366
Organizing shell pair data                  ... done (  1.5 sec)
Shell pair information
Total number of shell pairs                 ...    122760
Shell pairs after pre-screening             ...     83830
Total number of primitive shell pairs       ...    157740
Primitive shell pairs kept                  ...     97907
          la=0 lb=0:  18885 shell pairs
          la=1 lb=0:  21401 shell pairs
          la=1 lb=1:   5399 shell pairs
          la=2 lb=0:  13967 shell pairs
          la=2 lb=1:   6965 shell pairs
          la=2 lb=2:   2307 shell pairs
          la=3 lb=0:   7762 shell pairs
          la=3 lb=1:   3883 shell pairs
          la=3 lb=2:   2528 shell pairs
          la=3 lb=3:    733 shell pairs

Calculating one electron integrals          ... done (  0.2 sec)
Calculating RI/J V-Matrix + Cholesky decomp.... done (  0.3 sec)
Calculating RI/C V-Matrix + Cholesky decomp.... done (  0.5 sec)
Calculating Nuclear repulsion               ... done (  0.0 sec) ENN=   1686.481702598117 Eh

SHARK setup successfully completed in   4.6 seconds

Maximum memory used throughout the entire GTOINT-calculation: 125.9 MB


           ************************************************************
           *        Program running with 4 parallel MPI-processes     *
           *              working on a common directory               *
           ************************************************************
-------------------------------------------------------------------------------
                                 ORCA SCF
-------------------------------------------------------------------------------

------------
SCF SETTINGS
------------
Hamiltonian:
 Density Functional     Method          .... DFT(GTOs)
 Exchange Functional    Exchange        .... PBE
   PBE kappa parameter   XKappa         ....  0.804000
   PBE mue parameter    XMuePBE         ....  0.219520
 Correlation Functional Correlation     .... PBE
   PBE beta parameter  CBetaPBE         ....  0.066725
 LDA part of GGA corr.  LDAOpt          .... PW91-LDA
 Gradients option       PostSCFGGA      .... off
 Hybrid DFT is turned on
   Fraction HF Exchange ScalHFX         ....  0.250000
   Scaling of DF-GGA-X  ScalDFX         ....  0.750000
   Scaling of DF-GGA-C  ScalDFC         ....  1.000000
   Scaling of DF-LDA-C  ScalLDAC        ....  1.000000
   Perturbative correction              ....  0.000000
   Density functional embedding theory  .... OFF
   NL short-range parameter             ....  6.900000
 RI-approximation to the Coulomb term is turned on
   Number of AuxJ basis functions       .... 2042
   RIJ-COSX (HFX calculated with COS-X)).... on


General Settings:
 Integral files         IntName         .... optpbed3-wb2plyp-train-3
 Hartree-Fock type      HFTyp           .... RHF
 Total Charge           Charge          ....    0
 Multiplicity           Mult            ....    1
 Number of Electrons    NEL             ....  148
 Basis Dimension        Dim             .... 1120
 Nuclear Repulsion      ENuc            ....   1686.4817025981 Eh

Convergence Acceleration:
 DIIS                   CNVDIIS         .... on
   Start iteration      DIISMaxIt       ....    12
   Startup error        DIISStart       ....  0.200000
   # of expansion vecs  DIISMaxEq       ....     5
   Bias factor          DIISBfac        ....   1.050
   Max. coefficient     DIISMaxC        ....  10.000
 Trust-Rad. Augm. Hess. CNVTRAH         .... auto
   Auto Start mean grad. ratio tolernc. ....  1.125000
   Auto Start start iteration           ....    20
   Auto Start num. interpolation iter.  ....    10
   Max. Number of Micro iterations      ....    16
   Max. Number of Macro iterations      .... Maxiter - #DIIS iter
   Number of Davidson start vectors     ....     2
   Converg. threshold I  (grad. norm)   ....   1.000e-05
   Converg. threshold II (energy diff.) ....   1.000e-08
   Grad. Scal. Fac. for Micro threshold ....   0.100
   Minimum threshold for Micro iter.    ....   0.010
   NR start threshold (gradient norm)   ....   0.001
   Initial trust radius                 ....   0.400
   Minimum AH scaling param. (alpha)    ....   1.000
   Maximum AH scaling param. (alpha)    .... 1000.000
   Orbital update algorithm             .... Taylor
   White noise on init. David. guess    .... on
   Maximum white noise                  ....   0.010
   Quad. conv. algorithm                .... NR
 SOSCF                  CNVSOSCF        .... on
   Start iteration      SOSCFMaxIt      ....   150
   Startup grad/error   SOSCFStart      ....  0.003300
 Level Shifting         CNVShift        .... on
   Level shift para.    LevelShift      ....    0.2500
   Turn off err/grad.   ShiftErr        ....    0.0010
 Zerner damping         CNVZerner       .... off
 Static damping         CNVDamp         .... on
   Fraction old density DampFac         ....    0.7000
   Max. Damping (<1)    DampMax         ....    0.9800
   Min. Damping (>=0)   DampMin         ....    0.0000
   Turn off err/grad.   DampErr         ....    0.1000
 Fernandez-Rico         CNVRico         .... off

SCF Procedure:
 Maximum # iterations   MaxIter         ....   125
 SCF integral mode      SCFMode         .... Direct
   Integral package                     .... SHARK and LIBINT hybrid scheme
 Reset frequency        DirectResetFreq ....    20
 Integral Threshold     Thresh          ....  2.500e-11 Eh
 Primitive CutOff       TCut            ....  2.500e-12 Eh

Convergence Tolerance:
 Convergence Check Mode ConvCheckMode   .... Total+1el-Energy
 Convergence forced     ConvForced      .... 0
 Energy Change          TolE            ....  1.000e-08 Eh
 1-El. energy change                    ....  1.000e-05 Eh
 Orbital Gradient       TolG            ....  1.000e-05
 Orbital Rotation angle TolX            ....  1.000e-05
 DIIS Error             TolErr          ....  5.000e-07


Diagonalization of the overlap matrix:
Smallest eigenvalue                        ... 2.467e-07
Time for diagonalization                   ...    0.282 sec
Threshold for overlap eigenvalues          ... 1.000e-08
Number of eigenvalues below threshold      ... 0
Time for construction of square roots      ...    0.179 sec
Total time needed                          ...    0.471 sec

Time for model grid setup =    0.842 sec

------------------------------
INITIAL GUESS: MODEL POTENTIAL
------------------------------
Loading Hartree-Fock densities                     ... done
Calculating cut-offs                               ... done
Initializing the effective Hamiltonian             ... done
Setting up the integral package (SHARK)            ... done
Starting the Coulomb interaction                   ... done (   2.9 sec)
Reading the grid                                   ... done
Mapping shells                                     ... done
Starting the XC term evaluation                    ... done (   2.6 sec)
  promolecular density results
     # of electrons  =    147.994226357
     EX              =   -132.502786333
     EC              =     -5.097308491
     EX+EC           =   -137.600094824
Transforming the Hamiltonian                       ... done (   0.1 sec)
Diagonalizing the Hamiltonian                      ... done (   0.3 sec)
Back transforming the eigenvectors                 ... done (   0.1 sec)
Now organizing SCF variables                       ... done
                      ------------------
                      INITIAL GUESS DONE (   6.9 sec)
                      ------------------
-------------------
DFT GRID GENERATION
-------------------

General Integration Accuracy     IntAcc      ... 4.388
Radial Grid Type                 RadialGrid  ... OptM3 with GC (2021)
Angular Grid (max. ang.)         AngularGrid ... 4 (Lebedev-302)
Angular grid pruning method      GridPruning ... 4 (adaptive)
Weight generation scheme         WeightScheme... Becke
Basis function cutoff            BFCut       ... 1.0000e-11
Integration weight cutoff        WCut        ... 1.0000e-14
Angular grids for H and He will be reduced by one unit
Partially contracted basis set               ... off
Rotationally invariant grid construction     ... off

Total number of grid points                  ...   169543
Total number of batches                      ...     2666
Average number of points per batch           ...       63
Average number of grid points per atom       ...     4987
Time for grid setup =    2.719 sec

--------------------
COSX GRID GENERATION
--------------------

GRIDX 1
-------
General Integration Accuracy     IntAcc      ... 3.816
Radial Grid Type                 RadialGrid  ... OptM3 with GC (2021)
Angular Grid (max. ang.)         AngularGrid ... 1 (Lebedev-50)
Angular grid pruning method      GridPruning ... 4 (adaptive)
Weight generation scheme         WeightScheme... Becke
Basis function cutoff            BFCut       ... 1.0000e-11
Integration weight cutoff        WCut        ... 1.0000e-14
Angular grids for H and He will be reduced by one unit
Partially contracted basis set               ... on
Rotationally invariant grid construction     ... off

Total number of grid points                  ...    21449
Total number of batches                      ...      353
Average number of points per batch           ...       60
Average number of grid points per atom       ...      631
UseSFitting                                  ... on

GRIDX 2
-------
General Integration Accuracy     IntAcc      ... 4.020
Radial Grid Type                 RadialGrid  ... OptM3 with GC (2021)
Angular Grid (max. ang.)         AngularGrid ... 2 (Lebedev-110)
Angular grid pruning method      GridPruning ... 4 (adaptive)
Weight generation scheme         WeightScheme... Becke
Basis function cutoff            BFCut       ... 1.0000e-11
Integration weight cutoff        WCut        ... 1.0000e-14
Angular grids for H and He will be reduced by one unit
Partially contracted basis set               ... on
Rotationally invariant grid construction     ... off

Total number of grid points                  ...    50314
Total number of batches                      ...      802
Average number of points per batch           ...       62
Average number of grid points per atom       ...     1480
UseSFitting                                  ... on

GRIDX 3
-------
General Integration Accuracy     IntAcc      ... 4.338
Radial Grid Type                 RadialGrid  ... OptM3 with GC (2021)
Angular Grid (max. ang.)         AngularGrid ... 3 (Lebedev-194)
Angular grid pruning method      GridPruning ... 4 (adaptive)
Weight generation scheme         WeightScheme... Becke
Basis function cutoff            BFCut       ... 1.0000e-11
Integration weight cutoff        WCut        ... 1.0000e-14
Angular grids for H and He will be reduced by one unit
Partially contracted basis set               ... on
Rotationally invariant grid construction     ... off

Total number of grid points                  ...   109208
Total number of batches                      ...     1724
Average number of points per batch           ...       63
Average number of grid points per atom       ...     3212
UseSFitting                                  ... on

Time for X-Grid setup             =    6.828 sec


--------------------
CPCM SOLVATION MODEL
--------------------
CPCM parameters:
  Epsilon                                         ...       8.9300
  Refrac                                          ...       1.4242
  Rsolv                                           ...       1.3000
  Surface type                                    ... GAUSSIAN VDW
  Epsilon function type                           ...         CPCM
Solvent:                                     ... DICHLOROMETHANE
SMD-CDS solvent descriptors:
  Soln                                       ...    1.4242
  Soln25                                     ...    1.4212
  Sola                                       ...    0.1000
  Solb                                       ...    0.0500
  Solg                                       ...   39.1500
  Solc                                       ...    0.0000
  Solh                                       ...    0.6670
Radii:
 Radius for C  used is    3.4960 Bohr (=   1.8500 Ang.)
 Radius for S  used is    4.7054 Bohr (=   2.4900 Ang.)
 Radius for O  used is    3.9949 Bohr (=   2.1140 Ang.)
 Radius for H  used is    2.2677 Bohr (=   1.2000 Ang.)
Calculating surface                               ...        done! (  0.0s)
GEPOL surface points                              ...         1948
GEPOL Volume                                      ...    2006.9602
GEPOL Surface-area                                ...    1078.5538
Calculating surface distance matrix               ...        done! (  0.1s)
Performing Cholesky decomposition & store         ...        done! (  0.2s)
Overall time for CPCM initialization              ...                 0.3s
 re-compute Schwartz prescreening matrix in partically contracted basis (1) ...done (   0.244 sec)
--------------
SCF ITERATIONS
--------------
ITER       Energy         Delta-E        Max-DP      RMS-DP      [F,P]     Damp
               ***  Starting incremental Fock matrix formation  ***
  0  -1203.5286780323   0.000000000000 0.54973178  0.00306396  0.3064616 0.7000
  1  -1203.7821769521  -0.253498919789 0.55695470  0.00222948  0.1181628 0.7000
                               ***Turning on DIIS***
  2  -1203.8809960864  -0.098819134265 1.66816032  0.00504418  0.0404855 0.0000
  3  -1204.0471575948  -0.166161508407 0.22234027  0.00111186  0.0525776 0.0000
  4  -1204.0762417349  -0.029084140165 0.10358989  0.00045564  0.0175157 0.0000
  5  -1204.0785694398  -0.002327704882 0.10385642  0.00021064  0.0067640 0.0000
                      *** Initiating the SOSCF procedure ***
                           *** Shutting down DIIS ***
                      *** Re-Reading the Fockian *** 
                      *** Removing any level shift *** 
ITER      Energy       Delta-E        Grad      Rot      Max-DP    RMS-DP
  6  -1204.07868792  -0.0001184797  0.000355  0.000355  0.020489  0.000114
               *** Restarting incremental Fock matrix formation ***
  7  -1204.07868070   0.0000072165  0.000212  0.000926  0.150961  0.000613
  8  -1204.07868241  -0.0000017092  0.000157  0.000599  0.089179  0.000261
  9  -1204.07868327  -0.0000008590  0.000069  0.000224  0.257178  0.000466
 10  -1204.07868348  -0.0000002089  0.000015  0.000036  0.054152  0.000216
 11  -1204.07868345   0.0000000301  0.000012  0.000030  0.043088  0.000141
 12  -1204.07868349  -0.0000000443  0.000004  0.000010  0.060123  0.000278
 13  -1204.07868350  -0.0000000015  0.000003  0.000008  0.069241  0.000238
 14  -1204.07868349   0.0000000023  0.000003  0.000017  0.066996  0.000420
 15  -1204.07868345   0.0000000423  0.000005  0.000005  0.161376  0.000284
 16  -1204.07868343   0.0000000224  0.000004  0.000020  0.835489  0.001369
 17  -1204.07868341   0.0000000230  0.000007  0.000009  0.522293  0.000865
                  ***Gradient check signals convergence***
              ***Rediagonalizing the Fockian in SOSCF/NRSCF***

               *****************************************************
               *                     SUCCESS                       *
               *           SCF CONVERGED AFTER  18 CYCLES          *
               *****************************************************

Old exchange energy                            =    -33.711435722 Eh
New exchange energy                            =    -33.711420478 Eh
Exchange energy change after final integration =      0.000015244 Eh
Total energy after final integration           =  -1204.078668193 Eh
Final COS-X integration done in                =   163.038 sec

SMD CDS free energy correction energy :                -6.11390     Kcal/mol
Total Energy after SMD CDS correction =             -1204.088411310 Eh

----------------
TOTAL SCF ENERGY
----------------

Total Energy       :        -1204.08841131 Eh          -32764.91141 eV

Components:
Nuclear Repulsion  :         1686.48170260 Eh           45891.50021 eV
Electronic Energy  :        -2890.57011391 Eh          -78656.41161 eV
One Electron Energy:        -4994.66370049 Eh         -135911.70891 eV
Two Electron Energy:         2104.09358659 Eh           57255.29729 eV
Max COSX asymmetry :            0.00008998 Eh               0.00245 eV
CPCM Dielectric    :           -0.02281339 Eh              -0.62078 eV
SMD CDS (Gcds)     :           -0.00974312 Eh              -0.26512 eV

Virial components:
Potential Energy   :        -2402.63585865 Eh          -65379.04552 eV
Kinetic Energy     :         1198.54744734 Eh           32614.13411 eV
Virial Ratio       :            2.00462307


DFT components:
N(Alpha)           :       74.000097057156 electrons
N(Beta)            :       74.000097057156 electrons
N(Total)           :      148.000194114312 electrons
E(X)               :     -100.811973309059 Eh       
E(C)               :       -5.091762668796 Eh       
E(XC)              :     -105.903735977855 Eh       
DFET-embed. en.    :        0.000000000000 Eh       
CPCM Solvation Model Properties:
Surface-charge          :           -0.05118578
Charge-correction       :            0.00024792 Eh               0.00675 eV
Free-energy (cav+disp)  :           -0.00974312 Eh              -0.26512 eV

---------------
SCF CONVERGENCE
---------------

  Last Energy change         ...   -3.0916e-08  Tolerance :   1.0000e-08
  Last MAX-Density change    ...    4.8850e-15  Tolerance :   1.0000e-07
  Last RMS-Density change    ...    2.4498e-17  Tolerance :   5.0000e-09
  Last Orbital Gradient      ...    2.3792e-06  Tolerance :   1.0000e-05
  Last Orbital Rotation      ...    5.8460e-06  Tolerance :   1.0000e-05

             **** THE GBW FILE WAS UPDATED (optpbed3-wb2plyp-train-3.gbw) ****
             **** DENSITY optpbed3-wb2plyp-train-3.scfp WAS UPDATED ****
             **** ENERGY FILE WAS UPDATED (optpbed3-wb2plyp-train-3.en.tmp) ****
             **** THE GBW FILE WAS UPDATED (optpbed3-wb2plyp-train-3.gbw) ****
             **** DENSITY optpbed3-wb2plyp-train-3.scfp WAS UPDATED ****
----------------
ORBITAL ENERGIES
----------------

  NO   OCC          E(Eh)            E(eV) 
   0   2.0000     -89.252515     -2428.6844 
   1   2.0000     -19.211683      -522.7765 
   2   2.0000     -19.211656      -522.7757 
   3   2.0000     -10.268613      -279.4232 
   4   2.0000     -10.264526      -279.3119 
   5   2.0000     -10.264024      -279.2983 
   6   2.0000     -10.261756      -279.2366 
   7   2.0000     -10.260569      -279.2043 
   8   2.0000     -10.251498      -278.9574 
   9   2.0000     -10.250070      -278.9186 
  10   2.0000     -10.244507      -278.7672 
  11   2.0000     -10.242725      -278.7187 
  12   2.0000     -10.242064      -278.7007 
  13   2.0000     -10.240512      -278.6585 
  14   2.0000     -10.232680      -278.4454 
  15   2.0000     -10.231238      -278.4061 
  16   2.0000     -10.230040      -278.3735 
  17   2.0000     -10.229081      -278.3474 
  18   2.0000     -10.215615      -277.9810 
  19   2.0000     -10.215598      -277.9805 
  20   2.0000      -8.184585      -222.7139 
  21   2.0000      -6.121281      -166.5685 
  22   2.0000      -6.120834      -166.5564 
  23   2.0000      -6.120780      -166.5549 
  24   2.0000      -1.154817       -31.4242 
  25   2.0000      -1.045749       -28.4563 
  26   2.0000      -0.946646       -25.7595 
  27   2.0000      -0.912598       -24.8331 
  28   2.0000      -0.870309       -23.6823 
  29   2.0000      -0.838554       -22.8182 
  30   2.0000      -0.805518       -21.9192 
  31   2.0000      -0.798924       -21.7398 
  32   2.0000      -0.769009       -20.9258 
  33   2.0000      -0.746883       -20.3237 
  34   2.0000      -0.718762       -19.5585 
  35   2.0000      -0.714003       -19.4290 
  36   2.0000      -0.667315       -18.1586 
  37   2.0000      -0.657458       -17.8904 
  38   2.0000      -0.624827       -17.0024 
  39   2.0000      -0.608718       -16.5641 
  40   2.0000      -0.593892       -16.1606 
  41   2.0000      -0.580179       -15.7875 
  42   2.0000      -0.539964       -14.6932 
  43   2.0000      -0.529461       -14.4074 
  44   2.0000      -0.513987       -13.9863 
  45   2.0000      -0.499655       -13.5963 
  46   2.0000      -0.489772       -13.3274 
  47   2.0000      -0.480009       -13.0617 
  48   2.0000      -0.474348       -12.9077 
  49   2.0000      -0.470452       -12.8016 
  50   2.0000      -0.463016       -12.5993 
  51   2.0000      -0.457909       -12.4603 
  52   2.0000      -0.449513       -12.2319 
  53   2.0000      -0.448918       -12.2157 
  54   2.0000      -0.427114       -11.6224 
  55   2.0000      -0.422011       -11.4835 
  56   2.0000      -0.403967       -10.9925 
  57   2.0000      -0.399991       -10.8843 
  58   2.0000      -0.394350       -10.7308 
  59   2.0000      -0.393924       -10.7192 
  60   2.0000      -0.387897       -10.5552 
  61   2.0000      -0.376354       -10.2411 
[...]
   Time for K (COSX):            62.179
   Time for XC-Integration:      20.873
   Time for LR-CPCM terms:       12.317
   Time for Sigma-Completion:     0.151
   Size of expansion space: 50
   Lowest Energy          :     0.148417738062
   Maximum Energy change  :     0.007161699519 (vector 3)
   Maximum residual norm  :     0.000713350667

                       ****Iteration    3****
   Time for densities:            0.244
   Time for RI-J (Direct):       13.168
   Time for K (COSX):            62.459
   Time for XC-Integration:      21.194
   Time for LR-CPCM terms:       12.142
   Time for Sigma-Completion:     0.143
   Size of expansion space: 60
   Lowest Energy          :     0.148189029996
   Maximum Energy change  :     0.001849987150 (vector 8)
   Maximum residual norm  :     0.000564360643

                       ****Iteration    4****
   Time for densities:            0.227
   Time for RI-J (Direct):       12.855
   Time for K (COSX):            58.831
   Time for XC-Integration:      19.514
   Time for LR-CPCM terms:       12.250
   Time for Sigma-Completion:     0.149
   Size of expansion space: 70
   Lowest Energy          :     0.148162868382
   Maximum Energy change  :     0.002631127596 (vector 8)
   Maximum residual norm  :     0.000653335771
   Rebuilding the expansion space

                       ****Iteration    5****
   Time for densities:            0.463
   Time for RI-J (Direct):       16.981
   Time for K (COSX):           103.940
   Time for XC-Integration:      41.350
   Time for LR-CPCM terms:       19.196
   Time for Sigma-Completion:     0.307
   Size of expansion space: 20
   Lowest Energy          :     0.148160060987
   Maximum Energy change  :     0.001214830864 (vector 8)
   Maximum residual norm  :     0.000224750904

                       ****Iteration    6****
   Time for densities:            0.241
   Time for RI-J (Direct):       13.075
   Time for K (COSX):            62.527
   Time for XC-Integration:      21.814
   Time for LR-CPCM terms:       12.530
   Time for Sigma-Completion:     0.151
   Size of expansion space: 30
   Lowest Energy          :     0.148159643844
   Maximum Energy change  :     0.000678808509 (vector 8)
   Maximum residual norm  :     0.000189762695

                       ****Iteration    7****
   Time for densities:            0.244
   Time for RI-J (Direct):       13.102
   Time for K (COSX):            62.632
   Time for XC-Integration:      21.874
   Time for LR-CPCM terms:       12.367
   Time for Sigma-Completion:     0.154
   Size of expansion space: 40
   Lowest Energy          :     0.148159591715
   Maximum Energy change  :     0.003579052640 (vector 9)
   Maximum residual norm  :     0.003770000450

                       ****Iteration    8****
   Time for densities:            0.246
   Time for RI-J (Direct):       13.061
   Time for K (COSX):            62.626
   Time for XC-Integration:      21.484
   Time for LR-CPCM terms:       12.305
   Time for Sigma-Completion:     0.156
   Size of expansion space: 50
   Lowest Energy          :     0.148159587285
   Maximum Energy change  :     0.008063867493 (vector 9)
   Maximum residual norm  :     0.001336113621

                       ****Iteration    9****
   Time for densities:            0.245
   Time for RI-J (Direct):       13.143
   Time for K (COSX):            62.465
   Time for XC-Integration:      21.965
   Time for LR-CPCM terms:       12.387
   Time for Sigma-Completion:     0.155
   Size of expansion space: 60
   Lowest Energy          :     0.148159586872
   Maximum Energy change  :     0.002767678078 (vector 6)
   Maximum residual norm  :     0.000406163713

                       ****Iteration   10****
   Time for densities:            0.248
   Time for RI-J (Direct):       13.197
   Time for K (COSX):            62.722
   Time for XC-Integration:      21.958
   Time for LR-CPCM terms:       12.328
   Time for Sigma-Completion:     0.149
   Size of expansion space: 70
   Lowest Energy          :     0.148159586848
   Maximum Energy change  :     0.000746732490 (vector 6)
   Maximum residual norm  :     0.000070857180
   Rebuilding the expansion space

                       ****Iteration   11****
   Time for densities:            0.487
   Time for RI-J (Direct):       17.093
   Time for K (COSX):           105.917
   Time for XC-Integration:      39.915
   Time for LR-CPCM terms:       18.892
   Time for Sigma-Completion:     0.285
   Size of expansion space: 20
   Lowest Energy          :     0.148159584803
   Maximum Energy change  :     0.000116581023 (vector 6)
   Maximum residual norm  :     0.000022785590

                       ****Iteration   12****
   Time for densities:            0.224
   Time for RI-J (Direct):       13.175
   Time for K (COSX):            60.498
   Time for XC-Integration:      22.727
   Time for LR-CPCM terms:       12.475
   Time for Sigma-Completion:     0.148
   Size of expansion space: 30
   Lowest Energy          :     0.148159584802
   Maximum Energy change  :     0.000048321418 (vector 6)
   Maximum residual norm  :     0.000006134684

                       ****Iteration   13****
   Time for densities:            0.235
   Time for RI-J (Direct):       13.324
   Time for K (COSX):            62.949
   Time for XC-Integration:      22.367
   Time for LR-CPCM terms:       12.413
   Time for Sigma-Completion:     0.148
   Size of expansion space: 40
   Lowest Energy          :     0.148159584802
   Maximum Energy change  :     0.000014919044 (vector 6)
   Maximum residual norm  :     0.000002417946

                       ****Iteration   14****
   Time for densities:            0.219
   Time for RI-J (Direct):       13.071
   Time for K (COSX):            58.970
   Time for XC-Integration:      20.247
   Time for LR-CPCM terms:       11.769
   Time for Sigma-Completion:     0.133
   Size of expansion space: 49
   Lowest Energy          :     0.148159584802
   Maximum Energy change  :     0.000003812638 (vector 6)
   Maximum residual norm  :     0.000000563585

      *** CONVERGENCE OF RESIDUAL NORM REACHED ***

Storing the converged CI vectors               ... optpbed3-wb2plyp-train-3_job2.cis1

                 *** DAVIDSON DONE ***

Total time for solving the CIS problem:  1926.790sec

------------------
DOUBLES CORRECTION (Double precision version)
------------------

The (D) correction will be scaled by  0.2700
Doing v(i,a)*T(i,a) terms (RI)                    ... ok
Doing u(i,j,a,b) terms for state   0              ... ok
Doing u(i,j,a,b) terms for state   1              ... ok
Doing u(i,j,a,b) terms for state   2              ... ok
Doing u(i,j,a,b) terms for state   3              ... ok
Doing u(i,j,a,b) terms for state   4              ... ok
Doing u(i,j,a,b) terms for state   5              ... ok
Doing u(i,j,a,b) terms for state   6              ... ok
Doing u(i,j,a,b) terms for state   7              ... ok
Doing u(i,j,a,b) terms for state   8              ... ok
Doing u(i,j,a,b) terms for state   9              ... ok

Contributions to the (D) correction(s) (in eV)

STATE  Final   Init.   Total   v(ext)   v(int)  v(3)    u
       omega   omega     (D)                             
-----------------------------------------------------------------------------
   0   3.925   4.032  -0.107   0.518   0.882  -0.052  -1.455
   1   4.861   5.185  -0.324   0.457   0.841  -0.029  -1.593
   2   5.013   5.345  -0.333   0.451   0.825  -0.025  -1.584
   3   5.604   5.744  -0.140   0.468   0.828  -0.061  -1.374
   4   5.959   6.057  -0.098   0.042   0.881  -0.001  -1.019
   5   5.862   6.264  -0.401   0.445   0.829  -0.066  -1.609
   6   5.722   6.335  -0.612   0.525   0.765  -0.015  -1.887
   7   6.117   6.435  -0.318   0.411   0.815  -0.073  -1.471
   8   6.433   6.517  -0.084   0.030   0.869  -0.002  -0.982
   9   6.302   6.526  -0.223   0.424   0.807  -0.058  -1.396

(D)-timings
 V(i,a)*T(i,a) terms           ...   398.575 sec
 U(i,j,a,b) 3-internal         ...    12.323 sec
 U(i,j,a,b) 3-external         ...   341.272 sec
 U(i,j,a,b) pair terms         ...   277.112 sec
 Total measured time           ...  2175.395 sec

 Time for (ab|v) I/O           ...   103.514 sec


------------------------------------
TD-DFT/TDA EXCITED STATES (SINGLETS)
------------------------------------

the weight of the individual excitations are printed if larger than 1.0e-02

STATE  1:  E=   0.144228 au      3.925 eV    31654.3 cm**-1 <S**2> =   0.000000
    70a ->  74a  :     0.022439 (c=  0.14979619)
    73a ->  74a  :     0.892002 (c= -0.94445861)

STATE  2:  E=   0.178636 au      4.861 eV    39206.0 cm**-1 <S**2> =   0.000000
    70a ->  74a  :     0.029184 (c=  0.17083298)
    70a ->  78a  :     0.058231 (c=  0.24131051)
    70a ->  79a  :     0.043002 (c=  0.20736834)
    70a ->  89a  :     0.012343 (c= -0.11109750)
    71a ->  74a  :     0.268903 (c=  0.51855816)
    71a ->  89a  :     0.024083 (c=  0.15518579)
    72a ->  74a  :     0.020335 (c=  0.14260078)
    73a ->  78a  :     0.235193 (c= -0.48496681)
    73a ->  79a  :     0.223390 (c= -0.47264130)

STATE  3:  E=   0.184207 au      5.013 eV    40428.8 cm**-1 <S**2> =   0.000000
    70a ->  83a  :     0.033335 (c= -0.18257881)
    70a ->  86a  :     0.010541 (c= -0.10267059)
    70a ->  87a  :     0.019392 (c= -0.13925672)
    71a ->  74a  :     0.031012 (c= -0.17610275)
    72a ->  74a  :     0.295679 (c=  0.54376407)
    72a ->  78a  :     0.011577 (c= -0.10759526)
    72a ->  79a  :     0.036211 (c= -0.19029267)
    72a ->  89a  :     0.077015 (c= -0.27751545)
    72a ->  95a  :     0.019873 (c=  0.14097252)
    73a ->  83a  :     0.212050 (c= -0.46048878)
    73a ->  86a  :     0.040805 (c= -0.20200352)
    73a ->  87a  :     0.084365 (c= -0.29045592)
    73a ->  89a  :     0.018847 (c= -0.13728323)
    73a ->  93a  :     0.012103 (c= -0.11001294)

STATE  4:  E=   0.205937 au      5.604 eV    45198.0 cm**-1 <S**2> =   0.000000
    70a ->  74a  :     0.176884 (c= -0.42057541)
    71a ->  74a  :     0.270888 (c=  0.52046872)
    71a ->  78a  :     0.027270 (c=  0.16513692)
    71a ->  79a  :     0.043529 (c=  0.20863499)
    72a ->  83a  :     0.032829 (c= -0.18118822)
    72a ->  87a  :     0.014893 (c= -0.12203487)
    73a ->  78a  :     0.019569 (c=  0.13988829)
    73a ->  79a  :     0.090197 (c=  0.30032776)
    73a ->  83a  :     0.023613 (c= -0.15366479)
    73a ->  86a  :     0.037414 (c= -0.19342699)
    73a ->  87a  :     0.013981 (c= -0.11824037)
    73a ->  89a  :     0.099379 (c=  0.31524473)
    73a ->  95a  :     0.029950 (c= -0.17306137)

STATE  5:  E=   0.218983 au      5.959 eV    48061.2 cm**-1 <S**2> =   0.000000
    70a ->  76a  :     0.024099 (c=  0.15523947)
    73a ->  75a  :     0.553198 (c= -0.74377273)
    73a ->  76a  :     0.031487 (c=  0.17744698)
    73a ->  77a  :     0.069325 (c= -0.26329718)
    73a ->  80a  :     0.022842 (c= -0.15113548)
    73a ->  81a  :     0.026350 (c= -0.16232722)
    73a ->  82a  :     0.085900 (c=  0.29308772)
    73a ->  90a  :     0.021268 (c= -0.14583682)
    73a ->  91a  :     0.022464 (c=  0.14988115)
    73a ->  92a  :     0.016910 (c= -0.13003796)
    73a -> 104a  :     0.017342 (c=  0.13168855)

STATE  6:  E=   0.215442 au      5.862 eV    47284.2 cm**-1 <S**2> =   0.000000
    68a ->  74a  :     0.010497 (c=  0.10245312)
    70a ->  74a  :     0.109683 (c=  0.33118421)
    70a ->  89a  :     0.013369 (c=  0.11562463)
    71a ->  74a  :     0.086165 (c=  0.29353831)
    71a ->  78a  :     0.015155 (c= -0.12310518)
    72a ->  74a  :     0.292389 (c=  0.54072960)
    73a ->  78a  :     0.084923 (c=  0.29141549)
    73a ->  79a  :     0.085601 (c=  0.29257656)
    73a ->  83a  :     0.128910 (c=  0.35904002)
    73a ->  87a  :     0.030922 (c=  0.17584690)

STATE  7:  E=   0.210292 au      5.722 eV    46153.7 cm**-1 <S**2> =   0.000000
    69a ->  74a  :     0.851807 (c=  0.92293377)
    69a ->  78a  :     0.011001 (c=  0.10488377)
    69a ->  79a  :     0.022154 (c=  0.14884218)
    69a ->  98a  :     0.015336 (c=  0.12383697)
    69a -> 103a  :     0.011878 (c= -0.10898475)

STATE  8:  E=   0.224799 au      6.117 eV    49337.7 cm**-1 <S**2> =   0.000000
    70a ->  74a  :     0.073444 (c=  0.27100470)
    70a ->  78a  :     0.015981 (c= -0.12641766)
    70a ->  79a  :     0.021047 (c= -0.14507742)
    71a ->  74a  :     0.153410 (c=  0.39167582)
    72a ->  74a  :     0.137635 (c= -0.37099149)
    72a ->  83a  :     0.076890 (c=  0.27729127)
    72a ->  86a  :     0.017969 (c=  0.13404675)
    72a ->  87a  :     0.021834 (c=  0.14776270)
    72a ->  89a  :     0.010365 (c=  0.10181091)
    73a ->  78a  :     0.131939 (c=  0.36323452)
    73a ->  83a  :     0.091877 (c= -0.30311189)
    73a ->  89a  :     0.093735 (c= -0.30616200)
    73a ->  93a  :     0.018136 (c= -0.13467075)

STATE  9:  E=   0.236398 au      6.433 eV    51883.4 cm**-1 <S**2> =   0.000000
    70a ->  75a  :     0.081211 (c=  0.28497461)
    73a ->  75a  :     0.015167 (c= -0.12315387)
    73a ->  76a  :     0.596346 (c= -0.77223440)
    73a ->  81a  :     0.046452 (c= -0.21552782)
    73a ->  82a  :     0.018280 (c=  0.13520206)
    73a ->  84a  :     0.013510 (c=  0.11623435)
    73a ->  88a  :     0.085847 (c= -0.29299734)
    73a -> 111a  :     0.015479 (c= -0.12441445)

STATE 10:  E=   0.231604 au      6.302 eV    50831.2 cm**-1 <S**2> =   0.000000
    68a ->  74a  :     0.039589 (c= -0.19897052)
    70a ->  74a  :     0.131136 (c= -0.36212738)
    71a ->  78a  :     0.139292 (c=  0.37321890)
    71a ->  79a  :     0.103142 (c=  0.32115654)
    71a ->  89a  :     0.013462 (c= -0.11602410)
    72a ->  74a  :     0.050431 (c=  0.22456737)
    72a ->  83a  :     0.126077 (c=  0.35507315)
    72a ->  86a  :     0.030964 (c=  0.17596578)
    72a ->  87a  :     0.067564 (c=  0.25993055)
    73a ->  74a  :     0.017759 (c= -0.13326246)
    73a ->  79a  :     0.011827 (c= -0.10875223)
    73a ->  83a  :     0.017430 (c=  0.13202277)
    73a ->  86a  :     0.022202 (c=  0.14900466)
    73a ->  87a  :     0.043231 (c=  0.20791946)
    73a ->  89a  :     0.028027 (c= -0.16741204)
    73a -> 103a  :     0.015531 (c=  0.12462498)


-----------------------------
TD-DFT/TDA-EXCITATION SPECTRA
-----------------------------

Center of mass = (  0.5585,  0.9168, -0.7470)
Calculating the Dipole integrals                  ... done
Transforming integrals                            ... done
Calculating the Linear Momentum integrals         ... done
Transforming integrals                            ... done
Calculating angular momentum integrals            ... done
Transforming integrals                            ... done

-----------------------------------------------------------------------------
         ABSORPTION SPECTRUM VIA TRANSITION ELECTRIC DIPOLE MOMENTS
-----------------------------------------------------------------------------
State   Energy    Wavelength  fosc         T2        TX        TY        TZ  
        (cm-1)      (nm)                 (au**2)    (au)      (au)      (au) 
-----------------------------------------------------------------------------
   1   31654.3    315.9   0.473218402   4.92158   2.11826  -0.28410   0.59485
   2   39206.0    255.1   0.050857242   0.42705  -0.61315   0.11357  -0.19546
   3   40428.8    247.3   0.005259905   0.04283  -0.19439  -0.06590   0.02650
   4   45198.0    221.2   0.260871656   1.90013   1.20328  -0.39427   0.54479
   5   48061.2    208.1   0.002107733   0.01444   0.03341  -0.08695  -0.07590
   6   47284.2    211.5   0.801949782   5.58351   1.48460  -1.23932   1.35777
   7   46153.7    216.7   0.001855552   0.01324  -0.03936  -0.03109  -0.10354
   8   49337.7    202.7   0.170494503   1.13765   1.03741  -0.07746   0.23544
   9   51883.4    192.7   0.002684142   0.01703  -0.09587   0.08814  -0.00838
  10   50831.2    196.7   0.631515438   4.09005   1.65941  -0.71526   0.90819

-----------------------------------------------------------------------------
         ABSORPTION SPECTRUM VIA TRANSITION VELOCITY DIPOLE MOMENTS
-----------------------------------------------------------------------------
State   Energy    Wavelength   fosc        P2         PX        PY        PZ  
        (cm-1)      (nm)                 (au**2)     (au)      (au)      (au) 
-----------------------------------------------------------------------------
   1   31654.3    315.9   0.094725197   0.02049  -0.13546   0.02232  -0.04055
   2   39206.0    255.1   0.026484659   0.00710   0.08299  -0.00175   0.01435
   3   40428.8    247.3   0.003625928   0.00100   0.03101   0.00634  -0.00021
   4   45198.0    221.2   0.139743397   0.04317  -0.19610   0.03167  -0.06089
   5   48061.2    208.1   0.001189785   0.00039  -0.00558   0.01386   0.01295
   6   47284.2    211.5   0.359801566   0.11627  -0.28957   0.10839  -0.14378
   7   46153.7    216.7   0.001137372   0.00036   0.00784   0.00744   0.01555
   8   49337.7    202.7   0.085630246   0.02887  -0.16561   0.01096  -0.03645
   9   51883.4    192.7   0.001456783   0.00052   0.01566  -0.01602  -0.00386
  10   50831.2    196.7   0.274461430   0.09535  -0.26602   0.09290  -0.12630

-------------------------------------------------------------------
                             CD SPECTRUM
-------------------------------------------------------------------
State  Energy     Wavelength     R         MX        MY        MZ   
       (cm-1)       (nm)     (1e40*cgs)   (au)      (au)      (au)  
-------------------------------------------------------------------
   1   31654.3    315.9     -4.06093  -0.03489   0.17226   0.19205
   2   39206.0    255.1      0.29854  -0.03048   0.17915   0.19645
   3   40428.8    247.3     -0.03867   0.00385  -0.01735  -0.01797
   4   45198.0    221.2      2.56032   0.09951  -0.56957  -0.62202
   5   48061.2    208.1      1.14525   0.03709  -0.09573   0.09399
   6   47284.2    211.5      3.80240  -0.02719   0.18540   0.20489
   7   46153.7    216.7     -0.19088   0.07675   0.08654  -0.05125
   8   49337.7    202.7      0.32978   0.11164  -0.64161  -0.70004
   9   51883.4    192.7     18.12048  -0.00304   0.39624  -0.38415
  10   50831.2    196.7    -16.02556  -0.02338   0.15046   0.12379

-------------------------------------------------------------------
         CD SPECTRUM VIA TRANSITION VELOCITY DIPOLE MOMENTS        
-------------------------------------------------------------------
State  Energy     Wavelength     R         MX        MY        MZ   
       (cm-1)       (nm)     (1e40*cgs)   (au)      (au)      (au)  
-------------------------------------------------------------------
   1   31654.3    315.9      2.56882  -0.03489   0.17226   0.19205
   2   39206.0    255.1     -0.06126  -0.03048   0.17915   0.19645
   3   40428.8    247.3      0.03373   0.00385  -0.01735  -0.01797
   4   45198.0    221.2      0.73686   0.09951  -0.56957  -0.62202
   5   48061.2    208.1     -0.68086   0.03709  -0.09573   0.09399
   6   47284.2    211.5     -3.26481  -0.02719   0.18540   0.20489
   7   46153.7    216.7      1.00516   0.07675   0.08654  -0.05125
   8   49337.7    202.7     -0.00538   0.11164  -0.64161  -0.70004
   9   51883.4    192.7     -9.79283  -0.00304   0.39624  -0.38415
  10   50831.2    196.7      9.28910  -0.02338   0.15046   0.12379

Total run time:     4111.397 sec

           *** ORCA-CIS/TD-DFT FINISHED WITHOUT ERROR ***

Maximum memory used throughout the entire CIS-calculation: 1923.0 MB

-----------------------
CIS/TD-DFT TOTAL ENERGY
-----------------------

    E(SCF)  =  -1202.381207065 Eh
    DE(CIS) =      0.144227592 Eh (Root  1)
    ----------------------------- ---------
    E(tot)  =  -1202.236979473 Eh

  Warning: (DFTVDWD): Non-parameterized functional used for dispersion correction ! 

  Warning: (D3BJ): Non-parameterized functional used for dispersion correction !

Please define all necessary parameters (s6, s8, a1, and a2) in the %method block!
[file orca_tools/Tool-Misc/qcdftvdw.cpp, line 36127]: ERROR in DFT dispersion correction!

