
                                 *****************
                                 * O   R   C   A *
                                 *****************

                                            #,                                       
                                            ###                                      
                                            ####                                     
                                            #####                                    
                                            ######                                   
                                           ########,                                 
                                     ,,################,,,,,                         
                               ,,#################################,,                 
                          ,,##########################################,,             
                       ,#########################################, ''#####,          
                    ,#############################################,,   '####,        
                  ,##################################################,,,,####,       
                ,###########''''           ''''###############################       
              ,#####''   ,,,,##########,,,,          '''####'''          '####       
            ,##' ,,,,###########################,,,                        '##       
           ' ,,###''''                  '''############,,,                           
         ,,##''                                '''############,,,,        ,,,,,,###''
      ,#''                                            '''#######################'''  
     '                                                          ''''####''''         
             ,#######,   #######,   ,#######,      ##                                
            ,#'     '#,  ##    ##  ,#'     '#,    #''#        ######   ,####,        
            ##       ##  ##   ,#'  ##            #'  '#       #        #'  '#        
            ##       ##  #######   ##           ,######,      #####,   #    #        
            '#,     ,#'  ##    ##  '#,     ,#' ,#      #,         ##   #,  ,#        
             '#######'   ##     ##  '#######'  #'      '#     #####' # '####'        



                  #######################################################
                  #                        -***-                        #
                  #          Department of theory and spectroscopy      #
                  #    Directorship and core code : Frank Neese         #
                  #        Max Planck Institute fuer Kohlenforschung    #
                  #                Kaiser Wilhelm Platz 1               #
                  #                 D-45470 Muelheim/Ruhr               #
                  #                      Germany                        #
                  #                                                     #
                  #                  All rights reserved                #
                  #                        -***-                        #
                  #######################################################


                         Program Version 5.0.2 -  RELEASE  -


 With contributions from (in alphabetic order):
   Daniel Aravena         : Magnetic Suceptibility
   Michael Atanasov       : Ab Initio Ligand Field Theory (pilot matlab implementation)
   Alexander A. Auer      : GIAO ZORA, VPT2 properties, NMR spectrum
   Ute Becker             : Parallelization
   Giovanni Bistoni       : ED, misc. LED, open-shell LED, HFLD
   Martin Brehm           : Molecular dynamics
   Dmytro Bykov           : SCF Hessian
   Vijay G. Chilkuri      : MRCI spin determinant printing, contributions to CSF-ICE
   Dipayan Datta          : RHF DLPNO-CCSD density
   Achintya Kumar Dutta   : EOM-CC, STEOM-CC
   Dmitry Ganyushin       : Spin-Orbit,Spin-Spin,Magnetic field MRCI
   Miquel Garcia          : C-PCM and meta-GGA Hessian, CC/C-PCM, Gaussian charge scheme
   Yang Guo               : DLPNO-NEVPT2, F12-NEVPT2, CIM, IAO-localization
   Andreas Hansen         : Spin unrestricted coupled pair/coupled cluster methods
   Benjamin Helmich-Paris : MC-RPA, TRAH-SCF, COSX integrals
   Lee Huntington         : MR-EOM, pCC
   Robert Izsak           : Overlap fitted RIJCOSX, COSX-SCS-MP3, EOM
   Marcus Kettner         : VPT2
   Christian Kollmar      : KDIIS, OOCD, Brueckner-CCSD(T), CCSD density, CASPT2, CASPT2-K
   Simone Kossmann        : Meta GGA functionals, TD-DFT gradient, OOMP2, MP2 Hessian
   Martin Krupicka        : Initial AUTO-CI
   Lucas Lang             : DCDCAS
   Marvin Lechner         : AUTO-CI (C++ implementation), FIC-MRCC
   Dagmar Lenk            : GEPOL surface, SMD
   Dimitrios Liakos       : Extrapolation schemes; Compound Job, initial MDCI parallelization
   Dimitrios Manganas     : Further ROCIS development; embedding schemes
   Dimitrios Pantazis     : SARC Basis sets
   Anastasios Papadopoulos: AUTO-CI, single reference methods and gradients
   Taras Petrenko         : DFT Hessian,TD-DFT gradient, ASA, ECA, R-Raman, ABS, FL, XAS/XES, NRVS
   Peter Pinski           : DLPNO-MP2, DLPNO-MP2 Gradient
   Christoph Reimann      : Effective Core Potentials
   Marius Retegan         : Local ZFS, SOC
   Christoph Riplinger    : Optimizer, TS searches, QM/MM, DLPNO-CCSD(T), (RO)-DLPNO pert. Triples
   Tobias Risthaus        : Range-separated hybrids, TD-DFT gradient, RPA, STAB
   Michael Roemelt        : Original ROCIS implementation
   Masaaki Saitow         : Open-shell DLPNO-CCSD energy and density
   Barbara Sandhoefer     : DKH picture change effects
   Avijit Sen             : IP-ROCIS
   Kantharuban Sivalingam : CASSCF convergence, NEVPT2, FIC-MRCI
   Bernardo de Souza      : ESD, SOC TD-DFT
   Georgi Stoychev        : AutoAux, RI-MP2 NMR, DLPNO-MP2 response
   Willem Van den Heuvel  : Paramagnetic NMR
   Boris Wezisla          : Elementary symmetry handling
   Frank Wennmohs         : Technical directorship


 We gratefully acknowledge several colleagues who have allowed us to
 interface, adapt or use parts of their codes:
   Stefan Grimme, W. Hujo, H. Kruse, P. Pracht,  : VdW corrections, initial TS optimization,
                  C. Bannwarth, S. Ehlert          DFT functionals, gCP, sTDA/sTD-DF
   Ed Valeev, F. Pavosevic, A. Kumar             : LibInt (2-el integral package), F12 methods
   Garnet Chan, S. Sharma, J. Yang, R. Olivares  : DMRG
   Ulf Ekstrom                                   : XCFun DFT Library
   Mihaly Kallay                                 : mrcc  (arbitrary order and MRCC methods)
   Jiri Pittner, Ondrej Demel                    : Mk-CCSD
   Frank Weinhold                                : gennbo (NPA and NBO analysis)
   Christopher J. Cramer and Donald G. Truhlar   : smd solvation model
   Lars Goerigk                                  : TD-DFT with DH, B97 family of functionals
   V. Asgeirsson, H. Jonsson                     : NEB implementation
   FAccTs GmbH                                   : IRC, NEB, NEB-TS, DLPNO-Multilevel, CI-OPT
                                                   MM, QMMM, 2- and 3-layer-ONIOM, Crystal-QMMM,
                                                   LR-CPCM, SF, NACMEs, symmetry and pop. for TD-DFT,
                                                   nearIR, NL-DFT gradient (VV10), updates on ESD,
                                                   ML-optimized integration grids
   S Lehtola, MJT Oliveira, MAL Marques          : LibXC Library
   Liviu Ungur et al                             : ANISO software


 Your calculation uses the libint2 library for the computation of 2-el integrals
 For citations please refer to: http://libint.valeyev.net

 Your ORCA version has been built with support for libXC version: 5.1.0
 For citations please refer to: https://tddft.org/programs/libxc/

 This ORCA versions uses:
   CBLAS   interface :  Fast vector & matrix operations
   LAPACKE interface :  Fast linear algebra routines
   SCALAPACK package :  Parallel linear algebra routines
   Shared memory     :  Shared parallel matrices
   BLAS/LAPACK       :  OpenBLAS 0.3.15  USE64BITINT DYNAMIC_ARCH NO_AFFINITY SkylakeX SINGLE_THREADED
        Core in use  :  SkylakeX
   Copyright (c) 2011-2014, The OpenBLAS Project


Your calculation utilizes the atom-pairwise dispersion correction
with the zero-damping scheme (D30)
Cite in your paper:
S.Grimme, J.Antony, S.Ehrlich and H.Krieg, J.Chem.Phys., 132, (2010), 154104 
   

Your calculation utilizes the SMD solvation module
Please cite in your paper:
A.V. Marenich, C.J. Cramer, D.G. Truhlar J. Phys. Chem. B, 113, (2009), 6378 

XCFun DFT library Copyright 2009-2010 Ulf Ekstrom and contributors.
See http://admol.org/xcfun for more information.
This is free software; see the source code for copying conditions.
There is ABSOLUTELY NO WARRANTY; not even for MERCHANTABILITY or FITNESS FOR A PARTICULAR PURPOSE.
For details see the documentation.
Scientific users of this library should cite U. Ekstrom, L. Visscher, R. Bast, A. J. Thorvaldsen and K. Ruud;
J.Chem.Theor.Comp. 2010, DOI: 10.1021/ct100117s
XCFun Version 0.99 

================================================================================

----- Orbital basis set information -----
Your calculation utilizes the basis: aug-cc-pVTZ 
    H, B-Ne : Obtained from the ccRepo (grant-hill.group.shef.ac.uk/ccrepo) Feb. 2017
              R. A. Kendall, T. H. Dunning, Jr., R. J. Harrison, J. Chem. Phys. 96, 6796 (1992)
         He : Obtained from the ccRepo (grant-hill.group.shef.ac.uk/ccrepo) Feb. 2017
              D. E. Woon, T. H. Dunning, Jr., J. Chem. Phys. 100, 2975 (1994)
  Li-Be, Na : Obtained from the ccRepo (grant-hill.group.shef.ac.uk/ccrepo) Feb. 2017
              B. P. Prascher, D. E. Woon, K. A. Peterson, T. H. Dunning, Jr., A. K. Wilson, Theor. Chem. Acc. 128, 69 (2011)
         Mg : Obtained from the Peterson Research Group Website (tyr0.chem.wsu.edu/~kipeters) Feb. 2017
              B. P. Prascher, D. E. Woon, K. A. Peterson, T. H. Dunning, Jr., A. K. Wilson, Theor. Chem. Acc. 128, 69 (2011)
      Al-Ar : Obtained from the ccRepo (grant-hill.group.shef.ac.uk/ccrepo) Feb. 2017
              D. E. Woon, T. H. Dunning, Jr., J. Chem. Phys. 98, 1358 (1993)
      Sc-Zn : Obtained from the ccRepo (grant-hill.group.shef.ac.uk/ccrepo) Feb. 2017
              N. B. Balabanov, K. A. Peterson, J. Chem. Phys. 123, 064107 (2005)
              N. B. Balabanov, K. A. Peterson, J. Chem. Phys. 125, 074110 (2006)
      Ga-Kr : Obtained from the ccRepo (grant-hill.group.shef.ac.uk/ccrepo) Feb. 2017
              A. K. Wilson, D. E. Woon, K. A. Peterson, T. H. Dunning, Jr., J. Chem. Phys. 110, 7667 (1999)
     Ag, Au : Obtained from the Peterson Research Group Website (tyr0.chem.wsu.edu/~kipeters) Feb. 2017
              K. A. Peterson, C. Puzzarini, Theor. Chem. Acc. 114, 283 (2005)

The basis set includes element-specific modifications.

Your calculation utilizes the basis: cc-pVTZ 
       H, B-Ne : Obtained from the ccRepo (grant-hill.group.shef.ac.uk/ccrepo) Feb. 2017
                 T. H. Dunning, Jr., J. Chem. Phys. 90, 1007 (1989)
            He : Obtained from the ccRepo (grant-hill.group.shef.ac.uk/ccrepo) Feb. 2017
                 D. E. Woon, T. H. Dunning, Jr., J. Chem. Phys. 100, 2975 (1994)
  Li-Be, Na-Mg : Obtained from the ccRepo (grant-hill.group.shef.ac.uk/ccrepo) Feb. 2017
                 B. P. Prascher, D. E. Woon, K. A. Peterson, T. H. Dunning, Jr., A. K. Wilson, Theor. Chem. Acc. 128, 69 (2011)
         Al-Ar : Obtained from the ccRepo (grant-hill.group.shef.ac.uk/ccrepo) Feb. 2017
                 D. E. Woon, T. H. Dunning, Jr., J. Chem. Phys. 98, 1358 (1993)
            Ca : Obtained from the Peterson Research Group Website (tyr0.chem.wsu.edu/~kipeters) Feb. 2017
                 J. Koput, K. A. Peterson, J. Phys. Chem. 106, 9595 (2002)
         Sc-Zn : Obtained from the ccRepo (grant-hill.group.shef.ac.uk/ccrepo) Feb. 2017
                 N. B. Balabanov, K. A. Peterson, J. Chem. Phys. 123, 064107 (2005)
                 N. B. Balabanov, K. A. Peterson, J. Chem. Phys. 125, 074110 (2006)
         Ga-Kr : Obtained from the ccRepo (grant-hill.group.shef.ac.uk/ccrepo) Feb. 2017
                 A. K. Wilson, D. E. Woon, K. A. Peterson, T. H. Dunning, Jr., J. Chem. Phys. 110, 7667 (1999)
             Y : Obtained from the ccRepo (grant-hill.group.shef.ac.uk/ccrepo) Feb. 2017
                 K. A. Peterson, D. Figgen, M. Dolg, H. Stoll, J. Chem. Phys. 126, 124101 (2007)
        Ag, Au : Obtained from the Peterson Research Group Website (tyr0.chem.wsu.edu/~kipeters) Feb. 2017
                 K. A. Peterson, C. Puzzarini, Theor. Chem. Acc. 114, 283 (2005)

----- AuxJ basis set information -----
Your calculation utilizes the auxiliary basis: aug-cc-pVTZ/JK 
  H, B-F, Al-Cl, Ga-Br : Obtained from the TURBOMOLE 7.0 basis set library

The basis set includes element-specific modifications.

Your calculation utilizes the auxiliary basis: cc-pVTZ/JK 
  H, B-F, Al-Cl, Ga-Br : Obtained from the TURBOMOLE 7.0 basis set library

----- AuxC basis set information -----
Your calculation utilizes the auxiliary basis: aug-cc-pVTZ/C 
  H-He, B-F, Al-Ar, Ga-Kr : Obtained from the EMSL Basis Set Exchange (bse.pnl.gov) Feb. 2017
                            F. Weigend, A. Kohn, C. Hattig, J. Chem. Phys. 116, 3175 (2002)
                   Be, Mg : Obtained from the TURBOMOLE 7.0 basis set library
                            C. Haettig, Phys. Chem. Chem. Phys. 7, 59 (2005)
                       Ne : Obtained from the EMSL Basis Set Exchange (bse.pnl.gov) Feb. 2017
                            C. Haettig, Phys. Chem. Chem. Phys. 7, 59 (2005)
                            F. Weigend, A. Kohn, C. Hattig, J. Chem. Phys. 116, 3175 (2002)
                    Sc-Zn : Obtained from the EMSL Basis Set Exchange (bse.pnl.gov) Feb. 2017
                            J. G. Hill, J. A. Platts, J. Chem. Phys. 128, 044104 (2008)

The basis set includes element-specific modifications.

Your calculation utilizes the auxiliary basis: cc-pVTZ/C 
  Obtained from the EMSL Basis Set Exchange (bse.pnl.gov) Feb. 2017
  H-He, B-F, Al-Ar, Ga-Kr : F. Weigend, A. Kohn, C. Hattig, J. Chem. Phys. 116, 3175 (2002)
             Li-Be, Na-Mg : C. Haettig, Phys. Chem. Chem. Phys. 7, 59 (2005)
                       Ne : C. Haettig, Phys. Chem. Chem. Phys. 7, 59 (2005)
                            F. Weigend, A. Kohn, C. Hattig, J. Chem. Phys. 116, 3175 (2002)
                    Sc-Zn : J. G. Hill, J. A. Platts, J. Chem. Phys. 128, 044104 (2008)

================================================================================
                                        WARNINGS
                       Please study these warnings very carefully!
================================================================================


WARNING: Geometry Optimization
  ===> : Switching off AutoStart
         For restart on a previous wavefunction, please use MOREAD

INFO   : the flag for use of the SHARK integral package has been found!



***************************************
The coordinates will be read from file: 
***************************************


Your calculation utilizes the atom-pairwise dispersion correction
with the zero-damping scheme (D30)
Cite in your paper:
S.Grimme, J.Antony, S.Ehrlich and H.Krieg, J.Chem.Phys., 132, (2010), 154104 
   

Your calculation utilizes the SMD solvation module
Please cite in your paper:
A.V. Marenich, C.J. Cramer, D.G. Truhlar J. Phys. Chem. B, 113, (2009), 6378 

XCFun DFT library Copyright 2009-2010 Ulf Ekstrom and contributors.
See http://admol.org/xcfun for more information.
This is free software; see the source code for copying conditions.
There is ABSOLUTELY NO WARRANTY; not even for MERCHANTABILITY or FITNESS FOR A PARTICULAR PURPOSE.
For details see the documentation.
Scientific users of this library should cite U. Ekstrom, L. Visscher, R. Bast, A. J. Thorvaldsen and K. Ruud;
J.Chem.Theor.Comp. 2010, DOI: 10.1021/ct100117s
XCFun Version 0.99 

================================================================================

----- Orbital basis set information -----
Your calculation utilizes the basis: aug-cc-pVTZ 
    H, B-Ne : Obtained from the ccRepo (grant-hill.group.shef.ac.uk/ccrepo) Feb. 2017
              R. A. Kendall, T. H. Dunning, Jr., R. J. Harrison, J. Chem. Phys. 96, 6796 (1992)
         He : Obtained from the ccRepo (grant-hill.group.shef.ac.uk/ccrepo) Feb. 2017
              D. E. Woon, T. H. Dunning, Jr., J. Chem. Phys. 100, 2975 (1994)
  Li-Be, Na : Obtained from the ccRepo (grant-hill.group.shef.ac.uk/ccrepo) Feb. 2017
              B. P. Prascher, D. E. Woon, K. A. Peterson, T. H. Dunning, Jr., A. K. Wilson, Theor. Chem. Acc. 128, 69 (2011)
         Mg : Obtained from the Peterson Research Group Website (tyr0.chem.wsu.edu/~kipeters) Feb. 2017
              B. P. Prascher, D. E. Woon, K. A. Peterson, T. H. Dunning, Jr., A. K. Wilson, Theor. Chem. Acc. 128, 69 (2011)
      Al-Ar : Obtained from the ccRepo (grant-hill.group.shef.ac.uk/ccrepo) Feb. 2017
              D. E. Woon, T. H. Dunning, Jr., J. Chem. Phys. 98, 1358 (1993)
      Sc-Zn : Obtained from the ccRepo (grant-hill.group.shef.ac.uk/ccrepo) Feb. 2017
              N. B. Balabanov, K. A. Peterson, J. Chem. Phys. 123, 064107 (2005)
              N. B. Balabanov, K. A. Peterson, J. Chem. Phys. 125, 074110 (2006)
      Ga-Kr : Obtained from the ccRepo (grant-hill.group.shef.ac.uk/ccrepo) Feb. 2017
              A. K. Wilson, D. E. Woon, K. A. Peterson, T. H. Dunning, Jr., J. Chem. Phys. 110, 7667 (1999)
     Ag, Au : Obtained from the Peterson Research Group Website (tyr0.chem.wsu.edu/~kipeters) Feb. 2017
              K. A. Peterson, C. Puzzarini, Theor. Chem. Acc. 114, 283 (2005)

The basis set includes element-specific modifications.

Your calculation utilizes the basis: cc-pVTZ 
       H, B-Ne : Obtained from the ccRepo (grant-hill.group.shef.ac.uk/ccrepo) Feb. 2017
                 T. H. Dunning, Jr., J. Chem. Phys. 90, 1007 (1989)
            He : Obtained from the ccRepo (grant-hill.group.shef.ac.uk/ccrepo) Feb. 2017
                 D. E. Woon, T. H. Dunning, Jr., J. Chem. Phys. 100, 2975 (1994)
  Li-Be, Na-Mg : Obtained from the ccRepo (grant-hill.group.shef.ac.uk/ccrepo) Feb. 2017
                 B. P. Prascher, D. E. Woon, K. A. Peterson, T. H. Dunning, Jr., A. K. Wilson, Theor. Chem. Acc. 128, 69 (2011)
         Al-Ar : Obtained from the ccRepo (grant-hill.group.shef.ac.uk/ccrepo) Feb. 2017
                 D. E. Woon, T. H. Dunning, Jr., J. Chem. Phys. 98, 1358 (1993)
            Ca : Obtained from the Peterson Research Group Website (tyr0.chem.wsu.edu/~kipeters) Feb. 2017
                 J. Koput, K. A. Peterson, J. Phys. Chem. 106, 9595 (2002)
         Sc-Zn : Obtained from the ccRepo (grant-hill.group.shef.ac.uk/ccrepo) Feb. 2017
                 N. B. Balabanov, K. A. Peterson, J. Chem. Phys. 123, 064107 (2005)
                 N. B. Balabanov, K. A. Peterson, J. Chem. Phys. 125, 074110 (2006)
         Ga-Kr : Obtained from the ccRepo (grant-hill.group.shef.ac.uk/ccrepo) Feb. 2017
                 A. K. Wilson, D. E. Woon, K. A. Peterson, T. H. Dunning, Jr., J. Chem. Phys. 110, 7667 (1999)
             Y : Obtained from the ccRepo (grant-hill.group.shef.ac.uk/ccrepo) Feb. 2017
                 K. A. Peterson, D. Figgen, M. Dolg, H. Stoll, J. Chem. Phys. 126, 124101 (2007)
        Ag, Au : Obtained from the Peterson Research Group Website (tyr0.chem.wsu.edu/~kipeters) Feb. 2017
                 K. A. Peterson, C. Puzzarini, Theor. Chem. Acc. 114, 283 (2005)

----- AuxJ basis set information -----
Your calculation utilizes the auxiliary basis: aug-cc-pVTZ/JK 
  H, B-F, Al-Cl, Ga-Br : Obtained from the TURBOMOLE 7.0 basis set library

The basis set includes element-specific modifications.

Your calculation utilizes the auxiliary basis: cc-pVTZ/JK 
  H, B-F, Al-Cl, Ga-Br : Obtained from the TURBOMOLE 7.0 basis set library

----- AuxC basis set information -----
Your calculation utilizes the auxiliary basis: aug-cc-pVTZ/C 
  H-He, B-F, Al-Ar, Ga-Kr : Obtained from the EMSL Basis Set Exchange (bse.pnl.gov) Feb. 2017
                            F. Weigend, A. Kohn, C. Hattig, J. Chem. Phys. 116, 3175 (2002)
                   Be, Mg : Obtained from the TURBOMOLE 7.0 basis set library
                            C. Haettig, Phys. Chem. Chem. Phys. 7, 59 (2005)
                       Ne : Obtained from the EMSL Basis Set Exchange (bse.pnl.gov) Feb. 2017
                            C. Haettig, Phys. Chem. Chem. Phys. 7, 59 (2005)
                            F. Weigend, A. Kohn, C. Hattig, J. Chem. Phys. 116, 3175 (2002)
                    Sc-Zn : Obtained from the EMSL Basis Set Exchange (bse.pnl.gov) Feb. 2017
                            J. G. Hill, J. A. Platts, J. Chem. Phys. 128, 044104 (2008)

The basis set includes element-specific modifications.

Your calculation utilizes the auxiliary basis: cc-pVTZ/C 
  Obtained from the EMSL Basis Set Exchange (bse.pnl.gov) Feb. 2017
  H-He, B-F, Al-Ar, Ga-Kr : F. Weigend, A. Kohn, C. Hattig, J. Chem. Phys. 116, 3175 (2002)
             Li-Be, Na-Mg : C. Haettig, Phys. Chem. Chem. Phys. 7, 59 (2005)
                       Ne : C. Haettig, Phys. Chem. Chem. Phys. 7, 59 (2005)
                            F. Weigend, A. Kohn, C. Hattig, J. Chem. Phys. 116, 3175 (2002)
                    Sc-Zn : J. G. Hill, J. A. Platts, J. Chem. Phys. 128, 044104 (2008)

================================================================================
                                        WARNINGS
                       Please study these warnings very carefully!
================================================================================

INFO   : Checking CIS options ...

INFO   : the flag for use of the SHARK integral package has been found!

================================================================================
                                       INPUT FILE
================================================================================
NAME = wb97x-d3-train-3.inp
|  1> ! wb97x-d3 aug-cc-PVTZ RIJCOSX Opt
|  2> %maxcore 4000
|  3> %basis
|  4>  AuxJ "aug-cc-PVTZ/JK"
|  5>  AuxC "aug-cc-PVTZ/C"
|  6>  newGTO H "cc-PVTZ" end
|  7>  newAuxJGTO H "cc-PVTZ/JK" end
|  8>  newAuxCGTO H "cc-PVTZ/C" end
|  9> end
| 10> %cpcm
| 11>  SMD true
| 12>  SMDsolvent "dichloromethane"
| 13> end
| 14> %pal nprocs 4 end
| 15> * xyz 0 1
| 16> C         -1.00590       -0.61600        2.10610
| 17> C         -0.82430       -0.80940        0.59740
| 18> C         -0.70850       -2.29480        0.24150
| 19> C          0.35590       -0.01940        0.07520
| 20> C         -0.04950        0.90770       -0.82140
| 21> C         -1.47290        0.86060       -1.00630
| 22> C         -2.32270        1.60350       -1.80920
| 23> C         -3.67690        1.31370       -1.76610
| 24> C         -4.16430        0.30930       -0.94260
| 25> C         -3.31160       -0.43630       -0.13640
| 26> C         -1.96300       -0.16070       -0.16770
| 27> S          1.35280        1.83120       -1.42690
| 28> O          1.59060        1.57500       -2.82150
| 29> O          1.30250        3.20400       -1.00210
| 30> C          2.48960        0.88190       -0.39640
| 31> C          3.85070        1.01580       -0.30260
| 32> C          4.54150        0.17220        0.56280
| 33> C          3.85550       -0.77500        1.30520
| 34> C          2.47840       -0.90500        1.20540
| 35> C          1.77630       -0.06850        0.34410
| 36> H         -1.08770        0.44300        2.33950
| 37> H         -0.16070       -1.02730        2.65140
| 38> H         -1.91260       -1.11600        2.43770
| 39> H         -1.61150       -2.81990        0.54310
| 40> H         -0.57990       -2.41280       -0.83180
| 41> H          0.14240       -2.74600        0.74480
| 42> H         -1.93030        2.38170       -2.44500
| 43> H         -4.36340        1.87620       -2.38110
| 44> H         -5.22420        0.10230       -0.92680
| 45> H         -3.70880       -1.21460        0.49870
| 46> H          4.36320        1.76090       -0.89060
| 47> H          5.61340        0.25730        0.65470
| 48> H          4.40100       -1.42460        1.97380
| 49> H          1.96480       -1.64980        1.79320
| 50> *
| 51> 
| 52> 
| 53> $new_job
| 54> ! wb97x-d3 aug-cc-PVTZ RIJCOSX SP
| 55> %maxcore 4000
| 56> %basis
| 57>  AuxJ "aug-cc-PVTZ/JK"
| 58>  AuxC "aug-cc-PVTZ/C"
| 59>  newGTO H "cc-PVTZ" end
| 60>  newAuxJGTO H "cc-PVTZ/JK" end
| 61>  newAuxCGTO H "cc-PVTZ/C" end
| 62> end
| 63> %cpcm
| 64>  SMD true
| 65>  SMDsolvent "dichloromethane"
| 66> end
| 67> %pal nprocs 4 end
| 68> %tddft
| 69>  nroots 10
| 70>  maxdim 7
| 71> end
| 72> * xyzfile 0 1
| 73> 
| 74>                          ****END OF INPUT****
================================================================================


                 $$$$$$$$$$$$$$$$$$$$$$$$$$$$$$$$$$$$$$$$$$$$$$ 
                 $ THERE ARE  2 JOBS TO BE PROCESSED THIS RUN $
                 $$$$$$$$$$$$$$$$$$$$$$$$$$$$$$$$$$$$$$$$$$$$$$ 




                 $$$$$$$$$$$$$$$$  JOB NUMBER  1 $$$$$$$$$$$$$$


                       *****************************
                       * Geometry Optimization Run *
                       *****************************

Geometry optimization settings:
Update method            Update   .... BFGS
Choice of coordinates    CoordSys .... Z-matrix Internals
Initial Hessian          InHess   .... Almoef's Model

Convergence Tolerances:
Energy Change            TolE     ....  5.0000e-06 Eh
Max. Gradient            TolMAXG  ....  3.0000e-04 Eh/bohr
RMS Gradient             TolRMSG  ....  1.0000e-04 Eh/bohr
Max. Displacement        TolMAXD  ....  4.0000e-03 bohr
RMS Displacement         TolRMSD  ....  2.0000e-03 bohr
Strict Convergence                ....  False
------------------------------------------------------------------------------
                        ORCA OPTIMIZATION COORDINATE SETUP
------------------------------------------------------------------------------

The optimization will be done in new redundant internal coordinates
Making redundant internal coordinates   ...  (new redundants) done
Evaluating the initial hessian          ...  (Almloef) done
Evaluating the coordinates              ...  done
Calculating the B-matrix                .... done
Calculating the G-matrix                .... done
Diagonalizing the G-matrix              .... done
Small eigenvalue found = 1.512e-02
The first mode is                       ....  109
The number of degrees of freedom        ....   96

    -----------------------------------------------------------------
                    Redundant Internal Coordinates


    -----------------------------------------------------------------
         Definition                    Initial Value    Approx d2E/dq
    -----------------------------------------------------------------
      1. B(C   1,C   0)                  1.5318         0.371047   
      2. B(C   2,C   1)                  1.5318         0.371079   
      3. B(C   3,C   1)                  1.5132         0.397410   
      4. B(C   4,C   3)                  1.3519         0.718543   
      5. B(C   5,C   4)                  1.4361         0.527398   
      6. B(C   6,C   5)                  1.3852         0.635971   
      7. B(C   7,C   6)                  1.3855         0.635136   
      8. B(C   8,C   7)                  1.3873         0.631084   
      9. B(C   9,C   8)                  1.3903         0.624074   
     10. B(C  10,C   9)                  1.3768         0.655772   
     11. B(C  10,C   5)                  1.4094         0.581747   
     12. B(C  10,C   1)                  1.5175         0.391119   
     13. B(S  11,C   4)                  1.7849         0.394859   
     14. B(O  12,S  11)                  1.4377         1.266126   
     15. B(O  13,S  11)                  1.4379         1.265369   
     16. B(C  14,S  11)                  1.8043         0.367751   
     17. B(C  15,C  14)                  1.3709         0.670252   
     18. B(C  16,C  15)                  1.3920         0.620126   
     19. B(C  17,C  16)                  1.3853         0.635774   
     20. B(C  18,C  17)                  1.3868         0.632143   
     21. B(C  19,C  18)                  1.3909         0.622807   
     22. B(C  19,C  14)                  1.4001         0.601946   
     23. B(C  19,C   3)                  1.4465         0.507757   
     24. B(H  20,C   0)                  1.0875         0.363428   
     25. B(H  21,C   0)                  1.0867         0.364513   
     26. B(H  22,C   0)                  1.0872         0.363787   
     27. B(H  23,C   2)                  1.0872         0.363763   
     28. B(H  24,C   2)                  1.0874         0.363558   
     29. B(H  25,C   2)                  1.0867         0.364488   
     30. B(H  26,C   6)                  1.0788         0.375222   
     31. B(H  27,C   7)                  1.0798         0.373884   
     32. B(H  28,C   8)                  1.0800         0.373520   
     33. B(H  29,C   9)                  1.0802         0.373276   
     34. B(H  30,C  15)                  1.0787         0.375375   
     35. B(H  31,C  16)                  1.0792         0.374684   
     36. B(H  32,C  17)                  1.0801         0.373463   
     37. B(H  33,C  18)                  1.0789         0.375090   
     38. A(C   1,C   0,H  20)          110.0744         0.324447   
     39. A(C   1,C   0,H  22)          109.9494         0.324500   
     40. A(C   1,C   0,H  21)          110.7461         0.324606   
     41. A(H  21,C   0,H  22)          108.7551         0.291864   
     42. A(H  20,C   0,H  22)          108.6416         0.291727   
     43. A(H  20,C   0,H  21)          108.6254         0.291818   
     44. A(C   2,C   1,C   3)          111.5381         0.366797   
     45. A(C   2,C   1,C  10)          110.7387         0.365796   
     46. A(C   0,C   1,C   3)          111.4961         0.366792   
     47. A(C   3,C   1,C  10)          100.8410         0.370124   
     48. A(C   0,C   1,C   2)          111.1134         0.362515   
     49. A(C   0,C   1,C  10)          110.7099         0.365791   
     50. A(C   1,C   2,H  24)          110.0898         0.324471   
     51. A(H  24,C   2,H  25)          108.6316         0.291832   
     52. A(C   1,C   2,H  25)          110.7447         0.324607   
     53. A(H  23,C   2,H  24)          108.6397         0.291740   
     54. A(H  23,C   2,H  25)          108.7427         0.291858   
     55. A(C   1,C   2,H  23)          109.9434         0.324501   
     56. A(C   1,C   3,C   4)          110.6716         0.411614   
     57. A(C   4,C   3,C  19)          116.1695         0.430012   
     58. A(C   1,C   3,C  19)          133.1589         0.387231   
     59. A(C   5,C   4,S  11)          138.7611         0.410452   
     60. A(C   3,C   4,C   5)          111.1064         0.432954   
     61. A(C   3,C   4,S  11)          110.1326         0.433760   
     62. A(C   6,C   5,C  10)          121.3442         0.431091   
     63. A(C   4,C   5,C  10)          106.9661         0.416900   
     64. A(C   4,C   5,C   6)          131.6897         0.423581   
     65. A(C   5,C   6,H  26)          120.3540         0.356915   
     66. A(C   5,C   6,C   7)          117.9963         0.437958   
     67. A(C   7,C   6,H  26)          121.6497         0.356836   
     68. A(C   8,C   7,H  27)          119.4650         0.356232   
     69. A(C   6,C   7,H  27)          119.6516         0.356619   
     70. A(C   6,C   7,C   8)          120.8833         0.437349   
     71. A(C   9,C   8,H  28)          119.3808         0.355498   
     72. A(C   7,C   8,H  28)          119.4874         0.356173   
     73. A(C   7,C   8,C   9)          121.1318         0.435967   
     74. A(C  10,C   9,H  29)          121.1817         0.358464   
     75. A(C   8,C   9,H  29)          120.1192         0.355459   
     76. A(C   8,C   9,C  10)          118.6991         0.438993   
     77. A(C   5,C  10,C   9)          119.9452         0.433474   
     78. A(C   1,C  10,C   9)          129.6399         0.403869   
     79. A(C   1,C  10,C   5)          110.4148         0.395448   
     80. A(O  13,S  11,C  14)          110.8317         0.498798   
     81. A(O  12,S  11,C  14)          110.8571         0.498853   
     82. A(C   4,S  11,C  14)           91.6635         0.406061   
     83. A(O  12,S  11,O  13)          117.5472         0.627328   
     84. A(C   4,S  11,O  13)          111.4854         0.505448   
     85. A(C   4,S  11,O  12)          111.5183         0.505504   
     86. A(S  11,C  14,C  15)          127.8250         0.422955   
     87. A(C  15,C  14,C  19)          122.4067         0.437866   
     88. A(S  11,C  14,C  19)          109.7683         0.414928   
     89. A(C  16,C  15,H  30)          121.4468         0.355414   
     90. A(C  14,C  15,H  30)          120.1253         0.360143   
     91. A(C  14,C  15,C  16)          118.4279         0.440223   
     92. A(C  17,C  16,H  31)          120.0099         0.356810   
     93. A(C  15,C  16,H  31)          119.8709         0.355303   
     94. A(C  15,C  16,C  17)          120.1192         0.436050   
     95. A(C  16,C  17,H  32)          119.5306         0.356612   
     96. A(C  16,C  17,C  18)          121.1495         0.437561   
     97. A(C  18,C  17,H  32)          119.3198         0.356265   
     98. A(C  17,C  18,C  19)          119.3039         0.435939   
     99. A(C  19,C  18,H  33)          120.8144         0.355629   
    100. A(C  17,C  18,H  33)          119.8817         0.356528   
    101. A(C  14,C  19,C  18)          118.5928         0.432116   
    102. A(C   3,C  19,C  18)          129.1411         0.419153   
    103. A(C   3,C  19,C  14)          112.2661         0.416617   
    104. D(C   2,C   1,C   0,H  21)     59.9517         0.011002   
    105. D(C  10,C   1,C   0,H  22)     63.2265         0.011002   
    106. D(C   3,C   1,C   0,H  20)     54.9848         0.011002   
    107. D(C  10,C   1,C   0,H  20)    -56.4230         0.011002   
    108. D(C  10,C   1,C   0,H  21)   -176.5580         0.011002   
    109. D(C   2,C   1,C   0,H  22)    -60.2639         0.011002   
    110. D(C   3,C   1,C   0,H  21)    -65.1502         0.011002   
    111. D(C   2,C   1,C   0,H  20)   -179.9133         0.011002   
    112. D(C   3,C   1,C   0,H  22)    174.6343         0.011002   
    113. D(H  23,C   2,C   1,C  10)    -63.1045         0.011004   
    114. D(H  24,C   2,C   1,C   0)   -179.9777         0.011004   
    115. D(H  24,C   2,C   1,C   3)    -54.8994         0.011004   
    116. D(H  25,C   2,C   1,C   0)    -59.8258         0.011004   
    117. D(H  24,C   2,C   1,C  10)     56.5485         0.011004   
    118. D(H  23,C   2,C   1,C   0)     60.3694         0.011004   
    119. D(H  25,C   2,C   1,C   3)     65.2524         0.011004   
    120. D(H  23,C   2,C   1,C   3)   -174.5523         0.011004   
    121. D(H  25,C   2,C   1,C  10)    176.7003         0.011004   
    122. D(C  19,C   3,C   1,C  10)   -179.9245         0.011728   
    123. D(C  19,C   3,C   1,C   2)    -62.3314         0.011728   
    124. D(C  19,C   3,C   1,C   0)     62.5335         0.011728   
    125. D(C   4,C   3,C   1,C  10)      0.0631         0.011728   
    126. D(C   4,C   3,C   1,C   2)    117.6561         0.011728   
    127. D(C   4,C   3,C   1,C   0)   -117.4790         0.011728   
    128. D(S  11,C   4,C   3,C   1)    179.9658         0.036529   
    129. D(S  11,C   4,C   3,C  19)     -0.0443         0.036529   
    130. D(C   5,C   4,C   3,C  19)    179.9399         0.036529   
    131. D(C   5,C   4,C   3,C   1)     -0.0500         0.036529   
    132. D(C   6,C   5,C   4,S  11)      0.0046         0.018981   
    133. D(C   6,C   5,C   4,C   3)   -179.9729         0.018981   
    134. D(C  10,C   5,C   4,C   3)      0.0122         0.018981   
    135. D(C  10,C   5,C   4,S  11)    179.9897         0.018981   
    136. D(H  26,C   6,C   5,C  10)    179.9929         0.028078   
    137. D(H  26,C   6,C   5,C   4)     -0.0239         0.028078   
    138. D(C   7,C   6,C   5,C  10)     -0.0190         0.028078   
    139. D(C   7,C   6,C   5,C   4)    179.9643         0.028078   
    140. D(H  27,C   7,C   6,H  26)     -0.0043         0.027999   
    141. D(H  27,C   7,C   6,C   5)   -179.9923         0.027999   
    142. D(C   8,C   7,C   6,H  26)    179.9942         0.027999   
    143. D(C   8,C   7,C   6,C   5)      0.0062         0.027999   
    144. D(H  28,C   8,C   7,H  27)      0.0049         0.027620   
    145. D(H  28,C   8,C   7,C   6)   -179.9936         0.027620   
    146. D(C   9,C   8,C   7,H  27)   -179.9932         0.027620   
    147. D(C   9,C   8,C   7,C   6)      0.0083         0.027620   
    148. D(H  29,C   9,C   8,H  28)     -0.0031         0.026972   
    149. D(H  29,C   9,C   8,C   7)    179.9950         0.026972   
    150. D(C  10,C   9,C   8,H  28)    179.9920         0.026972   
    151. D(C  10,C   9,C   8,C   7)     -0.0099         0.026972   
    152. D(C   5,C  10,C   9,H  29)    179.9923         0.029980   
    153. D(C   5,C  10,C   9,C   8)     -0.0028         0.029980   
    154. D(C   1,C  10,C   9,H  29)     -0.0074         0.029980   
    155. D(C   9,C  10,C   5,C   6)      0.0176         0.023258   
    156. D(C   9,C  10,C   5,C   4)   -179.9694         0.023258   
    157. D(C   1,C  10,C   5,C   6)   -179.9827         0.023258   
    158. D(C   1,C  10,C   5,C   4)      0.0303         0.023258   
    159. D(C   9,C  10,C   1,C   3)    179.9443         0.011378   
    160. D(C   9,C  10,C   1,C   2)     61.7671         0.011378   
    161. D(C   1,C  10,C   9,C   8)    179.9976         0.029980   
    162. D(C   9,C  10,C   1,C   0)    -61.9389         0.011378   
    163. D(C   5,C  10,C   1,C   0)    118.0615         0.011378   
    164. D(C   5,C  10,C   1,C   3)     -0.0554         0.011378   
    165. D(C   5,C  10,C   1,C   2)   -118.2325         0.011378   
    166. D(O  12,S  11,C   4,C   3)    113.2825         0.004242   
    167. D(C  14,S  11,C   4,C   5)   -179.9190         0.004242   
    168. D(C  14,S  11,C   4,C   3)      0.0586         0.004242   
    169. D(O  13,S  11,C   4,C   5)     66.8914         0.004242   
    170. D(O  13,S  11,C   4,C   3)   -113.1309         0.004242   
    171. D(O  12,S  11,C   4,C   5)    -66.6951         0.004242   
    172. D(C  19,C  14,S  11,O  13)    113.7126         0.003866   
    173. D(C  19,C  14,S  11,O  12)   -113.8722         0.003866   
    174. D(C  19,C  14,S  11,C   4)     -0.0593         0.003866   
    175. D(C  15,C  14,S  11,O  13)    -66.2930         0.003866   
    176. D(C  15,C  14,S  11,O  12)     66.1222         0.003866   
    177. D(C  15,C  14,S  11,C   4)    179.9351         0.003866   
    178. D(H  30,C  15,C  14,C  19)    179.9947         0.031420   
    179. D(H  30,C  15,C  14,S  11)      0.0009         0.031420   
    180. D(C  16,C  15,C  14,C  19)     -0.0010         0.031420   
    181. D(C  16,C  15,C  14,S  11)   -179.9948         0.031420   
    182. D(H  31,C  16,C  15,H  30)     -0.0060         0.026611   
    183. D(H  31,C  16,C  15,C  14)    179.9898         0.026611   
    184. D(C  17,C  16,C  15,H  30)    179.9883         0.026611   
    185. D(C  17,C  16,C  15,C  14)     -0.0159         0.026611   
    186. D(H  32,C  17,C  16,H  31)     -0.0018         0.028059   
    187. D(H  32,C  17,C  16,C  15)   -179.9961         0.028059   
    188. D(C  18,C  17,C  16,H  31)   -179.9899         0.028059   
    189. D(C  18,C  17,C  16,C  15)      0.0158         0.028059   
    190. D(H  33,C  18,C  17,H  32)      0.0110         0.027719   
    191. D(H  33,C  18,C  17,C  16)    179.9991         0.027719   
    192. D(C  19,C  18,C  17,H  32)   -179.9864         0.027719   
    193. D(C  19,C  18,C  17,C  16)      0.0016         0.027719   
    194. D(C  14,C  19,C  18,H  33)    179.9844         0.026856   
    195. D(C  14,C  19,C  18,C  17)     -0.0181         0.026856   
    196. D(C   3,C  19,C  18,H  33)     -0.0547         0.026856   
    197. D(C   3,C  19,C  18,C  17)    179.9428         0.026856   
    198. D(C  18,C  19,C  14,C  15)      0.0182         0.024988   
    199. D(C  18,C  19,C  14,S  11)   -179.9871         0.024988   
    200. D(C   3,C  19,C  14,C  15)   -179.9491         0.024988   
    201. D(C   3,C  19,C  14,S  11)      0.0457         0.024988   
    202. D(C  18,C  19,C   3,C   4)   -179.9642         0.017568   
    203. D(C  18,C  19,C   3,C   1)      0.0228         0.017568   
    204. D(C  14,C  19,C   3,C   4)     -0.0013         0.017568   
    205. D(C  14,C  19,C   3,C   1)    179.9857         0.017568   
    -----------------------------------------------------------------

Number of atoms                         .... 34
Number of degrees of freedom            .... 205

         *************************************************************
         *                GEOMETRY OPTIMIZATION CYCLE   1            *
         *************************************************************
---------------------------------
CARTESIAN COORDINATES (ANGSTROEM)
---------------------------------
  C     -1.005900   -0.616000    2.106100
  C     -0.824300   -0.809400    0.597400
  C     -0.708500   -2.294800    0.241500
  C      0.355900   -0.019400    0.075200
  C     -0.049500    0.907700   -0.821400
  C     -1.472900    0.860600   -1.006300
  C     -2.322700    1.603500   -1.809200
  C     -3.676900    1.313700   -1.766100
  C     -4.164300    0.309300   -0.942600
  C     -3.311600   -0.436300   -0.136400
  C     -1.963000   -0.160700   -0.167700
  S      1.352800    1.831200   -1.426900
  O      1.590600    1.575000   -2.821500
  O      1.302500    3.204000   -1.002100
  C      2.489600    0.881900   -0.396400
  C      3.850700    1.015800   -0.302600
  C      4.541500    0.172200    0.562800
  C      3.855500   -0.775000    1.305200
  C      2.478400   -0.905000    1.205400
  C      1.776300   -0.068500    0.344100
  H     -1.087700    0.443000    2.339500
  H     -0.160700   -1.027300    2.651400
  H     -1.912600   -1.116000    2.437700
  H     -1.611500   -2.819900    0.543100
  H     -0.579900   -2.412800   -0.831800
  H      0.142400   -2.746000    0.744800
  H     -1.930300    2.381700   -2.445000
  H     -4.363400    1.876200   -2.381100
  H     -5.224200    0.102300   -0.926800
  H     -3.708800   -1.214600    0.498700
  H      4.363200    1.760900   -0.890600
  H      5.613400    0.257300    0.654700
  H      4.401000   -1.424600    1.973800
  H      1.964800   -1.649800    1.793200

----------------------------
CARTESIAN COORDINATES (A.U.)
----------------------------
  NO LB      ZA    FRAG     MASS         X           Y           Z
   0 C     6.0000    0    12.011   -1.900876   -1.164071    3.979952
   1 C     6.0000    0    12.011   -1.557701   -1.529544    1.128922
   2 C     6.0000    0    12.011   -1.338871   -4.336544    0.456369
   3 C     6.0000    0    12.011    0.672554   -0.036661    0.142107
   4 C     6.0000    0    12.011   -0.093541    1.715304   -1.552221
   5 C     6.0000    0    12.011   -2.783378    1.626298   -1.901631
   6 C     6.0000    0    12.011   -4.389267    3.030176   -3.418893
   7 C     6.0000    0    12.011   -6.948334    2.482533   -3.337445
   8 C     6.0000    0    12.011   -7.869387    0.584492   -1.781256
   9 C     6.0000    0    12.011   -6.258017   -0.824488   -0.257759
  10 C     6.0000    0    12.011   -3.709532   -0.303679   -0.316907
  11 S    16.0000    0    32.060    2.556422    3.460466   -2.696450
  12 O     8.0000    0    15.999    3.005798    2.976319   -5.331862
  13 O     8.0000    0    15.999    2.461368    6.054683   -1.893695
  14 C     6.0000    0    12.011    4.704662    1.666549   -0.749087
  15 C     6.0000    0    12.011    7.276768    1.919584   -0.571831
  16 C     6.0000    0    12.011    8.582191    0.325411    1.063538
  17 C     6.0000    0    12.011    7.285839   -1.464538    2.466471
  18 C     6.0000    0    12.011    4.683497   -1.710202    2.277876
  19 C     6.0000    0    12.011    3.356721   -0.129446    0.650255
  20 H     1.0000    0     1.008   -2.055455    0.837149    4.421014
  21 H     1.0000    0     1.008   -0.303679   -1.941316    5.010420
  22 H     1.0000    0     1.008   -3.614290   -2.108934    4.606585
  23 H     1.0000    0     1.008   -3.045294   -5.328839    1.026310
  24 H     1.0000    0     1.008   -1.095852   -4.559531   -1.571874
  25 H     1.0000    0     1.008    0.269097   -5.189188    1.407468
  26 H     1.0000    0     1.008   -3.647738    4.500761   -4.620380
  27 H     1.0000    0     1.008   -8.245631    3.545504   -4.499627
  28 H     1.0000    0     1.008   -9.872307    0.193319   -1.751398
  29 H     1.0000    0     1.008   -7.008616   -2.295261    0.942406
  30 H     1.0000    0     1.008    8.245253    3.327619   -1.682990
  31 H     1.0000    0     1.008   10.607789    0.486227    1.237204
  32 H     1.0000    0     1.008    8.316685   -2.692104    3.729941
  33 H     1.0000    0     1.008    3.712934   -3.117670    3.388657

--------------------------------
INTERNAL COORDINATES (ANGSTROEM)
--------------------------------
 C      0   0   0     0.000000000000     0.00000000     0.00000000
 C      1   0   0     1.531847841661     0.00000000     0.00000000
 C      2   1   0     1.531824927986   111.11338197     0.00000000
 C      2   1   3     1.513163864226   111.49614197   234.89816878
 C      4   2   1     1.351944943406   110.67161663   242.52101244
 C      5   4   2     1.436131602605   111.10638886   359.95000634
 C      6   5   4     1.385174667686   131.68969245   180.02713247
 C      7   6   5     1.385532132431   117.99628226   179.96426312
 C      8   7   6     1.387274439323   120.88334640     0.00000000
 C      9   8   7     1.390314744941   121.13184209     0.00000000
 C     10   9   8     1.376828605891   118.69911012     0.00000000
 S      5   4   2     1.784916745958   110.13255255   179.96580417
 O     12   5   4     1.437740046044   111.51833751   113.28254205
 O     12   5   4     1.437902976560   111.48535771   246.86905821
 C     12   5   4     1.804276857913    91.66348908     0.05861186
 C     15  12   5     1.370883240834   127.82496330   179.93511084
 C     16  15  12     1.392042657392   118.42790269   180.00516615
 C     17  16  15     1.385258676205   120.11920968     0.00000000
 C     18  17  16     1.386818102708   121.14954114     0.00000000
 C     19  18  17     1.390868200082   119.30388447     0.00000000
 H      1   2   3     1.087496114936   110.07439204   180.08668078
 H      1   2   3     1.086684323987   110.74613883    59.95166522
 H      1   2   3     1.087227414114   109.94942721   299.73612151
 H      3   2   1     1.087244944803   109.94336656    60.36940369
 H      3   2   1     1.087398202132   110.08979332   180.02232440
 H      3   2   1     1.086702875675   110.74468919   300.17415123
 H      7   6   5     1.078802410083   120.35403485   359.97613752
 H      8   7   6     1.079774745028   119.65160616   180.00769225
 H      9   8   7     1.080040114996   119.48740023   180.00639330
 H     10   9   8     1.080217913201   120.11919821   179.99502858
 H     16  15  12     1.078690993751   120.12528531     0.00000000
 H     17  16  15     1.079192860429   119.87092412   179.98976129
 H     18  17  16     1.080081649691   119.53064234   180.00387777
 H     19  18  17     1.078897974787   119.88167861   179.99907885

---------------------------
INTERNAL COORDINATES (A.U.)
---------------------------
 C      0   0   0     0.000000000000     0.00000000     0.00000000
 C      1   0   0     2.894772899577     0.00000000     0.00000000
 C      2   1   0     2.894729599008   111.11338197     0.00000000
 C      2   1   3     2.859465299134   111.49614197   234.89816878
 C      4   2   1     2.554805691176   110.67161663   242.52101244
 C      5   4   2     2.713895421192   111.10638886   359.95000634
 C      6   5   4     2.617600769573   131.68969245   180.02713247
 C      7   6   5     2.618276280043   117.99628226   179.96426312
 C      8   7   6     2.621568762910   120.88334640     0.00000000
 C      9   8   7     2.627314107891   121.13184209     0.00000000
 C     10   9   8     2.601828998483   118.69911012     0.00000000
 S      5   4   2     3.373003821710   110.13255255   179.96580417
 O     12   5   4     2.716934938795   111.51833751   113.28254205
 O     12   5   4     2.717242832849   111.48535771   246.86905821
 C     12   5   4     3.409589131227    91.66348908     0.05861186
 C     15  12   5     2.590593886759   127.82496330   179.93511084
 C     16  15  12     2.630579389208   118.42790269   180.00516615
 C     17  16  15     2.617759522665   120.11920968     0.00000000
 C     18  17  16     2.620706411683   121.14954114     0.00000000
 C     19  18  17     2.628359986535   119.30388447     0.00000000
 H      1   2   3     2.055069828932   110.07439204   180.08668078
 H      1   2   3     2.053535766362   110.74613883    59.95166522
 H      1   2   3     2.054562057966   109.94942721   299.73612151
 H      3   2   1     2.054595186168   109.94336656    60.36940369
 H      3   2   1     2.054884800548   110.08979332   180.02232440
 H      3   2   1     2.053570823970   110.74468919   300.17415123
 H      7   6   5     2.038641107670   120.35403485   359.97613752
 H      8   7   6     2.040478554427   119.65160616   180.00769225
 H      9   8   7     2.040980030991   119.48740023   180.00639330
 H     10   9   8     2.041316020906   120.11919821   179.99502858
 H     16  15  12     2.038430561317   120.12528531     0.00000000
 H     17  16  15     2.039378951893   119.87092412   179.98976129
 H     18  17  16     2.041058520191   119.53064234   180.00387777
 H     19  18  17     2.038821698790   119.88167861   179.99907885

---------------------
BASIS SET INFORMATION
---------------------
There are 4 groups of distinct atoms

 Group   1 Type C   : 19s6p3d2f contracted to 5s4p3d2f pattern {88111/3111/111/11}
 Group   2 Type S   : 42s17p3d2f contracted to 6s5p3d2f pattern {131313111/77111/111/11}
 Group   3 Type O   : 19s6p3d2f contracted to 5s4p3d2f pattern {88111/3111/111/11}
 Group   4 Type H   : 5s2p1d contracted to 3s2p1d pattern {311/11/1}

Atom   0C    basis set group =>   1
Atom   1C    basis set group =>   1
Atom   2C    basis set group =>   1
Atom   3C    basis set group =>   1
Atom   4C    basis set group =>   1
Atom   5C    basis set group =>   1
Atom   6C    basis set group =>   1
Atom   7C    basis set group =>   1
Atom   8C    basis set group =>   1
Atom   9C    basis set group =>   1
Atom  10C    basis set group =>   1
Atom  11S    basis set group =>   2
Atom  12O    basis set group =>   3
Atom  13O    basis set group =>   3
Atom  14C    basis set group =>   1
Atom  15C    basis set group =>   1
Atom  16C    basis set group =>   1
Atom  17C    basis set group =>   1
Atom  18C    basis set group =>   1
Atom  19C    basis set group =>   1
Atom  20H    basis set group =>   4
Atom  21H    basis set group =>   4
Atom  22H    basis set group =>   4
Atom  23H    basis set group =>   4
Atom  24H    basis set group =>   4
Atom  25H    basis set group =>   4
Atom  26H    basis set group =>   4
Atom  27H    basis set group =>   4
Atom  28H    basis set group =>   4
Atom  29H    basis set group =>   4
Atom  30H    basis set group =>   4
Atom  31H    basis set group =>   4
Atom  32H    basis set group =>   4
Atom  33H    basis set group =>   4
---------------------------------
AUXILIARY/J BASIS SET INFORMATION
---------------------------------
There are 4 groups of distinct atoms

 Group   1 Type C   : 10s7p5d2f1g contracted to 10s7p5d2f1g pattern {1111111111/1111111/11111/11/1}
 Group   2 Type S   : 13s11p9d3f1g contracted to 13s11p9d3f1g pattern {1111111111111/11111111111/111111111/111/1}
 Group   3 Type O   : 10s7p5d2f1g contracted to 10s7p5d2f1g pattern {1111111111/1111111/11111/11/1}
 Group   4 Type H   : 4s3p2d1f contracted to 4s3p2d1f pattern {1111/111/11/1}

Atom   0C    basis set group =>   1
Atom   1C    basis set group =>   1
Atom   2C    basis set group =>   1
Atom   3C    basis set group =>   1
Atom   4C    basis set group =>   1
Atom   5C    basis set group =>   1
Atom   6C    basis set group =>   1
Atom   7C    basis set group =>   1
Atom   8C    basis set group =>   1
Atom   9C    basis set group =>   1
Atom  10C    basis set group =>   1
Atom  11S    basis set group =>   2
Atom  12O    basis set group =>   3
Atom  13O    basis set group =>   3
Atom  14C    basis set group =>   1
Atom  15C    basis set group =>   1
Atom  16C    basis set group =>   1
Atom  17C    basis set group =>   1
Atom  18C    basis set group =>   1
Atom  19C    basis set group =>   1
Atom  20H    basis set group =>   4
Atom  21H    basis set group =>   4
Atom  22H    basis set group =>   4
Atom  23H    basis set group =>   4
Atom  24H    basis set group =>   4
Atom  25H    basis set group =>   4
Atom  26H    basis set group =>   4
Atom  27H    basis set group =>   4
Atom  28H    basis set group =>   4
Atom  29H    basis set group =>   4
Atom  30H    basis set group =>   4
Atom  31H    basis set group =>   4
Atom  32H    basis set group =>   4
Atom  33H    basis set group =>   4
---------------------------------
AUXILIARY/C BASIS SET INFORMATION
---------------------------------
There are 4 groups of distinct atoms

 Group   1 Type C   : 9s7p6d4f2g contracted to 9s7p6d4f2g pattern {111111111/1111111/111111/1111/11}
 Group   2 Type S   : 11s9p8d6f3g contracted to 11s9p8d6f3g pattern {11111111111/111111111/11111111/111111/111}
 Group   3 Type O   : 9s7p6d4f2g contracted to 9s7p6d4f2g pattern {111111111/1111111/111111/1111/11}
 Group   4 Type H   : 4s3p2d1f contracted to 4s3p2d1f pattern {1111/111/11/1}

Atom   0C    basis set group =>   1
Atom   1C    basis set group =>   1
Atom   2C    basis set group =>   1
Atom   3C    basis set group =>   1
Atom   4C    basis set group =>   1
Atom   5C    basis set group =>   1
Atom   6C    basis set group =>   1
Atom   7C    basis set group =>   1
Atom   8C    basis set group =>   1
Atom   9C    basis set group =>   1
Atom  10C    basis set group =>   1
Atom  11S    basis set group =>   2
Atom  12O    basis set group =>   3
Atom  13O    basis set group =>   3
Atom  14C    basis set group =>   1
Atom  15C    basis set group =>   1
Atom  16C    basis set group =>   1
Atom  17C    basis set group =>   1
Atom  18C    basis set group =>   1
Atom  19C    basis set group =>   1
Atom  20H    basis set group =>   4
Atom  21H    basis set group =>   4
Atom  22H    basis set group =>   4
Atom  23H    basis set group =>   4
Atom  24H    basis set group =>   4
Atom  25H    basis set group =>   4
Atom  26H    basis set group =>   4
Atom  27H    basis set group =>   4
Atom  28H    basis set group =>   4
Atom  29H    basis set group =>   4
Atom  30H    basis set group =>   4
Atom  31H    basis set group =>   4
Atom  32H    basis set group =>   4
Atom  33H    basis set group =>   4


           ************************************************************
           *        Program running with 4 parallel MPI-processes     *
           *              working on a common directory               *
           ************************************************************
------------------------------------------------------------------------------
                           ORCA GTO INTEGRAL CALCULATION
                           -- RI-GTO INTEGRALS CHOSEN --
------------------------------------------------------------------------------
------------------------------------------------------------------------------
                   ___                                                        
                  /   \      - P O W E R E D   B Y -                         
                 /     \                                                     
                 |  |  |   _    _      __       _____    __    __             
                 |  |  |  | |  | |    /  \     |  _  \  |  |  /  |          
                  \  \/   | |  | |   /    \    | | | |  |  | /  /          
                 / \  \   | |__| |  /  /\  \   | |_| |  |  |/  /          
                |  |  |   |  __  | /  /__\  \  |    /   |      \           
                |  |  |   | |  | | |   __   |  |    \   |  |\   \          
                \     /   | |  | | |  |  |  |  | |\  \  |  | \   \       
                 \___/    |_|  |_| |__|  |__|  |_| \__\ |__|  \__/        
                                                                              
                      - O R C A' S   B I G   F R I E N D -                    
                                      &                                       
                       - I N T E G R A L  F E E D E R -                       
                                                                              
 v1 FN, 2020, v2 2021                                                         
------------------------------------------------------------------------------


Reading SHARK input file wb97x-d3-train-3.SHARKINP.tmp ... ok
----------------------
SHARK INTEGRAL PACKAGE
----------------------

Number of atoms                             ...     34
Number of basis functions                   ...   1259
Number of shells                            ...    495
Maximum angular momentum                    ...      3
Integral batch strategy                     ... SHARK/LIBINT Hybrid
RI-J (if used) integral strategy            ... SPLIT-RIJ (Revised 2003 algorithm where possible)
Printlevel                                  ...      1
Contraction scheme used                     ... PARTIAL GENERAL contraction
Coulomb Range Separation                    ... NOT USED
Exchange Range Separation                   ... Long Range
   Mu parameter                             ...  0.250000
   Scaling (regular/separated)              ...  0.195728  0.804272
Finite Nucleus Model                        ... NOT USED
Auxiliary Coulomb fitting basis             ... AVAILABLE
   # of basis functions in Aux-J            ...   2042
   # of shells in Aux-J                     ...    652
   Maximum angular momentum in Aux-J        ...      4
Auxiliary J/K fitting basis                 ... NOT available
Auxiliary Correlation fitting basis         ... AVAILABLE
   # of basis functions in Aux-C            ...   2581
   # of shells in Aux-C                     ...    709
   Maximum angular momentum in Aux-C        ...      4
Auxiliary 'external' fitting basis          ... NOT available
Integral threshold                          ...     2.500000e-11
Primitive cut-off                           ...     2.500000e-12
Primitive pair pre-selection threshold      ...     2.500000e-12

Calculating pre-screening integrals         ... done (  0.2 sec) Dimension = 495
Calculating pre-screening integrals (ORCA)  ... done (  0.5 sec) Dimension = 366
Organizing shell pair data                  ... done (  1.5 sec)
Shell pair information
Total number of shell pairs                 ...    122760
Shell pairs after pre-screening             ...     83830
Total number of primitive shell pairs       ...    157740
Primitive shell pairs kept                  ...     97907
          la=0 lb=0:  18885 shell pairs
          la=1 lb=0:  21401 shell pairs
          la=1 lb=1:   5399 shell pairs
          la=2 lb=0:  13967 shell pairs
          la=2 lb=1:   6965 shell pairs
          la=2 lb=2:   2307 shell pairs
          la=3 lb=0:   7762 shell pairs
          la=3 lb=1:   3883 shell pairs
          la=3 lb=2:   2528 shell pairs
          la=3 lb=3:    733 shell pairs

Calculating one electron integrals          ... done (  0.3 sec)
Calculating RI/J V-Matrix + Cholesky decomp.... done (  0.3 sec)
Calculating RI/C V-Matrix + Cholesky decomp.... done (  0.5 sec)
Calculating Nuclear repulsion               ... done (  0.0 sec) ENN=   1686.481702598117 Eh

SHARK setup successfully completed in   4.8 seconds

Maximum memory used throughout the entire GTOINT-calculation: 125.9 MB


           ************************************************************
           *        Program running with 4 parallel MPI-processes     *
           *              working on a common directory               *
           ************************************************************
-------------------------------------------------------------------------------
                                 ORCA SCF
-------------------------------------------------------------------------------

------------
SCF SETTINGS
------------
Hamiltonian:
 Density Functional     Method          .... DFT(GTOs)
 Exchange Functional    Exchange        .... WB97X-D3
 Correlation Functional Correlation     .... WB97X-D3
 Gradients option       PostSCFGGA      .... off
 Hybrid DFT is turned on
   Fraction HF Exchange ScalHFX         ....  0.195728
   Scaling of DF-GGA-X  ScalDFX         ....  0.000000
   Scaling of DF-GGA-C  ScalDFC         ....  1.000000
   Scaling of DF-LDA-C  ScalLDAC        ....  1.000000
   Perturbative correction              ....  0.000000
   Density functional embedding theory  .... OFF
 Long-range corrected/Screened/Range-Separated Hybrid DFT is turned on
   Amount of maximum screened exact exchange              ....  0.804272
   Range separation parameter mu (erf(mu*r12)/r12)        ....  0.250000
 RI-approximation to the Coulomb term is turned on
   Number of AuxJ basis functions       .... 2042
   RIJ-COSX (HFX calculated with COS-X)).... on


General Settings:
 Integral files         IntName         .... wb97x-d3-train-3
 Hartree-Fock type      HFTyp           .... RHF
 Total Charge           Charge          ....    0
 Multiplicity           Mult            ....    1
 Number of Electrons    NEL             ....  148
 Basis Dimension        Dim             .... 1120
 Nuclear Repulsion      ENuc            ....   1686.4817025981 Eh

Convergence Acceleration:
 DIIS                   CNVDIIS         .... on
   Start iteration      DIISMaxIt       ....    12
   Startup error        DIISStart       ....  0.200000
   # of expansion vecs  DIISMaxEq       ....     5
   Bias factor          DIISBfac        ....   1.050
   Max. coefficient     DIISMaxC        ....  10.000
 Trust-Rad. Augm. Hess. CNVTRAH         .... auto
   Auto Start mean grad. ratio tolernc. ....  1.125000
   Auto Start start iteration           ....    20
   Auto Start num. interpolation iter.  ....    10
   Max. Number of Micro iterations      ....    16
   Max. Number of Macro iterations      .... Maxiter - #DIIS iter
   Number of Davidson start vectors     ....     2
   Converg. threshold I  (grad. norm)   ....   1.000e-05
   Converg. threshold II (energy diff.) ....   1.000e-08
   Grad. Scal. Fac. for Micro threshold ....   0.100
   Minimum threshold for Micro iter.    ....   0.010
   NR start threshold (gradient norm)   ....   0.001
   Initial trust radius                 ....   0.400
   Minimum AH scaling param. (alpha)    ....   1.000
   Maximum AH scaling param. (alpha)    .... 1000.000
   Orbital update algorithm             .... Taylor
   White noise on init. David. guess    .... on
   Maximum white noise                  ....   0.010
   Quad. conv. algorithm                .... NR
 SOSCF                  CNVSOSCF        .... on
   Start iteration      SOSCFMaxIt      ....   150
   Startup grad/error   SOSCFStart      ....  0.003300
 Level Shifting         CNVShift        .... on
   Level shift para.    LevelShift      ....    0.2500
   Turn off err/grad.   ShiftErr        ....    0.0010
 Zerner damping         CNVZerner       .... off
 Static damping         CNVDamp         .... on
   Fraction old density DampFac         ....    0.7000
   Max. Damping (<1)    DampMax         ....    0.9800
   Min. Damping (>=0)   DampMin         ....    0.0000
   Turn off err/grad.   DampErr         ....    0.1000
 Fernandez-Rico         CNVRico         .... off

SCF Procedure:
 Maximum # iterations   MaxIter         ....   125
 SCF integral mode      SCFMode         .... Direct
   Integral package                     .... SHARK and LIBINT hybrid scheme
 Reset frequency        DirectResetFreq ....    20
 Integral Threshold     Thresh          ....  2.500e-11 Eh
 Primitive CutOff       TCut            ....  2.500e-12 Eh

Convergence Tolerance:
 Convergence Check Mode ConvCheckMode   .... Total+1el-Energy
 Convergence forced     ConvForced      .... 0
 Energy Change          TolE            ....  1.000e-08 Eh
 1-El. energy change                    ....  1.000e-05 Eh
 Orbital Gradient       TolG            ....  1.000e-05
 Orbital Rotation angle TolX            ....  1.000e-05
 DIIS Error             TolErr          ....  5.000e-07


Diagonalization of the overlap matrix:
Smallest eigenvalue                        ... 2.467e-07
Time for diagonalization                   ...    0.307 sec
Threshold for overlap eigenvalues          ... 1.000e-08
Number of eigenvalues below threshold      ... 0
Time for construction of square roots      ...    0.210 sec
Total time needed                          ...    0.523 sec

Time for model grid setup =    0.661 sec

------------------------------
INITIAL GUESS: MODEL POTENTIAL
------------------------------
Loading Hartree-Fock densities                     ... done
Calculating cut-offs                               ... done
Initializing the effective Hamiltonian             ... done
Setting up the integral package (SHARK)            ... done
Starting the Coulomb interaction                   ... done (   3.2 sec)
Reading the grid                                   ... done
Mapping shells                                     ... done
Starting the XC term evaluation                    ... done (   2.8 sec)
  promolecular density results
     # of electrons  =    147.994226357
     EX              =   -132.502786333
     EC              =     -5.097308491
     EX+EC           =   -137.600094824
Transforming the Hamiltonian                       ... done (   0.1 sec)
Diagonalizing the Hamiltonian                      ... done (   0.3 sec)
Back transforming the eigenvectors                 ... done (   0.1 sec)
Now organizing SCF variables                       ... done
                      ------------------
                      INITIAL GUESS DONE (   7.3 sec)
                      ------------------
-------------------
DFT GRID GENERATION
-------------------

General Integration Accuracy     IntAcc      ... 4.388
Radial Grid Type                 RadialGrid  ... OptM3 with GC (2021)
Angular Grid (max. ang.)         AngularGrid ... 4 (Lebedev-302)
Angular grid pruning method      GridPruning ... 4 (adaptive)
Weight generation scheme         WeightScheme... Becke
Basis function cutoff            BFCut       ... 1.0000e-11
Integration weight cutoff        WCut        ... 1.0000e-14
Angular grids for H and He will be reduced by one unit
Partially contracted basis set               ... off
Rotationally invariant grid construction     ... off

Total number of grid points                  ...   169543
Total number of batches                      ...     2666
Average number of points per batch           ...       63
Average number of grid points per atom       ...     4987
Time for grid setup =    3.095 sec

--------------------
COSX GRID GENERATION
--------------------

GRIDX 1
-------
General Integration Accuracy     IntAcc      ... 3.816
Radial Grid Type                 RadialGrid  ... OptM3 with GC (2021)
Angular Grid (max. ang.)         AngularGrid ... 1 (Lebedev-50)
Angular grid pruning method      GridPruning ... 4 (adaptive)
Weight generation scheme         WeightScheme... Becke
Basis function cutoff            BFCut       ... 1.0000e-11
Integration weight cutoff        WCut        ... 1.0000e-14
Angular grids for H and He will be reduced by one unit
Partially contracted basis set               ... on
Rotationally invariant grid construction     ... off

Total number of grid points                  ...    21449
Total number of batches                      ...      353
Average number of points per batch           ...       60
Average number of grid points per atom       ...      631
UseSFitting                                  ... on

GRIDX 2
-------
General Integration Accuracy     IntAcc      ... 4.020
Radial Grid Type                 RadialGrid  ... OptM3 with GC (2021)
Angular Grid (max. ang.)         AngularGrid ... 2 (Lebedev-110)
Angular grid pruning method      GridPruning ... 4 (adaptive)
Weight generation scheme         WeightScheme... Becke
Basis function cutoff            BFCut       ... 1.0000e-11
Integration weight cutoff        WCut        ... 1.0000e-14
Angular grids for H and He will be reduced by one unit
Partially contracted basis set               ... on
Rotationally invariant grid construction     ... off

Total number of grid points                  ...    50314
Total number of batches                      ...      802
Average number of points per batch           ...       62
Average number of grid points per atom       ...     1480
UseSFitting                                  ... on

GRIDX 3
-------
General Integration Accuracy     IntAcc      ... 4.338
Radial Grid Type                 RadialGrid  ... OptM3 with GC (2021)
Angular Grid (max. ang.)         AngularGrid ... 3 (Lebedev-194)
Angular grid pruning method      GridPruning ... 4 (adaptive)
Weight generation scheme         WeightScheme... Becke
Basis function cutoff            BFCut       ... 1.0000e-11
Integration weight cutoff        WCut        ... 1.0000e-14
Angular grids for H and He will be reduced by one unit
Partially contracted basis set               ... on
Rotationally invariant grid construction     ... off

Total number of grid points                  ...   109208
Total number of batches                      ...     1724
Average number of points per batch           ...       63
Average number of grid points per atom       ...     3212
UseSFitting                                  ... on

Time for X-Grid setup             =    7.609 sec


--------------------
CPCM SOLVATION MODEL
--------------------
CPCM parameters:
  Epsilon                                         ...       8.9300
  Refrac                                          ...       1.4242
  Rsolv                                           ...       1.3000
  Surface type                                    ... GAUSSIAN VDW
  Epsilon function type                           ...         CPCM
Solvent:                                     ... DICHLOROMETHANE
SMD-CDS solvent descriptors:
  Soln                                       ...    1.4242
  Soln25                                     ...    1.4212
  Sola                                       ...    0.1000
  Solb                                       ...    0.0500
  Solg                                       ...   39.1500
  Solc                                       ...    0.0000
  Solh                                       ...    0.6670
Radii:
 Radius for C  used is    3.4960 Bohr (=   1.8500 Ang.)
 Radius for S  used is    4.7054 Bohr (=   2.4900 Ang.)
 Radius for O  used is    3.9949 Bohr (=   2.1140 Ang.)
 Radius for H  used is    2.2677 Bohr (=   1.2000 Ang.)
Calculating surface                               ...        done! (  0.0s)
GEPOL surface points                              ...         1948
GEPOL Volume                                      ...    2006.9602
GEPOL Surface-area                                ...    1078.5538
Calculating surface distance matrix               ...        done! (  0.0s)
Performing Cholesky decomposition & store         ...        done! (  0.2s)
Overall time for CPCM initialization              ...                 0.3s
 re-compute Schwartz prescreening matrix in partically contracted basis (1) ...done (   0.300 sec)
--------------
SCF ITERATIONS
--------------
ITER       Energy         Delta-E        Max-DP      RMS-DP      [F,P]     Damp
               ***  Starting incremental Fock matrix formation  ***
  0  -1204.3609001984   0.000000000000 0.44617073  0.00287395  0.2982863 0.7000
  1  -1204.5874783478  -0.226578149332 0.25137380  0.00189966  0.1354991 0.7000
                               ***Turning on DIIS***
  2  -1204.6942956648  -0.106817317022 0.74643281  0.00409440  0.0547635 0.0000
  3  -1204.8772570538  -0.182961388987 0.31471658  0.00182843  0.0624579 0.0000
  4  -1204.9013225768  -0.024065523038 0.08126891  0.00050422  0.0173599 0.0000
  5  -1204.9026721267  -0.001349549868 0.06654096  0.00025521  0.0051226 0.0000
                      *** Initiating the SOSCF procedure ***
                           *** Shutting down DIIS ***
                      *** Re-Reading the Fockian *** 
                      *** Removing any level shift *** 
ITER      Energy       Delta-E        Grad      Rot      Max-DP    RMS-DP
  6  -1204.90280063  -0.0001285040  0.001072  0.001072  0.072557  0.000169
               *** Restarting incremental Fock matrix formation ***
  7  -1204.90281457  -0.0000139357  0.000607  0.001639  0.124033  0.001378
  8  -1204.90282890  -0.0000143309  0.000290  0.001276  0.036761  0.000403
  9  -1204.90283075  -0.0000018487  0.000069  0.000158  0.195828  0.000415
 10  -1204.90283154  -0.0000007929  0.000016  0.000065  0.043407  0.000241
 11  -1204.90283158  -0.0000000372  0.000014  0.000021  0.017510  0.000093
 12  -1204.90283163  -0.0000000522  0.000006  0.000026  0.156434  0.000298
 13  -1204.90283162   0.0000000128  0.000003  0.000028  0.084884  0.000317
 14  -1204.90283157   0.0000000441  0.000003  0.000008  0.025459  0.000158
 15  -1204.90283162  -0.0000000504  0.000003  0.000024  0.132405  0.000498
 16  -1204.90283163  -0.0000000112  0.000005  0.000014  0.043859  0.000244
 17  -1204.90283162   0.0000000150  0.000003  0.000012  0.066107  0.000306
                  ***Gradient check signals convergence***
              ***Rediagonalizing the Fockian in SOSCF/NRSCF***

               *****************************************************
               *                     SUCCESS                       *
               *           SCF CONVERGED AFTER  18 CYCLES          *
               *****************************************************

Old exchange energy                            =    -42.277421180 Eh
New exchange energy                            =    -42.277406609 Eh
Exchange energy change after final integration =      0.000014571 Eh
Total energy after final integration           =  -1204.902817026 Eh
Final COS-X integration done in                =   366.733 sec

SMD CDS free energy correction energy :                -6.11390     Kcal/mol
Total Energy after SMD CDS correction =             -1204.912560143 Eh

----------------
TOTAL SCF ENERGY
----------------

Total Energy       :        -1204.91256014 Eh          -32787.33764 eV

Components:
Nuclear Repulsion  :         1686.48170260 Eh           45891.50021 eV
Electronic Energy  :        -2891.39426274 Eh          -78678.83784 eV
One Electron Energy:        -4994.73360598 Eh         -135913.61113 eV
Two Electron Energy:         2103.33934324 Eh           57234.77329 eV
Max COSX asymmetry :            0.00007313 Eh               0.00199 eV
CPCM Dielectric    :           -0.02306283 Eh              -0.62757 eV
SMD CDS (Gcds)     :           -0.00974312 Eh              -0.26512 eV

Virial components:
Potential Energy   :        -2404.29924923 Eh          -65424.30868 eV
Kinetic Energy     :         1199.38668908 Eh           32636.97104 eV
Virial Ratio       :            2.00460725


DFT components:
N(Alpha)           :       74.000092051063 electrons
N(Beta)            :       74.000092051063 electrons
N(Total)           :      148.000184102125 electrons
E(XC)              :      -98.228033453816 Eh       
DFET-embed. en.    :        0.000000000000 Eh       
CPCM Solvation Model Properties:
Surface-charge          :           -0.04976245
Charge-correction       :            0.00021556 Eh               0.00587 eV
Free-energy (cav+disp)  :           -0.00974312 Eh              -0.26512 eV

---------------
SCF CONVERGENCE
---------------

  Last Energy change         ...    2.0599e-08  Tolerance :   1.0000e-08
  Last MAX-Density change    ...    8.4377e-15  Tolerance :   1.0000e-07
  Last RMS-Density change    ...    2.7039e-17  Tolerance :   5.0000e-09
  Last Orbital Gradient      ...    2.0474e-06  Tolerance :   1.0000e-05
  Last Orbital Rotation      ...    2.3422e-06  Tolerance :   1.0000e-05

             **** THE GBW FILE WAS UPDATED (wb97x-d3-train-3.gbw) ****
             **** DENSITY wb97x-d3-train-3.scfp WAS UPDATED ****
             **** ENERGY FILE WAS UPDATED (wb97x-d3-train-3.en.tmp) ****
             **** THE GBW FILE WAS UPDATED (wb97x-d3-train-3.gbw) ****
             **** DENSITY wb97x-d3-train-3.scfp WAS UPDATED ****
----------------
ORBITAL ENERGIES
----------------

  NO   OCC          E(Eh)            E(eV) 
   0   2.0000     -89.189521     -2426.9702 
   1   2.0000     -19.236042      -523.4393 
   2   2.0000     -19.236027      -523.4389 
   3   2.0000     -10.322105      -280.8787 
   4   2.0000     -10.318311      -280.7755 
   5   2.0000     -10.317065      -280.7416 
   6   2.0000     -10.315990      -280.7124 
   7   2.0000     -10.312978      -280.6304 
   8   2.0000     -10.305380      -280.4236 
   9   2.0000     -10.302677      -280.3501 
  10   2.0000     -10.298381      -280.2332 
  11   2.0000     -10.296335      -280.1775 
  12   2.0000     -10.295670      -280.1594 
  13   2.0000     -10.292594      -280.0757 
  14   2.0000     -10.285938      -279.8946 
  15   2.0000     -10.284281      -279.8495 
  16   2.0000     -10.282895      -279.8118 
  17   2.0000     -10.281945      -279.7859 
  18   2.0000     -10.269651      -279.4514 
  19   2.0000     -10.269627      -279.4508 
  20   2.0000      -8.236994      -224.1400 
  21   2.0000      -6.190893      -168.4628 
  22   2.0000      -6.190371      -168.4486 
  23   2.0000      -6.190221      -168.4445 
  24   2.0000      -1.243759       -33.8444 
  25   2.0000      -1.132416       -30.8146 
  26   2.0000      -1.039904       -28.2972 
  27   2.0000      -1.005722       -27.3671 
  28   2.0000      -0.963174       -26.2093 
  29   2.0000      -0.932024       -25.3617 
  30   2.0000      -0.898665       -24.4539 
  31   2.0000      -0.892259       -24.2796 
  32   2.0000      -0.861454       -23.4414 
  33   2.0000      -0.839010       -22.8306 
  34   2.0000      -0.810724       -22.0609 
  35   2.0000      -0.807357       -21.9693 
  36   2.0000      -0.757755       -20.6196 
  37   2.0000      -0.748867       -20.3777 
  38   2.0000      -0.714591       -19.4450 
  39   2.0000      -0.698294       -19.0015 
  40   2.0000      -0.683481       -18.5985 
  41   2.0000      -0.669867       -18.2280 
  42   2.0000      -0.628086       -17.0911 
  43   2.0000      -0.616716       -16.7817 
  44   2.0000      -0.601184       -16.3591 
  45   2.0000      -0.586251       -15.9527 
  46   2.0000      -0.575780       -15.6678 
  47   2.0000      -0.565797       -15.3961 
  48   2.0000      -0.560510       -15.2522 
  49   2.0000      -0.556322       -15.1383 
  50   2.0000      -0.548650       -14.9295 
  51   2.0000      -0.544760       -14.8237 
  52   2.0000      -0.534916       -14.5558 
  53   2.0000      -0.534032       -14.5317 
  54   2.0000      -0.510684       -13.8964 
  55   2.0000      -0.510343       -13.8872 
  56   2.0000      -0.489565       -13.3218 
  57   2.0000      -0.483306       -13.1514 
  58   2.0000      -0.479721       -13.0539 
  59   2.0000      -0.477843       -13.0028 
  60   2.0000      -0.470973       -12.8158 
[...]

   Memory handling for direct AO based CIS:
   Memory per vector needed      ...    71 MB
   Memory needed                 ...  2153 MB
   Memory available              ...  4000 MB
   Number of vectors per batch   ...    55
   Number of batches             ...     1
   Time for densities:            0.820
   Time for RI-J (Direct):       34.496
   Time for K (COSX):           205.882
   Time for XC-Integration:      94.538
   Time for LR-CPCM terms:       44.099
   Time for Sigma-Completion:     0.754
   Size of expansion space: 30
   Lowest Energy          :     0.164169343825
   Maximum Energy change  :     0.259907495681 (vector 9)
   Maximum residual norm  :     0.020488396422

                       ****Iteration    1****
   Time for densities:            0.342
   Time for RI-J (Direct):       23.628
   Time for K (COSX):            90.573
   Time for XC-Integration:      31.689
   Time for LR-CPCM terms:       20.835
   Time for Sigma-Completion:     0.220
   Size of expansion space: 40
   Lowest Energy          :     0.147693738236
   Maximum Energy change  :     0.020883885217 (vector 4)
   Maximum residual norm  :     0.001539676215

                       ****Iteration    2****
   Time for densities:            0.273
   Time for RI-J (Direct):       22.535
   Time for K (COSX):            90.074
   Time for XC-Integration:      33.051
   Time for LR-CPCM terms:       20.610
   Time for Sigma-Completion:     0.217
   Size of expansion space: 50
   Lowest Energy          :     0.145884378788
   Maximum Energy change  :     0.003604236613 (vector 9)
   Maximum residual norm  :     0.000334299642

                       ****Iteration    3****
   Time for densities:            0.313
   Time for RI-J (Direct):       25.801
   Time for K (COSX):            91.075
   Time for XC-Integration:      34.382
   Time for LR-CPCM terms:       21.018
   Time for Sigma-Completion:     0.218
   Size of expansion space: 60
   Lowest Energy          :     0.145817720334
   Maximum Energy change  :     0.000681922569 (vector 2)
   Maximum residual norm  :     0.000106646610

                       ****Iteration    4****
   Time for densities:            0.254
   Time for RI-J (Direct):       23.648
   Time for K (COSX):            92.411
   Time for XC-Integration:      33.608
   Time for LR-CPCM terms:       21.858
   Time for Sigma-Completion:     0.253
   Size of expansion space: 70
   Lowest Energy          :     0.145811880996
   Maximum Energy change  :     0.000212023866 (vector 9)
   Maximum residual norm  :     0.000036944438
   Rebuilding the expansion space

                       ****Iteration    5****
   Time for densities:            0.594
   Time for RI-J (Direct):       26.920
   Time for K (COSX):           145.553
   Time for XC-Integration:      62.503
   Time for LR-CPCM terms:       31.309
   Time for Sigma-Completion:     0.447
   Size of expansion space: 20
   Lowest Energy          :     0.145811234648
   Maximum Energy change  :     0.000060753847 (vector 9)
   Maximum residual norm  :     0.000012162166

                       ****Iteration    6****
   Time for densities:            0.266
   Time for RI-J (Direct):       22.934
   Time for K (COSX):            92.570
   Time for XC-Integration:      32.673
   Time for LR-CPCM terms:       19.813
   Time for Sigma-Completion:     0.232
   Size of expansion space: 30
   Lowest Energy          :     0.145811180181
   Maximum Energy change  :     0.000026842256 (vector 9)
   Maximum residual norm  :     0.000006231290

                       ****Iteration    7****
   Time for densities:            0.286
   Time for RI-J (Direct):       22.914
   Time for K (COSX):            90.189
   Time for XC-Integration:      33.009
   Time for LR-CPCM terms:       21.390
   Time for Sigma-Completion:     0.319
   Size of expansion space: 40
   Lowest Energy          :     0.145811174357
   Maximum Energy change  :     0.000021327830 (vector 9)
   Maximum residual norm  :     0.000007251326

                       ****Iteration    8****
   Time for densities:            0.266
   Time for RI-J (Direct):       23.733
   Time for K (COSX):            94.353
   Time for XC-Integration:      34.635
   Time for LR-CPCM terms:       21.835
   Time for Sigma-Completion:     0.226
   Size of expansion space: 50
   Lowest Energy          :     0.145811173939
   Maximum Energy change  :     0.000023775872 (vector 9)
   Maximum residual norm  :     0.000006219666

                       ****Iteration    9****
   Time for densities:            0.306
   Time for RI-J (Direct):       22.748
   Time for K (COSX):            85.366
   Time for XC-Integration:      33.398
   Time for LR-CPCM terms:       19.601
   Time for Sigma-Completion:     0.211
   Size of expansion space: 60
   Lowest Energy          :     0.145811173901
   Maximum Energy change  :     0.000018281093 (vector 9)
   Maximum residual norm  :     0.000004578713

                       ****Iteration   10****
   Time for densities:            0.273
   Time for RI-J (Direct):       22.856
   Time for K (COSX):            83.954
   Time for XC-Integration:      35.630
   Time for LR-CPCM terms:       21.167
   Time for Sigma-Completion:     0.219
   Size of expansion space: 70
   Lowest Energy          :     0.145811173897
   Maximum Energy change  :     0.000009591800 (vector 9)
   Maximum residual norm  :     0.000002146792
   Rebuilding the expansion space

                       ****Iteration   11****
   Time for densities:            0.534
   Time for RI-J (Direct):       28.229
   Time for K (COSX):           149.299
   Time for XC-Integration:      63.609
   Time for LR-CPCM terms:       33.133
   Time for Sigma-Completion:     0.465
   Size of expansion space: 20
   Lowest Energy          :     0.145811176693
   Maximum Energy change  :     0.000002366822 (vector 9)
   Maximum residual norm  :     0.000000592509

      *** CONVERGENCE OF RESIDUAL NORM REACHED ***

Storing the converged CI vectors               ... wb97x-d3-train-3_job2.cis1

                 *** DAVIDSON DONE ***

Total time for solving the CIS problem:  2445.545sec

------------------------------------
TD-DFT/TDA EXCITED STATES (SINGLETS)
------------------------------------

the weight of the individual excitations are printed if larger than 1.0e-02

STATE  1:  E=   0.145811 au      3.968 eV    32001.9 cm**-1 <S**2> =   0.000000
    70a ->  74a  :     0.015975 (c= -0.12639409)
    73a ->  74a  :     0.918764 (c=  0.95852169)

STATE  2:  E=   0.180422 au      4.910 eV    39598.0 cm**-1 <S**2> =   0.000000
    70a ->  74a  :     0.033731 (c= -0.18365872)
    70a ->  75a  :     0.085076 (c=  0.29167827)
    71a ->  74a  :     0.306785 (c=  0.55388153)
    71a ->  80a  :     0.010923 (c= -0.10451296)
    71a ->  83a  :     0.023970 (c= -0.15482156)
    72a ->  74a  :     0.029151 (c= -0.17073653)
    73a ->  75a  :     0.445877 (c= -0.66773991)

STATE  3:  E=   0.185854 au      5.057 eV    40790.3 cm**-1 <S**2> =   0.000000
    70a ->  79a  :     0.054431 (c=  0.23330545)
    71a ->  74a  :     0.041453 (c=  0.20360108)
    72a ->  74a  :     0.393070 (c=  0.62695258)
    72a ->  75a  :     0.039117 (c=  0.19778045)
    72a ->  80a  :     0.026480 (c=  0.16272764)
    72a ->  83a  :     0.069931 (c=  0.26444513)
    73a ->  79a  :     0.307930 (c=  0.55491434)

STATE  4:  E=   0.204833 au      5.574 eV    44955.6 cm**-1 <S**2> =   0.000000
    70a ->  74a  :     0.117288 (c= -0.34247304)
    71a ->  74a  :     0.386897 (c= -0.62201066)
    71a ->  75a  :     0.036641 (c=  0.19141738)
    72a ->  79a  :     0.019283 (c=  0.13886277)
    73a ->  74a  :     0.010595 (c= -0.10293432)
    73a ->  75a  :     0.206408 (c= -0.45432150)
    73a ->  79a  :     0.059827 (c=  0.24459577)
    73a ->  80a  :     0.028514 (c= -0.16886208)
    73a ->  83a  :     0.057957 (c= -0.24074157)

STATE  5:  E=   0.206450 au      5.618 eV    45310.4 cm**-1 <S**2> =   0.000000
    69a ->  74a  :     0.915902 (c=  0.95702747)
    69a ->  75a  :     0.023710 (c= -0.15398154)
    69a ->  95a  :     0.011387 (c=  0.10670867)

STATE  6:  E=   0.217387 au      5.915 eV    47710.9 cm**-1 <S**2> =   0.000000
    70a ->  74a  :     0.103237 (c= -0.32130587)
    70a ->  79a  :     0.015295 (c=  0.12367300)
    71a ->  74a  :     0.019127 (c=  0.13830087)
    72a ->  74a  :     0.372413 (c= -0.61025658)
    72a ->  95a  :     0.010325 (c= -0.10161020)
    73a ->  75a  :     0.100787 (c=  0.31746897)
    73a ->  79a  :     0.278787 (c=  0.52800252)
    73a ->  83a  :     0.011059 (c=  0.10516214)

STATE  7:  E=   0.225047 au      6.124 eV    49392.1 cm**-1 <S**2> =   0.000000
    68a ->  74a  :     0.020965 (c=  0.14479428)
    70a ->  74a  :     0.525040 (c=  0.72459626)
    71a ->  74a  :     0.012320 (c= -0.11099430)
    71a ->  75a  :     0.047823 (c= -0.21868442)
    72a ->  74a  :     0.096956 (c= -0.31137811)
    73a ->  75a  :     0.091423 (c= -0.30236300)
    73a ->  79a  :     0.103694 (c=  0.32201501)

STATE  8:  E=   0.228814 au      6.226 eV    50218.8 cm**-1 <S**2> =   0.000000
    70a ->  77a  :     0.019643 (c=  0.14015236)
    73a ->  76a  :     0.539747 (c=  0.73467500)
    73a ->  77a  :     0.015115 (c=  0.12294432)
    73a ->  78a  :     0.078219 (c=  0.27967622)
    73a ->  81a  :     0.026819 (c=  0.16376445)
    73a ->  82a  :     0.034266 (c=  0.18511097)
    73a ->  84a  :     0.071756 (c=  0.26787280)
    73a ->  90a  :     0.043486 (c=  0.20853387)
    73a ->  91a  :     0.014213 (c=  0.11922007)
    73a ->  92a  :     0.019467 (c=  0.13952447)
    73a -> 100a  :     0.019773 (c=  0.14061510)
    73a -> 101a  :     0.018527 (c=  0.13611368)

STATE  9:  E=   0.230843 au      6.282 eV    50664.2 cm**-1 <S**2> =   0.000000
    65a ->  74a  :     0.012673 (c=  0.11257454)
    68a ->  74a  :     0.028455 (c= -0.16868553)
    70a ->  75a  :     0.038672 (c=  0.19665220)
    71a ->  74a  :     0.108902 (c= -0.33000232)
    72a ->  79a  :     0.184172 (c= -0.42915261)
    73a ->  75a  :     0.016587 (c= -0.12879042)
    73a ->  79a  :     0.015639 (c= -0.12505596)
    73a ->  80a  :     0.194273 (c=  0.44076440)
    73a ->  83a  :     0.275644 (c=  0.52501773)

STATE 10:  E=   0.239242 au      6.510 eV    52507.4 cm**-1 <S**2> =   0.000000
    68a ->  74a  :     0.383557 (c=  0.61931974)
    70a ->  74a  :     0.069507 (c= -0.26364096)
    71a ->  75a  :     0.313092 (c= -0.55954580)
    71a ->  83a  :     0.014270 (c=  0.11945658)
    72a ->  79a  :     0.030260 (c=  0.17395464)
    73a ->  79a  :     0.011362 (c= -0.10659314)
    73a ->  80a  :     0.027649 (c=  0.16628029)
    73a ->  83a  :     0.027324 (c=  0.16529982)


-----------------------------
TD-DFT/TDA-EXCITATION SPECTRA
-----------------------------

Center of mass = (  0.5582,  0.9176, -0.7445)
Calculating the Dipole integrals                  ... done
Transforming integrals                            ... done
Calculating the Linear Momentum integrals         ... done
Transforming integrals                            ... done
Calculating angular momentum integrals            ... done
Transforming integrals                            ... done

-----------------------------------------------------------------------------
         ABSORPTION SPECTRUM VIA TRANSITION ELECTRIC DIPOLE MOMENTS
-----------------------------------------------------------------------------
State   Energy    Wavelength  fosc         T2        TX        TY        TZ  
        (cm-1)      (nm)                 (au**2)    (au)      (au)      (au) 
-----------------------------------------------------------------------------
   1   32001.9    312.5   0.452530240   4.65530   2.06978  -0.24720   0.55695
   2   39598.0    252.5   0.048455439   0.40285  -0.62359   0.02423  -0.11574
   3   40790.3    245.2   0.004381278   0.03536   0.10366   0.12452  -0.09545
   4   44955.6    222.4   0.460239959   3.37036  -1.57645   0.57169  -0.74721
   5   45310.4    220.7   0.001001535   0.00728   0.02450   0.04567   0.06775
   6   47710.9    209.6   0.517234181   3.56899   1.15602  -1.00774   1.10321
   7   49392.1    202.5   0.032640325   0.21756  -0.38558  -0.22380   0.13711
   8   50218.8    199.1   0.006321280   0.04144  -0.08449   0.05468  -0.17695
   9   50664.2    197.4   0.307065713   1.99529  -0.91388   0.73180  -0.79031
  10   52507.4    190.4   0.072177636   0.45254   0.62455  -0.12527   0.21631

-----------------------------------------------------------------------------
         ABSORPTION SPECTRUM VIA TRANSITION VELOCITY DIPOLE MOMENTS
-----------------------------------------------------------------------------
State   Energy    Wavelength   fosc        P2         PX        PY        PZ  
        (cm-1)      (nm)                 (au**2)     (au)      (au)      (au) 
-----------------------------------------------------------------------------
   1   32001.9    312.5   0.077124439   0.01687  -0.12565   0.01285  -0.03027
   2   39598.0    252.5   0.021320077   0.00577   0.07539   0.00377   0.00852
   3   40790.3    245.2   0.001308399   0.00036  -0.01703  -0.00784   0.00366
   4   44955.6    222.4   0.213498713   0.06560   0.24312  -0.03597   0.07207
   5   45310.4    220.7   0.000489978   0.00015  -0.00434  -0.00709  -0.00909
   6   47710.9    209.6   0.178992939   0.05837  -0.20792   0.07337  -0.09876
   7   49392.1    202.5   0.009674838   0.00327   0.05368   0.01831  -0.00702
   8   50218.8    199.1   0.001738325   0.00060   0.01471  -0.00131   0.01946
   9   50664.2    197.4   0.097186858   0.03365   0.14918  -0.06828   0.08207
  10   52507.4    190.4   0.018092320   0.00649  -0.05626   0.03798  -0.04342

-------------------------------------------------------------------
                             CD SPECTRUM
-------------------------------------------------------------------
State  Energy     Wavelength     R         MX        MY        MZ   
       (cm-1)       (nm)     (1e40*cgs)   (au)      (au)      (au)  
-------------------------------------------------------------------
   1   32001.9    312.5     -8.40986  -0.04153   0.17159   0.19848
   2   39598.0    252.5     -0.05283  -0.01885   0.11722   0.12707
   3   40790.3    245.2      0.08192   0.00336  -0.02107  -0.02566
   4   44955.6    222.4     10.29010  -0.10565   0.59399   0.64814
   5   45310.4    220.7     -1.35817  -0.05166  -0.08958   0.03654
   6   47710.9    209.6      4.18196  -0.04553   0.26629   0.29900
   7   49392.1    202.5     -0.40501  -0.03692   0.22056   0.24991
   8   50218.8    199.1    -11.52381   0.03950  -0.07411   0.09637
   9   50664.2    197.4     14.00216  -0.03442   0.17299   0.16241
  10   52507.4    190.4     -1.11465  -0.01536   0.05829   0.06717

-------------------------------------------------------------------
         CD SPECTRUM VIA TRANSITION VELOCITY DIPOLE MOMENTS        
-------------------------------------------------------------------
State  Energy     Wavelength     R         MX        MY        MZ   
       (cm-1)       (nm)     (1e40*cgs)   (au)      (au)      (au)  
-------------------------------------------------------------------
   1   32001.9    312.5      4.57795  -0.04153   0.17159   0.19848
   2   39598.0    252.5      0.27217  -0.01885   0.11722   0.12707
   3   40790.3    245.2      0.03613   0.00336  -0.02107  -0.02566
   4   44955.6    222.4     -0.78449  -0.10565   0.59399   0.64814
   5   45310.4    220.7      1.20284  -0.05166  -0.08958   0.03654
   6   47710.9    209.6     -1.13883  -0.04553   0.26629   0.29900
   7   49392.1    202.5      0.63315  -0.03692   0.22056   0.24991
   8   50218.8    199.1      5.26041   0.03950  -0.07411   0.09637
   9   50664.2    197.4     -7.39073  -0.03442   0.17299   0.16241
  10   52507.4    190.4      0.31768  -0.01536   0.05829   0.06717

Total run time:     2455.247 sec

           *** ORCA-CIS/TD-DFT FINISHED WITHOUT ERROR ***

Maximum memory used throughout the entire CIS-calculation: 1924.3 MB

-----------------------
CIS/TD-DFT TOTAL ENERGY
-----------------------

    E(SCF)  =  -1204.914866488 Eh
    DE(CIS) =      0.145811177 Eh (Root  1)
    ----------------------------- ---------
    E(tot)  =  -1204.769055311 Eh



-------------------------------------------------------------------------------
                          DFT DISPERSION CORRECTION                            
                                                                               
                              DFTD3 V3.1  Rev 1                                
                              USING zero damping                               
-------------------------------------------------------------------------------
The omegaB97X-D3 functional is recognized. Fit by Chai et al.
Active option DFTDOPT                   ...         3   

molecular C6(AA) [au] = 15502.851307 


            DFT-D V3
 parameters
 s6 scaling factor         :     1.0000 
 rs6 scaling factor        :     1.2810 
 s8 scaling factor         :     1.0000 
 rs8 scaling factor        :     1.0940 
 Damping factor alpha6     :    14.0000 
 Damping factor alpha8     :    16.0000 
 ad hoc parameters k1-k3   :    16.0000     1.3333    -4.0000 

 Edisp/kcal,au: -11.276417708913  -0.017970113555 
 E6   /kcal   :  -5.119126867 
 E8   /kcal   :  -6.157290842 
 % E8         :  54.603252569 

-------------------------   ----------------
Dispersion correction           -0.017970114
-------------------------   ----------------


-------------------------   --------------------
FINAL SINGLE POINT ENERGY     -1204.787025424409
-------------------------   --------------------


                            ***************************************
                            *     ORCA property calculations      *
                            ***************************************

                                    ---------------------
                                    Active property flags
                                    ---------------------
   (+) Dipole Moment


------------------------------------------------------------------------------
                       ORCA ELECTRIC PROPERTIES CALCULATION
------------------------------------------------------------------------------

Dipole Moment Calculation                       ... on
Quadrupole Moment Calculation                   ... off
Polarizability Calculation                      ... off
GBWName                                         ... wb97x-d3-train-3_job2.gbw
Electron density                                ... wb97x-d3-train-3_job2.scfp
The origin for moment calculation is the CENTER OF MASS  = ( 0.558214,  0.917589 -0.744487)

-------------
DIPOLE MOMENT
-------------
                                X             Y             Z
Electronic contribution:      7.58665      10.92107      -8.69232
Nuclear contribution   :     -7.71754     -13.39782      10.93532
                        -----------------------------------------
Total Dipole Moment    :     -0.13090      -2.47675       2.24300
                        -----------------------------------------
Magnitude (a.u.)       :      3.34402
Magnitude (Debye)      :      8.49982



--------------------
Rotational spectrum 
--------------------
 
Rotational constants in cm-1:     0.019561     0.009156     0.006754 
Rotational constants in MHz :   586.433474   274.488123   202.491603 

 Dipole components along the rotational axes: 
x,y,z [a.u.] :     0.090755    -3.342737     0.018099 
x,y,z [Debye]:     0.230681    -8.496563     0.046003 

 

Timings for individual modules:

Sum of individual times         ...     3735.214 sec (=  62.254 min)
GTO integral calculation        ...        6.793 sec (=   0.113 min)   0.2 %
SCF iterations                  ...     1272.491 sec (=  21.208 min)  34.1 %
CIS module                      ...     2455.930 sec (=  40.932 min)  65.8 %



                             ****ORCA TERMINATED NORMALLY****
TOTAL RUN TIME: 0 days 6 hours 14 minutes 7 seconds 660 msec
