
                                 *****************
                                 * O   R   C   A *
                                 *****************

                                            #,                                       
                                            ###                                      
                                            ####                                     
                                            #####                                    
                                            ######                                   
                                           ########,                                 
                                     ,,################,,,,,                         
                               ,,#################################,,                 
                          ,,##########################################,,             
                       ,#########################################, ''#####,          
                    ,#############################################,,   '####,        
                  ,##################################################,,,,####,       
                ,###########''''           ''''###############################       
              ,#####''   ,,,,##########,,,,          '''####'''          '####       
            ,##' ,,,,###########################,,,                        '##       
           ' ,,###''''                  '''############,,,                           
         ,,##''                                '''############,,,,        ,,,,,,###''
      ,#''                                            '''#######################'''  
     '                                                          ''''####''''         
             ,#######,   #######,   ,#######,      ##                                
            ,#'     '#,  ##    ##  ,#'     '#,    #''#        ######   ,####,        
            ##       ##  ##   ,#'  ##            #'  '#       #        #'  '#        
            ##       ##  #######   ##           ,######,      #####,   #    #        
            '#,     ,#'  ##    ##  '#,     ,#' ,#      #,         ##   #,  ,#        
             '#######'   ##     ##  '#######'  #'      '#     #####' # '####'        



                  #######################################################
                  #                        -***-                        #
                  #          Department of theory and spectroscopy      #
                  #    Directorship and core code : Frank Neese         #
                  #        Max Planck Institute fuer Kohlenforschung    #
                  #                Kaiser Wilhelm Platz 1               #
                  #                 D-45470 Muelheim/Ruhr               #
                  #                      Germany                        #
                  #                                                     #
                  #                  All rights reserved                #
                  #                        -***-                        #
                  #######################################################


                         Program Version 5.0.2 -  RELEASE  -


 With contributions from (in alphabetic order):
   Daniel Aravena         : Magnetic Suceptibility
   Michael Atanasov       : Ab Initio Ligand Field Theory (pilot matlab implementation)
   Alexander A. Auer      : GIAO ZORA, VPT2 properties, NMR spectrum
   Ute Becker             : Parallelization
   Giovanni Bistoni       : ED, misc. LED, open-shell LED, HFLD
   Martin Brehm           : Molecular dynamics
   Dmytro Bykov           : SCF Hessian
   Vijay G. Chilkuri      : MRCI spin determinant printing, contributions to CSF-ICE
   Dipayan Datta          : RHF DLPNO-CCSD density
   Achintya Kumar Dutta   : EOM-CC, STEOM-CC
   Dmitry Ganyushin       : Spin-Orbit,Spin-Spin,Magnetic field MRCI
   Miquel Garcia          : C-PCM and meta-GGA Hessian, CC/C-PCM, Gaussian charge scheme
   Yang Guo               : DLPNO-NEVPT2, F12-NEVPT2, CIM, IAO-localization
   Andreas Hansen         : Spin unrestricted coupled pair/coupled cluster methods
   Benjamin Helmich-Paris : MC-RPA, TRAH-SCF, COSX integrals
   Lee Huntington         : MR-EOM, pCC
   Robert Izsak           : Overlap fitted RIJCOSX, COSX-SCS-MP3, EOM
   Marcus Kettner         : VPT2
   Christian Kollmar      : KDIIS, OOCD, Brueckner-CCSD(T), CCSD density, CASPT2, CASPT2-K
   Simone Kossmann        : Meta GGA functionals, TD-DFT gradient, OOMP2, MP2 Hessian
   Martin Krupicka        : Initial AUTO-CI
   Lucas Lang             : DCDCAS
   Marvin Lechner         : AUTO-CI (C++ implementation), FIC-MRCC
   Dagmar Lenk            : GEPOL surface, SMD
   Dimitrios Liakos       : Extrapolation schemes; Compound Job, initial MDCI parallelization
   Dimitrios Manganas     : Further ROCIS development; embedding schemes
   Dimitrios Pantazis     : SARC Basis sets
   Anastasios Papadopoulos: AUTO-CI, single reference methods and gradients
   Taras Petrenko         : DFT Hessian,TD-DFT gradient, ASA, ECA, R-Raman, ABS, FL, XAS/XES, NRVS
   Peter Pinski           : DLPNO-MP2, DLPNO-MP2 Gradient
   Christoph Reimann      : Effective Core Potentials
   Marius Retegan         : Local ZFS, SOC
   Christoph Riplinger    : Optimizer, TS searches, QM/MM, DLPNO-CCSD(T), (RO)-DLPNO pert. Triples
   Tobias Risthaus        : Range-separated hybrids, TD-DFT gradient, RPA, STAB
   Michael Roemelt        : Original ROCIS implementation
   Masaaki Saitow         : Open-shell DLPNO-CCSD energy and density
   Barbara Sandhoefer     : DKH picture change effects
   Avijit Sen             : IP-ROCIS
   Kantharuban Sivalingam : CASSCF convergence, NEVPT2, FIC-MRCI
   Bernardo de Souza      : ESD, SOC TD-DFT
   Georgi Stoychev        : AutoAux, RI-MP2 NMR, DLPNO-MP2 response
   Willem Van den Heuvel  : Paramagnetic NMR
   Boris Wezisla          : Elementary symmetry handling
   Frank Wennmohs         : Technical directorship


 We gratefully acknowledge several colleagues who have allowed us to
 interface, adapt or use parts of their codes:
   Stefan Grimme, W. Hujo, H. Kruse, P. Pracht,  : VdW corrections, initial TS optimization,
                  C. Bannwarth, S. Ehlert          DFT functionals, gCP, sTDA/sTD-DF
   Ed Valeev, F. Pavosevic, A. Kumar             : LibInt (2-el integral package), F12 methods
   Garnet Chan, S. Sharma, J. Yang, R. Olivares  : DMRG
   Ulf Ekstrom                                   : XCFun DFT Library
   Mihaly Kallay                                 : mrcc  (arbitrary order and MRCC methods)
   Jiri Pittner, Ondrej Demel                    : Mk-CCSD
   Frank Weinhold                                : gennbo (NPA and NBO analysis)
   Christopher J. Cramer and Donald G. Truhlar   : smd solvation model
   Lars Goerigk                                  : TD-DFT with DH, B97 family of functionals
   V. Asgeirsson, H. Jonsson                     : NEB implementation
   FAccTs GmbH                                   : IRC, NEB, NEB-TS, DLPNO-Multilevel, CI-OPT
                                                   MM, QMMM, 2- and 3-layer-ONIOM, Crystal-QMMM,
                                                   LR-CPCM, SF, NACMEs, symmetry and pop. for TD-DFT,
                                                   nearIR, NL-DFT gradient (VV10), updates on ESD,
                                                   ML-optimized integration grids
   S Lehtola, MJT Oliveira, MAL Marques          : LibXC Library
   Liviu Ungur et al                             : ANISO software


 Your calculation uses the libint2 library for the computation of 2-el integrals
 For citations please refer to: http://libint.valeyev.net

 Your ORCA version has been built with support for libXC version: 5.1.0
 For citations please refer to: https://tddft.org/programs/libxc/

 This ORCA versions uses:
   CBLAS   interface :  Fast vector & matrix operations
   LAPACKE interface :  Fast linear algebra routines
   SCALAPACK package :  Parallel linear algebra routines
   Shared memory     :  Shared parallel matrices
   BLAS/LAPACK       :  OpenBLAS 0.3.15  USE64BITINT DYNAMIC_ARCH NO_AFFINITY Sandybridge SINGLE_THREADED
        Core in use  :  Sandybridge
   Copyright (c) 2011-2014, The OpenBLAS Project


Your calculation utilizes the SMD solvation module
Please cite in your paper:
A.V. Marenich, C.J. Cramer, D.G. Truhlar J. Phys. Chem. B, 113, (2009), 6378 

================================================================================

----- Orbital basis set information -----
Your calculation utilizes the basis: aug-cc-pVTZ 
    H, B-Ne : Obtained from the ccRepo (grant-hill.group.shef.ac.uk/ccrepo) Feb. 2017
              R. A. Kendall, T. H. Dunning, Jr., R. J. Harrison, J. Chem. Phys. 96, 6796 (1992)
         He : Obtained from the ccRepo (grant-hill.group.shef.ac.uk/ccrepo) Feb. 2017
              D. E. Woon, T. H. Dunning, Jr., J. Chem. Phys. 100, 2975 (1994)
  Li-Be, Na : Obtained from the ccRepo (grant-hill.group.shef.ac.uk/ccrepo) Feb. 2017
              B. P. Prascher, D. E. Woon, K. A. Peterson, T. H. Dunning, Jr., A. K. Wilson, Theor. Chem. Acc. 128, 69 (2011)
         Mg : Obtained from the Peterson Research Group Website (tyr0.chem.wsu.edu/~kipeters) Feb. 2017
              B. P. Prascher, D. E. Woon, K. A. Peterson, T. H. Dunning, Jr., A. K. Wilson, Theor. Chem. Acc. 128, 69 (2011)
      Al-Ar : Obtained from the ccRepo (grant-hill.group.shef.ac.uk/ccrepo) Feb. 2017
              D. E. Woon, T. H. Dunning, Jr., J. Chem. Phys. 98, 1358 (1993)
      Sc-Zn : Obtained from the ccRepo (grant-hill.group.shef.ac.uk/ccrepo) Feb. 2017
              N. B. Balabanov, K. A. Peterson, J. Chem. Phys. 123, 064107 (2005)
              N. B. Balabanov, K. A. Peterson, J. Chem. Phys. 125, 074110 (2006)
      Ga-Kr : Obtained from the ccRepo (grant-hill.group.shef.ac.uk/ccrepo) Feb. 2017
              A. K. Wilson, D. E. Woon, K. A. Peterson, T. H. Dunning, Jr., J. Chem. Phys. 110, 7667 (1999)
     Ag, Au : Obtained from the Peterson Research Group Website (tyr0.chem.wsu.edu/~kipeters) Feb. 2017
              K. A. Peterson, C. Puzzarini, Theor. Chem. Acc. 114, 283 (2005)

The basis set includes element-specific modifications.

Your calculation utilizes the basis: cc-pVTZ 
       H, B-Ne : Obtained from the ccRepo (grant-hill.group.shef.ac.uk/ccrepo) Feb. 2017
                 T. H. Dunning, Jr., J. Chem. Phys. 90, 1007 (1989)
            He : Obtained from the ccRepo (grant-hill.group.shef.ac.uk/ccrepo) Feb. 2017
                 D. E. Woon, T. H. Dunning, Jr., J. Chem. Phys. 100, 2975 (1994)
  Li-Be, Na-Mg : Obtained from the ccRepo (grant-hill.group.shef.ac.uk/ccrepo) Feb. 2017
                 B. P. Prascher, D. E. Woon, K. A. Peterson, T. H. Dunning, Jr., A. K. Wilson, Theor. Chem. Acc. 128, 69 (2011)
         Al-Ar : Obtained from the ccRepo (grant-hill.group.shef.ac.uk/ccrepo) Feb. 2017
                 D. E. Woon, T. H. Dunning, Jr., J. Chem. Phys. 98, 1358 (1993)
            Ca : Obtained from the Peterson Research Group Website (tyr0.chem.wsu.edu/~kipeters) Feb. 2017
                 J. Koput, K. A. Peterson, J. Phys. Chem. 106, 9595 (2002)
         Sc-Zn : Obtained from the ccRepo (grant-hill.group.shef.ac.uk/ccrepo) Feb. 2017
                 N. B. Balabanov, K. A. Peterson, J. Chem. Phys. 123, 064107 (2005)
                 N. B. Balabanov, K. A. Peterson, J. Chem. Phys. 125, 074110 (2006)
         Ga-Kr : Obtained from the ccRepo (grant-hill.group.shef.ac.uk/ccrepo) Feb. 2017
                 A. K. Wilson, D. E. Woon, K. A. Peterson, T. H. Dunning, Jr., J. Chem. Phys. 110, 7667 (1999)
             Y : Obtained from the ccRepo (grant-hill.group.shef.ac.uk/ccrepo) Feb. 2017
                 K. A. Peterson, D. Figgen, M. Dolg, H. Stoll, J. Chem. Phys. 126, 124101 (2007)
        Ag, Au : Obtained from the Peterson Research Group Website (tyr0.chem.wsu.edu/~kipeters) Feb. 2017
                 K. A. Peterson, C. Puzzarini, Theor. Chem. Acc. 114, 283 (2005)

----- AuxJ basis set information -----
Your calculation utilizes the auxiliary basis: aug-cc-pVTZ/JK 
  H, B-F, Al-Cl, Ga-Br : Obtained from the TURBOMOLE 7.0 basis set library

The basis set includes element-specific modifications.

Your calculation utilizes the auxiliary basis: cc-pVTZ/JK 
  H, B-F, Al-Cl, Ga-Br : Obtained from the TURBOMOLE 7.0 basis set library

----- AuxC basis set information -----
Your calculation utilizes the auxiliary basis: aug-cc-pVTZ/C 
  H-He, B-F, Al-Ar, Ga-Kr : Obtained from the EMSL Basis Set Exchange (bse.pnl.gov) Feb. 2017
                            F. Weigend, A. Kohn, C. Hattig, J. Chem. Phys. 116, 3175 (2002)
                   Be, Mg : Obtained from the TURBOMOLE 7.0 basis set library
                            C. Haettig, Phys. Chem. Chem. Phys. 7, 59 (2005)
                       Ne : Obtained from the EMSL Basis Set Exchange (bse.pnl.gov) Feb. 2017
                            C. Haettig, Phys. Chem. Chem. Phys. 7, 59 (2005)
                            F. Weigend, A. Kohn, C. Hattig, J. Chem. Phys. 116, 3175 (2002)
                    Sc-Zn : Obtained from the EMSL Basis Set Exchange (bse.pnl.gov) Feb. 2017
                            J. G. Hill, J. A. Platts, J. Chem. Phys. 128, 044104 (2008)

The basis set includes element-specific modifications.

Your calculation utilizes the auxiliary basis: cc-pVTZ/C 
  Obtained from the EMSL Basis Set Exchange (bse.pnl.gov) Feb. 2017
  H-He, B-F, Al-Ar, Ga-Kr : F. Weigend, A. Kohn, C. Hattig, J. Chem. Phys. 116, 3175 (2002)
             Li-Be, Na-Mg : C. Haettig, Phys. Chem. Chem. Phys. 7, 59 (2005)
                       Ne : C. Haettig, Phys. Chem. Chem. Phys. 7, 59 (2005)
                            F. Weigend, A. Kohn, C. Hattig, J. Chem. Phys. 116, 3175 (2002)
                    Sc-Zn : J. G. Hill, J. A. Platts, J. Chem. Phys. 128, 044104 (2008)

================================================================================
                                        WARNINGS
                       Please study these warnings very carefully!
================================================================================


WARNING: Geometry Optimization
  ===> : Switching off AutoStart
         For restart on a previous wavefunction, please use MOREAD

INFO   : the flag for use of the SHARK integral package has been found!



***************************************
The coordinates will be read from file: 
***************************************


Your calculation utilizes the SMD solvation module
Please cite in your paper:
A.V. Marenich, C.J. Cramer, D.G. Truhlar J. Phys. Chem. B, 113, (2009), 6378 

================================================================================

----- Orbital basis set information -----
Your calculation utilizes the basis: aug-cc-pVTZ 
    H, B-Ne : Obtained from the ccRepo (grant-hill.group.shef.ac.uk/ccrepo) Feb. 2017
              R. A. Kendall, T. H. Dunning, Jr., R. J. Harrison, J. Chem. Phys. 96, 6796 (1992)
         He : Obtained from the ccRepo (grant-hill.group.shef.ac.uk/ccrepo) Feb. 2017
              D. E. Woon, T. H. Dunning, Jr., J. Chem. Phys. 100, 2975 (1994)
  Li-Be, Na : Obtained from the ccRepo (grant-hill.group.shef.ac.uk/ccrepo) Feb. 2017
              B. P. Prascher, D. E. Woon, K. A. Peterson, T. H. Dunning, Jr., A. K. Wilson, Theor. Chem. Acc. 128, 69 (2011)
         Mg : Obtained from the Peterson Research Group Website (tyr0.chem.wsu.edu/~kipeters) Feb. 2017
              B. P. Prascher, D. E. Woon, K. A. Peterson, T. H. Dunning, Jr., A. K. Wilson, Theor. Chem. Acc. 128, 69 (2011)
      Al-Ar : Obtained from the ccRepo (grant-hill.group.shef.ac.uk/ccrepo) Feb. 2017
              D. E. Woon, T. H. Dunning, Jr., J. Chem. Phys. 98, 1358 (1993)
      Sc-Zn : Obtained from the ccRepo (grant-hill.group.shef.ac.uk/ccrepo) Feb. 2017
              N. B. Balabanov, K. A. Peterson, J. Chem. Phys. 123, 064107 (2005)
              N. B. Balabanov, K. A. Peterson, J. Chem. Phys. 125, 074110 (2006)
      Ga-Kr : Obtained from the ccRepo (grant-hill.group.shef.ac.uk/ccrepo) Feb. 2017
              A. K. Wilson, D. E. Woon, K. A. Peterson, T. H. Dunning, Jr., J. Chem. Phys. 110, 7667 (1999)
     Ag, Au : Obtained from the Peterson Research Group Website (tyr0.chem.wsu.edu/~kipeters) Feb. 2017
              K. A. Peterson, C. Puzzarini, Theor. Chem. Acc. 114, 283 (2005)

The basis set includes element-specific modifications.

Your calculation utilizes the basis: cc-pVTZ 
       H, B-Ne : Obtained from the ccRepo (grant-hill.group.shef.ac.uk/ccrepo) Feb. 2017
                 T. H. Dunning, Jr., J. Chem. Phys. 90, 1007 (1989)
            He : Obtained from the ccRepo (grant-hill.group.shef.ac.uk/ccrepo) Feb. 2017
                 D. E. Woon, T. H. Dunning, Jr., J. Chem. Phys. 100, 2975 (1994)
  Li-Be, Na-Mg : Obtained from the ccRepo (grant-hill.group.shef.ac.uk/ccrepo) Feb. 2017
                 B. P. Prascher, D. E. Woon, K. A. Peterson, T. H. Dunning, Jr., A. K. Wilson, Theor. Chem. Acc. 128, 69 (2011)
         Al-Ar : Obtained from the ccRepo (grant-hill.group.shef.ac.uk/ccrepo) Feb. 2017
                 D. E. Woon, T. H. Dunning, Jr., J. Chem. Phys. 98, 1358 (1993)
            Ca : Obtained from the Peterson Research Group Website (tyr0.chem.wsu.edu/~kipeters) Feb. 2017
                 J. Koput, K. A. Peterson, J. Phys. Chem. 106, 9595 (2002)
         Sc-Zn : Obtained from the ccRepo (grant-hill.group.shef.ac.uk/ccrepo) Feb. 2017
                 N. B. Balabanov, K. A. Peterson, J. Chem. Phys. 123, 064107 (2005)
                 N. B. Balabanov, K. A. Peterson, J. Chem. Phys. 125, 074110 (2006)
         Ga-Kr : Obtained from the ccRepo (grant-hill.group.shef.ac.uk/ccrepo) Feb. 2017
                 A. K. Wilson, D. E. Woon, K. A. Peterson, T. H. Dunning, Jr., J. Chem. Phys. 110, 7667 (1999)
             Y : Obtained from the ccRepo (grant-hill.group.shef.ac.uk/ccrepo) Feb. 2017
                 K. A. Peterson, D. Figgen, M. Dolg, H. Stoll, J. Chem. Phys. 126, 124101 (2007)
        Ag, Au : Obtained from the Peterson Research Group Website (tyr0.chem.wsu.edu/~kipeters) Feb. 2017
                 K. A. Peterson, C. Puzzarini, Theor. Chem. Acc. 114, 283 (2005)

----- AuxJ basis set information -----
Your calculation utilizes the auxiliary basis: aug-cc-pVTZ/JK 
  H, B-F, Al-Cl, Ga-Br : Obtained from the TURBOMOLE 7.0 basis set library

The basis set includes element-specific modifications.

Your calculation utilizes the auxiliary basis: cc-pVTZ/JK 
  H, B-F, Al-Cl, Ga-Br : Obtained from the TURBOMOLE 7.0 basis set library

----- AuxC basis set information -----
Your calculation utilizes the auxiliary basis: aug-cc-pVTZ/C 
  H-He, B-F, Al-Ar, Ga-Kr : Obtained from the EMSL Basis Set Exchange (bse.pnl.gov) Feb. 2017
                            F. Weigend, A. Kohn, C. Hattig, J. Chem. Phys. 116, 3175 (2002)
                   Be, Mg : Obtained from the TURBOMOLE 7.0 basis set library
                            C. Haettig, Phys. Chem. Chem. Phys. 7, 59 (2005)
                       Ne : Obtained from the EMSL Basis Set Exchange (bse.pnl.gov) Feb. 2017
                            C. Haettig, Phys. Chem. Chem. Phys. 7, 59 (2005)
                            F. Weigend, A. Kohn, C. Hattig, J. Chem. Phys. 116, 3175 (2002)
                    Sc-Zn : Obtained from the EMSL Basis Set Exchange (bse.pnl.gov) Feb. 2017
                            J. G. Hill, J. A. Platts, J. Chem. Phys. 128, 044104 (2008)

The basis set includes element-specific modifications.

Your calculation utilizes the auxiliary basis: cc-pVTZ/C 
  Obtained from the EMSL Basis Set Exchange (bse.pnl.gov) Feb. 2017
  H-He, B-F, Al-Ar, Ga-Kr : F. Weigend, A. Kohn, C. Hattig, J. Chem. Phys. 116, 3175 (2002)
             Li-Be, Na-Mg : C. Haettig, Phys. Chem. Chem. Phys. 7, 59 (2005)
                       Ne : C. Haettig, Phys. Chem. Chem. Phys. 7, 59 (2005)
                            F. Weigend, A. Kohn, C. Hattig, J. Chem. Phys. 116, 3175 (2002)
                    Sc-Zn : J. G. Hill, J. A. Platts, J. Chem. Phys. 128, 044104 (2008)

================================================================================
                                        WARNINGS
                       Please study these warnings very carefully!
================================================================================

INFO   : Checking CIS options ...

INFO   : the flag for use of the SHARK integral package has been found!

================================================================================
                                       INPUT FILE
================================================================================
NAME = x3lyp-train-3.inp
|  1> ! x3lyp aug-cc-PVTZ RIJCOSX Opt
|  2> %maxcore 4000
|  3> %basis
|  4>  AuxJ "aug-cc-PVTZ/JK"
|  5>  AuxC "aug-cc-PVTZ/C"
|  6>  newGTO H "cc-PVTZ" end
|  7>  newAuxJGTO H "cc-PVTZ/JK" end
|  8>  newAuxCGTO H "cc-PVTZ/C" end
|  9> end
| 10> %cpcm
| 11>  SMD true
| 12>  SMDsolvent "dichloromethane"
| 13> end
| 14> %pal nprocs 4 end
| 15> * xyz 0 1
| 16> C         -1.00590       -0.61600        2.10610
| 17> C         -0.82430       -0.80940        0.59740
| 18> C         -0.70850       -2.29480        0.24150
| 19> C          0.35590       -0.01940        0.07520
| 20> C         -0.04950        0.90770       -0.82140
| 21> C         -1.47290        0.86060       -1.00630
| 22> C         -2.32270        1.60350       -1.80920
| 23> C         -3.67690        1.31370       -1.76610
| 24> C         -4.16430        0.30930       -0.94260
| 25> C         -3.31160       -0.43630       -0.13640
| 26> C         -1.96300       -0.16070       -0.16770
| 27> S          1.35280        1.83120       -1.42690
| 28> O          1.59060        1.57500       -2.82150
| 29> O          1.30250        3.20400       -1.00210
| 30> C          2.48960        0.88190       -0.39640
| 31> C          3.85070        1.01580       -0.30260
| 32> C          4.54150        0.17220        0.56280
| 33> C          3.85550       -0.77500        1.30520
| 34> C          2.47840       -0.90500        1.20540
| 35> C          1.77630       -0.06850        0.34410
| 36> H         -1.08770        0.44300        2.33950
| 37> H         -0.16070       -1.02730        2.65140
| 38> H         -1.91260       -1.11600        2.43770
| 39> H         -1.61150       -2.81990        0.54310
| 40> H         -0.57990       -2.41280       -0.83180
| 41> H          0.14240       -2.74600        0.74480
| 42> H         -1.93030        2.38170       -2.44500
| 43> H         -4.36340        1.87620       -2.38110
| 44> H         -5.22420        0.10230       -0.92680
| 45> H         -3.70880       -1.21460        0.49870
| 46> H          4.36320        1.76090       -0.89060
| 47> H          5.61340        0.25730        0.65470
| 48> H          4.40100       -1.42460        1.97380
| 49> H          1.96480       -1.64980        1.79320
| 50> *
| 51> 
| 52> 
| 53> $new_job
| 54> ! x3lyp aug-cc-PVTZ RIJCOSX SP
| 55> %maxcore 4000
| 56> %basis
| 57>  AuxJ "aug-cc-PVTZ/JK"
| 58>  AuxC "aug-cc-PVTZ/C"
| 59>  newGTO H "cc-PVTZ" end
| 60>  newAuxJGTO H "cc-PVTZ/JK" end
| 61>  newAuxCGTO H "cc-PVTZ/C" end
| 62> end
| 63> %cpcm
| 64>  SMD true
| 65>  SMDsolvent "dichloromethane"
| 66> end
| 67> %pal nprocs 4 end
| 68> %tddft
| 69>  nroots 10
| 70>  maxdim 7
| 71> end
| 72> * xyzfile 0 1
| 73> 
| 74>                          ****END OF INPUT****
================================================================================


                 $$$$$$$$$$$$$$$$$$$$$$$$$$$$$$$$$$$$$$$$$$$$$$ 
                 $ THERE ARE  2 JOBS TO BE PROCESSED THIS RUN $
                 $$$$$$$$$$$$$$$$$$$$$$$$$$$$$$$$$$$$$$$$$$$$$$ 




                 $$$$$$$$$$$$$$$$  JOB NUMBER  1 $$$$$$$$$$$$$$


                       *****************************
                       * Geometry Optimization Run *
                       *****************************

Geometry optimization settings:
Update method            Update   .... BFGS
Choice of coordinates    CoordSys .... Z-matrix Internals
Initial Hessian          InHess   .... Almoef's Model

Convergence Tolerances:
Energy Change            TolE     ....  5.0000e-06 Eh
Max. Gradient            TolMAXG  ....  3.0000e-04 Eh/bohr
RMS Gradient             TolRMSG  ....  1.0000e-04 Eh/bohr
Max. Displacement        TolMAXD  ....  4.0000e-03 bohr
RMS Displacement         TolRMSD  ....  2.0000e-03 bohr
Strict Convergence                ....  False
------------------------------------------------------------------------------
                        ORCA OPTIMIZATION COORDINATE SETUP
------------------------------------------------------------------------------

The optimization will be done in new redundant internal coordinates
Making redundant internal coordinates   ...  (new redundants) done
Evaluating the initial hessian          ...  (Almloef) done
Evaluating the coordinates              ...  done
Calculating the B-matrix                .... done
Calculating the G-matrix                .... done
Diagonalizing the G-matrix              .... done
Small eigenvalue found = 1.512e-02
The first mode is                       ....  109
The number of degrees of freedom        ....   96

    -----------------------------------------------------------------
                    Redundant Internal Coordinates


    -----------------------------------------------------------------
         Definition                    Initial Value    Approx d2E/dq
    -----------------------------------------------------------------
      1. B(C   1,C   0)                  1.5318         0.371047   
      2. B(C   2,C   1)                  1.5318         0.371079   
      3. B(C   3,C   1)                  1.5132         0.397410   
      4. B(C   4,C   3)                  1.3519         0.718543   
      5. B(C   5,C   4)                  1.4361         0.527398   
      6. B(C   6,C   5)                  1.3852         0.635971   
      7. B(C   7,C   6)                  1.3855         0.635136   
      8. B(C   8,C   7)                  1.3873         0.631084   
      9. B(C   9,C   8)                  1.3903         0.624074   
     10. B(C  10,C   9)                  1.3768         0.655772   
     11. B(C  10,C   5)                  1.4094         0.581747   
     12. B(C  10,C   1)                  1.5175         0.391119   
     13. B(S  11,C   4)                  1.7849         0.394859   
     14. B(O  12,S  11)                  1.4377         1.266126   
     15. B(O  13,S  11)                  1.4379         1.265369   
     16. B(C  14,S  11)                  1.8043         0.367751   
     17. B(C  15,C  14)                  1.3709         0.670252   
     18. B(C  16,C  15)                  1.3920         0.620126   
     19. B(C  17,C  16)                  1.3853         0.635774   
     20. B(C  18,C  17)                  1.3868         0.632143   
     21. B(C  19,C  18)                  1.3909         0.622807   
     22. B(C  19,C  14)                  1.4001         0.601946   
     23. B(C  19,C   3)                  1.4465         0.507757   
     24. B(H  20,C   0)                  1.0875         0.363428   
     25. B(H  21,C   0)                  1.0867         0.364513   
     26. B(H  22,C   0)                  1.0872         0.363787   
     27. B(H  23,C   2)                  1.0872         0.363763   
     28. B(H  24,C   2)                  1.0874         0.363558   
     29. B(H  25,C   2)                  1.0867         0.364488   
     30. B(H  26,C   6)                  1.0788         0.375222   
     31. B(H  27,C   7)                  1.0798         0.373884   
     32. B(H  28,C   8)                  1.0800         0.373520   
     33. B(H  29,C   9)                  1.0802         0.373276   
     34. B(H  30,C  15)                  1.0787         0.375375   
     35. B(H  31,C  16)                  1.0792         0.374684   
     36. B(H  32,C  17)                  1.0801         0.373463   
     37. B(H  33,C  18)                  1.0789         0.375090   
     38. A(C   1,C   0,H  20)          110.0744         0.324447   
     39. A(C   1,C   0,H  22)          109.9494         0.324500   
     40. A(C   1,C   0,H  21)          110.7461         0.324606   
     41. A(H  21,C   0,H  22)          108.7551         0.291864   
     42. A(H  20,C   0,H  22)          108.6416         0.291727   
     43. A(H  20,C   0,H  21)          108.6254         0.291818   
     44. A(C   2,C   1,C   3)          111.5381         0.366797   
     45. A(C   2,C   1,C  10)          110.7387         0.365796   
     46. A(C   0,C   1,C   3)          111.4961         0.366792   
     47. A(C   3,C   1,C  10)          100.8410         0.370124   
     48. A(C   0,C   1,C   2)          111.1134         0.362515   
     49. A(C   0,C   1,C  10)          110.7099         0.365791   
     50. A(C   1,C   2,H  24)          110.0898         0.324471   
     51. A(H  24,C   2,H  25)          108.6316         0.291832   
     52. A(C   1,C   2,H  25)          110.7447         0.324607   
     53. A(H  23,C   2,H  24)          108.6397         0.291740   
     54. A(H  23,C   2,H  25)          108.7427         0.291858   
     55. A(C   1,C   2,H  23)          109.9434         0.324501   
     56. A(C   1,C   3,C   4)          110.6716         0.411614   
     57. A(C   4,C   3,C  19)          116.1695         0.430012   
     58. A(C   1,C   3,C  19)          133.1589         0.387231   
     59. A(C   5,C   4,S  11)          138.7611         0.410452   
     60. A(C   3,C   4,C   5)          111.1064         0.432954   
     61. A(C   3,C   4,S  11)          110.1326         0.433760   
     62. A(C   6,C   5,C  10)          121.3442         0.431091   
     63. A(C   4,C   5,C  10)          106.9661         0.416900   
     64. A(C   4,C   5,C   6)          131.6897         0.423581   
     65. A(C   5,C   6,H  26)          120.3540         0.356915   
     66. A(C   5,C   6,C   7)          117.9963         0.437958   
     67. A(C   7,C   6,H  26)          121.6497         0.356836   
     68. A(C   8,C   7,H  27)          119.4650         0.356232   
     69. A(C   6,C   7,H  27)          119.6516         0.356619   
     70. A(C   6,C   7,C   8)          120.8833         0.437349   
     71. A(C   9,C   8,H  28)          119.3808         0.355498   
     72. A(C   7,C   8,H  28)          119.4874         0.356173   
     73. A(C   7,C   8,C   9)          121.1318         0.435967   
     74. A(C  10,C   9,H  29)          121.1817         0.358464   
     75. A(C   8,C   9,H  29)          120.1192         0.355459   
     76. A(C   8,C   9,C  10)          118.6991         0.438993   
     77. A(C   5,C  10,C   9)          119.9452         0.433474   
     78. A(C   1,C  10,C   9)          129.6399         0.403869   
     79. A(C   1,C  10,C   5)          110.4148         0.395448   
     80. A(O  13,S  11,C  14)          110.8317         0.498798   
     81. A(O  12,S  11,C  14)          110.8571         0.498853   
     82. A(C   4,S  11,C  14)           91.6635         0.406061   
     83. A(O  12,S  11,O  13)          117.5472         0.627328   
     84. A(C   4,S  11,O  13)          111.4854         0.505448   
     85. A(C   4,S  11,O  12)          111.5183         0.505504   
     86. A(S  11,C  14,C  15)          127.8250         0.422955   
     87. A(C  15,C  14,C  19)          122.4067         0.437866   
     88. A(S  11,C  14,C  19)          109.7683         0.414928   
     89. A(C  16,C  15,H  30)          121.4468         0.355414   
     90. A(C  14,C  15,H  30)          120.1253         0.360143   
     91. A(C  14,C  15,C  16)          118.4279         0.440223   
     92. A(C  17,C  16,H  31)          120.0099         0.356810   
     93. A(C  15,C  16,H  31)          119.8709         0.355303   
     94. A(C  15,C  16,C  17)          120.1192         0.436050   
     95. A(C  16,C  17,H  32)          119.5306         0.356612   
     96. A(C  16,C  17,C  18)          121.1495         0.437561   
     97. A(C  18,C  17,H  32)          119.3198         0.356265   
     98. A(C  17,C  18,C  19)          119.3039         0.435939   
     99. A(C  19,C  18,H  33)          120.8144         0.355629   
    100. A(C  17,C  18,H  33)          119.8817         0.356528   
    101. A(C  14,C  19,C  18)          118.5928         0.432116   
    102. A(C   3,C  19,C  18)          129.1411         0.419153   
    103. A(C   3,C  19,C  14)          112.2661         0.416617   
    104. D(C   2,C   1,C   0,H  21)     59.9517         0.011002   
    105. D(C  10,C   1,C   0,H  22)     63.2265         0.011002   
    106. D(C   3,C   1,C   0,H  20)     54.9848         0.011002   
    107. D(C  10,C   1,C   0,H  20)    -56.4230         0.011002   
    108. D(C  10,C   1,C   0,H  21)   -176.5580         0.011002   
    109. D(C   2,C   1,C   0,H  22)    -60.2639         0.011002   
    110. D(C   3,C   1,C   0,H  21)    -65.1502         0.011002   
    111. D(C   2,C   1,C   0,H  20)   -179.9133         0.011002   
    112. D(C   3,C   1,C   0,H  22)    174.6343         0.011002   
    113. D(H  23,C   2,C   1,C  10)    -63.1045         0.011004   
    114. D(H  24,C   2,C   1,C   0)   -179.9777         0.011004   
    115. D(H  24,C   2,C   1,C   3)    -54.8994         0.011004   
    116. D(H  25,C   2,C   1,C   0)    -59.8258         0.011004   
    117. D(H  24,C   2,C   1,C  10)     56.5485         0.011004   
    118. D(H  23,C   2,C   1,C   0)     60.3694         0.011004   
    119. D(H  25,C   2,C   1,C   3)     65.2524         0.011004   
    120. D(H  23,C   2,C   1,C   3)   -174.5523         0.011004   
    121. D(H  25,C   2,C   1,C  10)    176.7003         0.011004   
    122. D(C  19,C   3,C   1,C  10)   -179.9245         0.011728   
    123. D(C  19,C   3,C   1,C   2)    -62.3314         0.011728   
    124. D(C  19,C   3,C   1,C   0)     62.5335         0.011728   
    125. D(C   4,C   3,C   1,C  10)      0.0631         0.011728   
    126. D(C   4,C   3,C   1,C   2)    117.6561         0.011728   
    127. D(C   4,C   3,C   1,C   0)   -117.4790         0.011728   
    128. D(S  11,C   4,C   3,C   1)    179.9658         0.036529   
    129. D(S  11,C   4,C   3,C  19)     -0.0443         0.036529   
    130. D(C   5,C   4,C   3,C  19)    179.9399         0.036529   
    131. D(C   5,C   4,C   3,C   1)     -0.0500         0.036529   
    132. D(C   6,C   5,C   4,S  11)      0.0046         0.018981   
    133. D(C   6,C   5,C   4,C   3)   -179.9729         0.018981   
    134. D(C  10,C   5,C   4,C   3)      0.0122         0.018981   
    135. D(C  10,C   5,C   4,S  11)    179.9897         0.018981   
    136. D(H  26,C   6,C   5,C  10)    179.9929         0.028078   
    137. D(H  26,C   6,C   5,C   4)     -0.0239         0.028078   
    138. D(C   7,C   6,C   5,C  10)     -0.0190         0.028078   
    139. D(C   7,C   6,C   5,C   4)    179.9643         0.028078   
    140. D(H  27,C   7,C   6,H  26)     -0.0043         0.027999   
    141. D(H  27,C   7,C   6,C   5)   -179.9923         0.027999   
    142. D(C   8,C   7,C   6,H  26)    179.9942         0.027999   
    143. D(C   8,C   7,C   6,C   5)      0.0062         0.027999   
    144. D(H  28,C   8,C   7,H  27)      0.0049         0.027620   
    145. D(H  28,C   8,C   7,C   6)   -179.9936         0.027620   
    146. D(C   9,C   8,C   7,H  27)   -179.9932         0.027620   
    147. D(C   9,C   8,C   7,C   6)      0.0083         0.027620   
    148. D(H  29,C   9,C   8,H  28)     -0.0031         0.026972   
    149. D(H  29,C   9,C   8,C   7)    179.9950         0.026972   
    150. D(C  10,C   9,C   8,H  28)    179.9920         0.026972   
    151. D(C  10,C   9,C   8,C   7)     -0.0099         0.026972   
    152. D(C   5,C  10,C   9,H  29)    179.9923         0.029980   
    153. D(C   5,C  10,C   9,C   8)     -0.0028         0.029980   
    154. D(C   1,C  10,C   9,H  29)     -0.0074         0.029980   
    155. D(C   9,C  10,C   5,C   6)      0.0176         0.023258   
    156. D(C   9,C  10,C   5,C   4)   -179.9694         0.023258   
    157. D(C   1,C  10,C   5,C   6)   -179.9827         0.023258   
    158. D(C   1,C  10,C   5,C   4)      0.0303         0.023258   
    159. D(C   9,C  10,C   1,C   3)    179.9443         0.011378   
    160. D(C   9,C  10,C   1,C   2)     61.7671         0.011378   
    161. D(C   1,C  10,C   9,C   8)    179.9976         0.029980   
    162. D(C   9,C  10,C   1,C   0)    -61.9389         0.011378   
    163. D(C   5,C  10,C   1,C   0)    118.0615         0.011378   
    164. D(C   5,C  10,C   1,C   3)     -0.0554         0.011378   
    165. D(C   5,C  10,C   1,C   2)   -118.2325         0.011378   
    166. D(O  12,S  11,C   4,C   3)    113.2825         0.004242   
    167. D(C  14,S  11,C   4,C   5)   -179.9190         0.004242   
    168. D(C  14,S  11,C   4,C   3)      0.0586         0.004242   
    169. D(O  13,S  11,C   4,C   5)     66.8914         0.004242   
    170. D(O  13,S  11,C   4,C   3)   -113.1309         0.004242   
    171. D(O  12,S  11,C   4,C   5)    -66.6951         0.004242   
    172. D(C  19,C  14,S  11,O  13)    113.7126         0.003866   
    173. D(C  19,C  14,S  11,O  12)   -113.8722         0.003866   
    174. D(C  19,C  14,S  11,C   4)     -0.0593         0.003866   
    175. D(C  15,C  14,S  11,O  13)    -66.2930         0.003866   
    176. D(C  15,C  14,S  11,O  12)     66.1222         0.003866   
    177. D(C  15,C  14,S  11,C   4)    179.9351         0.003866   
    178. D(H  30,C  15,C  14,C  19)    179.9947         0.031420   
    179. D(H  30,C  15,C  14,S  11)      0.0009         0.031420   
    180. D(C  16,C  15,C  14,C  19)     -0.0010         0.031420   
    181. D(C  16,C  15,C  14,S  11)   -179.9948         0.031420   
    182. D(H  31,C  16,C  15,H  30)     -0.0060         0.026611   
    183. D(H  31,C  16,C  15,C  14)    179.9898         0.026611   
    184. D(C  17,C  16,C  15,H  30)    179.9883         0.026611   
    185. D(C  17,C  16,C  15,C  14)     -0.0159         0.026611   
    186. D(H  32,C  17,C  16,H  31)     -0.0018         0.028059   
    187. D(H  32,C  17,C  16,C  15)   -179.9961         0.028059   
    188. D(C  18,C  17,C  16,H  31)   -179.9899         0.028059   
    189. D(C  18,C  17,C  16,C  15)      0.0158         0.028059   
    190. D(H  33,C  18,C  17,H  32)      0.0110         0.027719   
    191. D(H  33,C  18,C  17,C  16)    179.9991         0.027719   
    192. D(C  19,C  18,C  17,H  32)   -179.9864         0.027719   
    193. D(C  19,C  18,C  17,C  16)      0.0016         0.027719   
    194. D(C  14,C  19,C  18,H  33)    179.9844         0.026856   
    195. D(C  14,C  19,C  18,C  17)     -0.0181         0.026856   
    196. D(C   3,C  19,C  18,H  33)     -0.0547         0.026856   
    197. D(C   3,C  19,C  18,C  17)    179.9428         0.026856   
    198. D(C  18,C  19,C  14,C  15)      0.0182         0.024988   
    199. D(C  18,C  19,C  14,S  11)   -179.9871         0.024988   
    200. D(C   3,C  19,C  14,C  15)   -179.9491         0.024988   
    201. D(C   3,C  19,C  14,S  11)      0.0457         0.024988   
    202. D(C  18,C  19,C   3,C   4)   -179.9642         0.017568   
    203. D(C  18,C  19,C   3,C   1)      0.0228         0.017568   
    204. D(C  14,C  19,C   3,C   4)     -0.0013         0.017568   
    205. D(C  14,C  19,C   3,C   1)    179.9857         0.017568   
    -----------------------------------------------------------------

Number of atoms                         .... 34
Number of degrees of freedom            .... 205

         *************************************************************
         *                GEOMETRY OPTIMIZATION CYCLE   1            *
         *************************************************************
---------------------------------
CARTESIAN COORDINATES (ANGSTROEM)
---------------------------------
  C     -1.005900   -0.616000    2.106100
  C     -0.824300   -0.809400    0.597400
  C     -0.708500   -2.294800    0.241500
  C      0.355900   -0.019400    0.075200
  C     -0.049500    0.907700   -0.821400
  C     -1.472900    0.860600   -1.006300
  C     -2.322700    1.603500   -1.809200
  C     -3.676900    1.313700   -1.766100
  C     -4.164300    0.309300   -0.942600
  C     -3.311600   -0.436300   -0.136400
  C     -1.963000   -0.160700   -0.167700
  S      1.352800    1.831200   -1.426900
  O      1.590600    1.575000   -2.821500
  O      1.302500    3.204000   -1.002100
  C      2.489600    0.881900   -0.396400
  C      3.850700    1.015800   -0.302600
  C      4.541500    0.172200    0.562800
  C      3.855500   -0.775000    1.305200
  C      2.478400   -0.905000    1.205400
  C      1.776300   -0.068500    0.344100
  H     -1.087700    0.443000    2.339500
  H     -0.160700   -1.027300    2.651400
  H     -1.912600   -1.116000    2.437700
  H     -1.611500   -2.819900    0.543100
  H     -0.579900   -2.412800   -0.831800
  H      0.142400   -2.746000    0.744800
  H     -1.930300    2.381700   -2.445000
  H     -4.363400    1.876200   -2.381100
  H     -5.224200    0.102300   -0.926800
  H     -3.708800   -1.214600    0.498700
  H      4.363200    1.760900   -0.890600
  H      5.613400    0.257300    0.654700
  H      4.401000   -1.424600    1.973800
  H      1.964800   -1.649800    1.793200

----------------------------
CARTESIAN COORDINATES (A.U.)
----------------------------
  NO LB      ZA    FRAG     MASS         X           Y           Z
   0 C     6.0000    0    12.011   -1.900876   -1.164071    3.979952
   1 C     6.0000    0    12.011   -1.557701   -1.529544    1.128922
   2 C     6.0000    0    12.011   -1.338871   -4.336544    0.456369
   3 C     6.0000    0    12.011    0.672554   -0.036661    0.142107
   4 C     6.0000    0    12.011   -0.093541    1.715304   -1.552221
   5 C     6.0000    0    12.011   -2.783378    1.626298   -1.901631
   6 C     6.0000    0    12.011   -4.389267    3.030176   -3.418893
   7 C     6.0000    0    12.011   -6.948334    2.482533   -3.337445
   8 C     6.0000    0    12.011   -7.869387    0.584492   -1.781256
   9 C     6.0000    0    12.011   -6.258017   -0.824488   -0.257759
  10 C     6.0000    0    12.011   -3.709532   -0.303679   -0.316907
  11 S    16.0000    0    32.060    2.556422    3.460466   -2.696450
  12 O     8.0000    0    15.999    3.005798    2.976319   -5.331862
  13 O     8.0000    0    15.999    2.461368    6.054683   -1.893695
  14 C     6.0000    0    12.011    4.704662    1.666549   -0.749087
  15 C     6.0000    0    12.011    7.276768    1.919584   -0.571831
  16 C     6.0000    0    12.011    8.582191    0.325411    1.063538
  17 C     6.0000    0    12.011    7.285839   -1.464538    2.466471
  18 C     6.0000    0    12.011    4.683497   -1.710202    2.277876
  19 C     6.0000    0    12.011    3.356721   -0.129446    0.650255
  20 H     1.0000    0     1.008   -2.055455    0.837149    4.421014
  21 H     1.0000    0     1.008   -0.303679   -1.941316    5.010420
  22 H     1.0000    0     1.008   -3.614290   -2.108934    4.606585
  23 H     1.0000    0     1.008   -3.045294   -5.328839    1.026310
  24 H     1.0000    0     1.008   -1.095852   -4.559531   -1.571874
  25 H     1.0000    0     1.008    0.269097   -5.189188    1.407468
  26 H     1.0000    0     1.008   -3.647738    4.500761   -4.620380
  27 H     1.0000    0     1.008   -8.245631    3.545504   -4.499627
  28 H     1.0000    0     1.008   -9.872307    0.193319   -1.751398
  29 H     1.0000    0     1.008   -7.008616   -2.295261    0.942406
  30 H     1.0000    0     1.008    8.245253    3.327619   -1.682990
  31 H     1.0000    0     1.008   10.607789    0.486227    1.237204
  32 H     1.0000    0     1.008    8.316685   -2.692104    3.729941
  33 H     1.0000    0     1.008    3.712934   -3.117670    3.388657

--------------------------------
INTERNAL COORDINATES (ANGSTROEM)
--------------------------------
 C      0   0   0     0.000000000000     0.00000000     0.00000000
 C      1   0   0     1.531847841661     0.00000000     0.00000000
 C      2   1   0     1.531824927986   111.11338197     0.00000000
 C      2   1   3     1.513163864226   111.49614197   234.89816878
 C      4   2   1     1.351944943406   110.67161663   242.52101244
 C      5   4   2     1.436131602605   111.10638886   359.95000634
 C      6   5   4     1.385174667686   131.68969245   180.02713247
 C      7   6   5     1.385532132431   117.99628226   179.96426312
 C      8   7   6     1.387274439323   120.88334640     0.00000000
 C      9   8   7     1.390314744941   121.13184209     0.00000000
 C     10   9   8     1.376828605891   118.69911012     0.00000000
 S      5   4   2     1.784916745958   110.13255255   179.96580417
 O     12   5   4     1.437740046044   111.51833751   113.28254205
 O     12   5   4     1.437902976560   111.48535771   246.86905821
 C     12   5   4     1.804276857913    91.66348908     0.05861186
 C     15  12   5     1.370883240834   127.82496330   179.93511084
 C     16  15  12     1.392042657392   118.42790269   180.00516615
 C     17  16  15     1.385258676205   120.11920968     0.00000000
 C     18  17  16     1.386818102708   121.14954114     0.00000000
 C     19  18  17     1.390868200082   119.30388447     0.00000000
 H      1   2   3     1.087496114936   110.07439204   180.08668078
 H      1   2   3     1.086684323987   110.74613883    59.95166522
 H      1   2   3     1.087227414114   109.94942721   299.73612151
 H      3   2   1     1.087244944803   109.94336656    60.36940369
 H      3   2   1     1.087398202132   110.08979332   180.02232440
 H      3   2   1     1.086702875675   110.74468919   300.17415123
 H      7   6   5     1.078802410083   120.35403485   359.97613752
 H      8   7   6     1.079774745028   119.65160616   180.00769225
 H      9   8   7     1.080040114996   119.48740023   180.00639330
 H     10   9   8     1.080217913201   120.11919821   179.99502858
 H     16  15  12     1.078690993751   120.12528531     0.00000000
 H     17  16  15     1.079192860429   119.87092412   179.98976129
 H     18  17  16     1.080081649691   119.53064234   180.00387777
 H     19  18  17     1.078897974787   119.88167861   179.99907885

---------------------------
INTERNAL COORDINATES (A.U.)
---------------------------
 C      0   0   0     0.000000000000     0.00000000     0.00000000
 C      1   0   0     2.894772899577     0.00000000     0.00000000
 C      2   1   0     2.894729599008   111.11338197     0.00000000
 C      2   1   3     2.859465299134   111.49614197   234.89816878
 C      4   2   1     2.554805691176   110.67161663   242.52101244
 C      5   4   2     2.713895421192   111.10638886   359.95000634
 C      6   5   4     2.617600769573   131.68969245   180.02713247
 C      7   6   5     2.618276280043   117.99628226   179.96426312
 C      8   7   6     2.621568762910   120.88334640     0.00000000
 C      9   8   7     2.627314107891   121.13184209     0.00000000
 C     10   9   8     2.601828998483   118.69911012     0.00000000
 S      5   4   2     3.373003821710   110.13255255   179.96580417
 O     12   5   4     2.716934938795   111.51833751   113.28254205
 O     12   5   4     2.717242832849   111.48535771   246.86905821
 C     12   5   4     3.409589131227    91.66348908     0.05861186
 C     15  12   5     2.590593886759   127.82496330   179.93511084
 C     16  15  12     2.630579389208   118.42790269   180.00516615
 C     17  16  15     2.617759522665   120.11920968     0.00000000
 C     18  17  16     2.620706411683   121.14954114     0.00000000
 C     19  18  17     2.628359986535   119.30388447     0.00000000
 H      1   2   3     2.055069828932   110.07439204   180.08668078
 H      1   2   3     2.053535766362   110.74613883    59.95166522
 H      1   2   3     2.054562057966   109.94942721   299.73612151
 H      3   2   1     2.054595186168   109.94336656    60.36940369
 H      3   2   1     2.054884800548   110.08979332   180.02232440
 H      3   2   1     2.053570823970   110.74468919   300.17415123
 H      7   6   5     2.038641107670   120.35403485   359.97613752
 H      8   7   6     2.040478554427   119.65160616   180.00769225
 H      9   8   7     2.040980030991   119.48740023   180.00639330
 H     10   9   8     2.041316020906   120.11919821   179.99502858
 H     16  15  12     2.038430561317   120.12528531     0.00000000
 H     17  16  15     2.039378951893   119.87092412   179.98976129
 H     18  17  16     2.041058520191   119.53064234   180.00387777
 H     19  18  17     2.038821698790   119.88167861   179.99907885

---------------------
BASIS SET INFORMATION
---------------------
There are 4 groups of distinct atoms

 Group   1 Type C   : 19s6p3d2f contracted to 5s4p3d2f pattern {88111/3111/111/11}
 Group   2 Type S   : 42s17p3d2f contracted to 6s5p3d2f pattern {131313111/77111/111/11}
 Group   3 Type O   : 19s6p3d2f contracted to 5s4p3d2f pattern {88111/3111/111/11}
 Group   4 Type H   : 5s2p1d contracted to 3s2p1d pattern {311/11/1}

Atom   0C    basis set group =>   1
Atom   1C    basis set group =>   1
Atom   2C    basis set group =>   1
Atom   3C    basis set group =>   1
Atom   4C    basis set group =>   1
Atom   5C    basis set group =>   1
Atom   6C    basis set group =>   1
Atom   7C    basis set group =>   1
Atom   8C    basis set group =>   1
Atom   9C    basis set group =>   1
Atom  10C    basis set group =>   1
Atom  11S    basis set group =>   2
Atom  12O    basis set group =>   3
Atom  13O    basis set group =>   3
Atom  14C    basis set group =>   1
Atom  15C    basis set group =>   1
Atom  16C    basis set group =>   1
Atom  17C    basis set group =>   1
Atom  18C    basis set group =>   1
Atom  19C    basis set group =>   1
Atom  20H    basis set group =>   4
Atom  21H    basis set group =>   4
Atom  22H    basis set group =>   4
Atom  23H    basis set group =>   4
Atom  24H    basis set group =>   4
Atom  25H    basis set group =>   4
Atom  26H    basis set group =>   4
Atom  27H    basis set group =>   4
Atom  28H    basis set group =>   4
Atom  29H    basis set group =>   4
Atom  30H    basis set group =>   4
Atom  31H    basis set group =>   4
Atom  32H    basis set group =>   4
Atom  33H    basis set group =>   4
---------------------------------
AUXILIARY/J BASIS SET INFORMATION
---------------------------------
There are 4 groups of distinct atoms

 Group   1 Type C   : 10s7p5d2f1g contracted to 10s7p5d2f1g pattern {1111111111/1111111/11111/11/1}
 Group   2 Type S   : 13s11p9d3f1g contracted to 13s11p9d3f1g pattern {1111111111111/11111111111/111111111/111/1}
 Group   3 Type O   : 10s7p5d2f1g contracted to 10s7p5d2f1g pattern {1111111111/1111111/11111/11/1}
 Group   4 Type H   : 4s3p2d1f contracted to 4s3p2d1f pattern {1111/111/11/1}

Atom   0C    basis set group =>   1
Atom   1C    basis set group =>   1
Atom   2C    basis set group =>   1
Atom   3C    basis set group =>   1
Atom   4C    basis set group =>   1
Atom   5C    basis set group =>   1
Atom   6C    basis set group =>   1
Atom   7C    basis set group =>   1
Atom   8C    basis set group =>   1
Atom   9C    basis set group =>   1
Atom  10C    basis set group =>   1
Atom  11S    basis set group =>   2
Atom  12O    basis set group =>   3
Atom  13O    basis set group =>   3
Atom  14C    basis set group =>   1
Atom  15C    basis set group =>   1
Atom  16C    basis set group =>   1
Atom  17C    basis set group =>   1
Atom  18C    basis set group =>   1
Atom  19C    basis set group =>   1
Atom  20H    basis set group =>   4
Atom  21H    basis set group =>   4
Atom  22H    basis set group =>   4
Atom  23H    basis set group =>   4
Atom  24H    basis set group =>   4
Atom  25H    basis set group =>   4
Atom  26H    basis set group =>   4
Atom  27H    basis set group =>   4
Atom  28H    basis set group =>   4
Atom  29H    basis set group =>   4
Atom  30H    basis set group =>   4
Atom  31H    basis set group =>   4
Atom  32H    basis set group =>   4
Atom  33H    basis set group =>   4
---------------------------------
AUXILIARY/C BASIS SET INFORMATION
---------------------------------
There are 4 groups of distinct atoms

 Group   1 Type C   : 9s7p6d4f2g contracted to 9s7p6d4f2g pattern {111111111/1111111/111111/1111/11}
 Group   2 Type S   : 11s9p8d6f3g contracted to 11s9p8d6f3g pattern {11111111111/111111111/11111111/111111/111}
 Group   3 Type O   : 9s7p6d4f2g contracted to 9s7p6d4f2g pattern {111111111/1111111/111111/1111/11}
 Group   4 Type H   : 4s3p2d1f contracted to 4s3p2d1f pattern {1111/111/11/1}

Atom   0C    basis set group =>   1
Atom   1C    basis set group =>   1
Atom   2C    basis set group =>   1
Atom   3C    basis set group =>   1
Atom   4C    basis set group =>   1
Atom   5C    basis set group =>   1
Atom   6C    basis set group =>   1
Atom   7C    basis set group =>   1
Atom   8C    basis set group =>   1
Atom   9C    basis set group =>   1
Atom  10C    basis set group =>   1
Atom  11S    basis set group =>   2
Atom  12O    basis set group =>   3
Atom  13O    basis set group =>   3
Atom  14C    basis set group =>   1
Atom  15C    basis set group =>   1
Atom  16C    basis set group =>   1
Atom  17C    basis set group =>   1
Atom  18C    basis set group =>   1
Atom  19C    basis set group =>   1
Atom  20H    basis set group =>   4
Atom  21H    basis set group =>   4
Atom  22H    basis set group =>   4
Atom  23H    basis set group =>   4
Atom  24H    basis set group =>   4
Atom  25H    basis set group =>   4
Atom  26H    basis set group =>   4
Atom  27H    basis set group =>   4
Atom  28H    basis set group =>   4
Atom  29H    basis set group =>   4
Atom  30H    basis set group =>   4
Atom  31H    basis set group =>   4
Atom  32H    basis set group =>   4
Atom  33H    basis set group =>   4


           ************************************************************
           *        Program running with 4 parallel MPI-processes     *
           *              working on a common directory               *
           ************************************************************
------------------------------------------------------------------------------
                           ORCA GTO INTEGRAL CALCULATION
                           -- RI-GTO INTEGRALS CHOSEN --
------------------------------------------------------------------------------
------------------------------------------------------------------------------
                   ___                                                        
                  /   \      - P O W E R E D   B Y -                         
                 /     \                                                     
                 |  |  |   _    _      __       _____    __    __             
                 |  |  |  | |  | |    /  \     |  _  \  |  |  /  |          
                  \  \/   | |  | |   /    \    | | | |  |  | /  /          
                 / \  \   | |__| |  /  /\  \   | |_| |  |  |/  /          
                |  |  |   |  __  | /  /__\  \  |    /   |      \           
                |  |  |   | |  | | |   __   |  |    \   |  |\   \          
                \     /   | |  | | |  |  |  |  | |\  \  |  | \   \       
                 \___/    |_|  |_| |__|  |__|  |_| \__\ |__|  \__/        
                                                                              
                      - O R C A' S   B I G   F R I E N D -                    
                                      &                                       
                       - I N T E G R A L  F E E D E R -                       
                                                                              
 v1 FN, 2020, v2 2021                                                         
------------------------------------------------------------------------------


Reading SHARK input file x3lyp-train-3.SHARKINP.tmp ... ok
----------------------
SHARK INTEGRAL PACKAGE
----------------------

Number of atoms                             ...     34
Number of basis functions                   ...   1259
Number of shells                            ...    495
Maximum angular momentum                    ...      3
Integral batch strategy                     ... SHARK/LIBINT Hybrid
RI-J (if used) integral strategy            ... SPLIT-RIJ (Revised 2003 algorithm where possible)
Printlevel                                  ...      1
Contraction scheme used                     ... PARTIAL GENERAL contraction
Coulomb Range Separation                    ... NOT USED
Exchange Range Separation                   ... NOT USED
Finite Nucleus Model                        ... NOT USED
Auxiliary Coulomb fitting basis             ... AVAILABLE
   # of basis functions in Aux-J            ...   2042
   # of shells in Aux-J                     ...    652
   Maximum angular momentum in Aux-J        ...      4
Auxiliary J/K fitting basis                 ... NOT available
Auxiliary Correlation fitting basis         ... AVAILABLE
   # of basis functions in Aux-C            ...   2581
   # of shells in Aux-C                     ...    709
   Maximum angular momentum in Aux-C        ...      4
Auxiliary 'external' fitting basis          ... NOT available
Integral threshold                          ...     2.500000e-11
Primitive cut-off                           ...     2.500000e-12
Primitive pair pre-selection threshold      ...     2.500000e-12

Calculating pre-screening integrals         ... done (  0.3 sec) Dimension = 495
Calculating pre-screening integrals (ORCA)  ... done (  0.7 sec) Dimension = 366
Organizing shell pair data                  ... done (  1.1 sec)
Shell pair information
Total number of shell pairs                 ...    122760
Shell pairs after pre-screening             ...     83830
Total number of primitive shell pairs       ...    157740
Primitive shell pairs kept                  ...     97907
          la=0 lb=0:  18885 shell pairs
          la=1 lb=0:  21401 shell pairs
          la=1 lb=1:   5399 shell pairs
          la=2 lb=0:  13967 shell pairs
          la=2 lb=1:   6965 shell pairs
          la=2 lb=2:   2307 shell pairs
          la=3 lb=0:   7762 shell pairs
          la=3 lb=1:   3883 shell pairs
          la=3 lb=2:   2528 shell pairs
          la=3 lb=3:    733 shell pairs

Calculating one electron integrals          ... done (  0.2 sec)
Calculating RI/J V-Matrix + Cholesky decomp.... done (  0.4 sec)
Calculating RI/C V-Matrix + Cholesky decomp.... done (  0.6 sec)
Calculating Nuclear repulsion               ... done (  0.0 sec) ENN=   1686.481702598117 Eh

SHARK setup successfully completed in   5.4 seconds

Maximum memory used throughout the entire GTOINT-calculation: 125.9 MB


           ************************************************************
           *        Program running with 4 parallel MPI-processes     *
           *              working on a common directory               *
           ************************************************************
-------------------------------------------------------------------------------
                                 ORCA SCF
-------------------------------------------------------------------------------

------------
SCF SETTINGS
------------
Hamiltonian:
 Density Functional     Method          .... DFT(GTOs)
 Exchange Functional    Exchange        .... X
 Correlation Functional Correlation     .... LYP
 LDA part of GGA corr.  LDAOpt          .... VWN-5
 Gradients option       PostSCFGGA      .... off
 Hybrid DFT is turned on
   Fraction HF Exchange ScalHFX         ....  0.218000
   Scaling of DF-GGA-X  ScalDFX         ....  0.709000
   Scaling of DF-GGA-C  ScalDFC         ....  0.871000
   Scaling of DF-LDA-C  ScalLDAC        ....  1.000000
   Perturbative correction              ....  0.000000
   Density functional embedding theory  .... OFF
 RI-approximation to the Coulomb term is turned on
   Number of AuxJ basis functions       .... 2042
   RIJ-COSX (HFX calculated with COS-X)).... on


General Settings:
 Integral files         IntName         .... x3lyp-train-3
 Hartree-Fock type      HFTyp           .... RHF
 Total Charge           Charge          ....    0
 Multiplicity           Mult            ....    1
 Number of Electrons    NEL             ....  148
 Basis Dimension        Dim             .... 1120
 Nuclear Repulsion      ENuc            ....   1686.4817025981 Eh

Convergence Acceleration:
 DIIS                   CNVDIIS         .... on
   Start iteration      DIISMaxIt       ....    12
   Startup error        DIISStart       ....  0.200000
   # of expansion vecs  DIISMaxEq       ....     5
   Bias factor          DIISBfac        ....   1.050
   Max. coefficient     DIISMaxC        ....  10.000
 Trust-Rad. Augm. Hess. CNVTRAH         .... auto
   Auto Start mean grad. ratio tolernc. ....  1.125000
   Auto Start start iteration           ....    20
   Auto Start num. interpolation iter.  ....    10
   Max. Number of Micro iterations      ....    16
   Max. Number of Macro iterations      .... Maxiter - #DIIS iter
   Number of Davidson start vectors     ....     2
   Converg. threshold I  (grad. norm)   ....   1.000e-05
   Converg. threshold II (energy diff.) ....   1.000e-08
   Grad. Scal. Fac. for Micro threshold ....   0.100
   Minimum threshold for Micro iter.    ....   0.010
   NR start threshold (gradient norm)   ....   0.001
   Initial trust radius                 ....   0.400
   Minimum AH scaling param. (alpha)    ....   1.000
   Maximum AH scaling param. (alpha)    .... 1000.000
   Orbital update algorithm             .... Taylor
   White noise on init. David. guess    .... on
   Maximum white noise                  ....   0.010
   Quad. conv. algorithm                .... NR
 SOSCF                  CNVSOSCF        .... on
   Start iteration      SOSCFMaxIt      ....   150
   Startup grad/error   SOSCFStart      ....  0.003300
 Level Shifting         CNVShift        .... on
   Level shift para.    LevelShift      ....    0.2500
   Turn off err/grad.   ShiftErr        ....    0.0010
 Zerner damping         CNVZerner       .... off
 Static damping         CNVDamp         .... on
   Fraction old density DampFac         ....    0.7000
   Max. Damping (<1)    DampMax         ....    0.9800
   Min. Damping (>=0)   DampMin         ....    0.0000
   Turn off err/grad.   DampErr         ....    0.1000
 Fernandez-Rico         CNVRico         .... off

SCF Procedure:
 Maximum # iterations   MaxIter         ....   125
 SCF integral mode      SCFMode         .... Direct
   Integral package                     .... SHARK and LIBINT hybrid scheme
 Reset frequency        DirectResetFreq ....    20
 Integral Threshold     Thresh          ....  2.500e-11 Eh
 Primitive CutOff       TCut            ....  2.500e-12 Eh

Convergence Tolerance:
 Convergence Check Mode ConvCheckMode   .... Total+1el-Energy
 Convergence forced     ConvForced      .... 0
 Energy Change          TolE            ....  1.000e-08 Eh
 1-El. energy change                    ....  1.000e-05 Eh
 Orbital Gradient       TolG            ....  1.000e-05
 Orbital Rotation angle TolX            ....  1.000e-05
 DIIS Error             TolErr          ....  5.000e-07


Diagonalization of the overlap matrix:
Smallest eigenvalue                        ... 2.467e-07
Time for diagonalization                   ...    0.333 sec
Threshold for overlap eigenvalues          ... 1.000e-08
Number of eigenvalues below threshold      ... 0
Time for construction of square roots      ...    0.221 sec
Total time needed                          ...    0.560 sec

Time for model grid setup =    0.903 sec

------------------------------
INITIAL GUESS: MODEL POTENTIAL
------------------------------
Loading Hartree-Fock densities                     ... done
Calculating cut-offs                               ... done
Initializing the effective Hamiltonian             ... done
Setting up the integral package (SHARK)            ... done
Starting the Coulomb interaction                   ... done (   3.4 sec)
Reading the grid                                   ... done
Mapping shells                                     ... done
Starting the XC term evaluation                    ... done (   3.2 sec)
  promolecular density results
     # of electrons  =    147.994226357
     EX              =   -134.002958259
     EC              =     -5.168018041
     EX+EC           =   -139.170976300
Transforming the Hamiltonian                       ... done (   0.2 sec)
Diagonalizing the Hamiltonian                      ... done (   0.4 sec)
Back transforming the eigenvectors                 ... done (   0.1 sec)
Now organizing SCF variables                       ... done
                      ------------------
                      INITIAL GUESS DONE (   8.2 sec)
                      ------------------
-------------------
DFT GRID GENERATION
-------------------

General Integration Accuracy     IntAcc      ... 4.388
Radial Grid Type                 RadialGrid  ... OptM3 with GC (2021)
Angular Grid (max. ang.)         AngularGrid ... 4 (Lebedev-302)
Angular grid pruning method      GridPruning ... 4 (adaptive)
Weight generation scheme         WeightScheme... Becke
Basis function cutoff            BFCut       ... 1.0000e-11
Integration weight cutoff        WCut        ... 1.0000e-14
Angular grids for H and He will be reduced by one unit
Partially contracted basis set               ... off
Rotationally invariant grid construction     ... off

Total number of grid points                  ...   169543
Total number of batches                      ...     2666
Average number of points per batch           ...       63
Average number of grid points per atom       ...     4987
Time for grid setup =    3.378 sec

--------------------
COSX GRID GENERATION
--------------------

GRIDX 1
-------
General Integration Accuracy     IntAcc      ... 3.816
Radial Grid Type                 RadialGrid  ... OptM3 with GC (2021)
Angular Grid (max. ang.)         AngularGrid ... 1 (Lebedev-50)
Angular grid pruning method      GridPruning ... 4 (adaptive)
Weight generation scheme         WeightScheme... Becke
Basis function cutoff            BFCut       ... 1.0000e-11
Integration weight cutoff        WCut        ... 1.0000e-14
Angular grids for H and He will be reduced by one unit
Partially contracted basis set               ... on
Rotationally invariant grid construction     ... off

Total number of grid points                  ...    21449
Total number of batches                      ...      353
Average number of points per batch           ...       60
Average number of grid points per atom       ...      631
UseSFitting                                  ... on

GRIDX 2
-------
General Integration Accuracy     IntAcc      ... 4.020
Radial Grid Type                 RadialGrid  ... OptM3 with GC (2021)
Angular Grid (max. ang.)         AngularGrid ... 2 (Lebedev-110)
Angular grid pruning method      GridPruning ... 4 (adaptive)
Weight generation scheme         WeightScheme... Becke
Basis function cutoff            BFCut       ... 1.0000e-11
Integration weight cutoff        WCut        ... 1.0000e-14
Angular grids for H and He will be reduced by one unit
Partially contracted basis set               ... on
Rotationally invariant grid construction     ... off

Total number of grid points                  ...    50314
Total number of batches                      ...      802
Average number of points per batch           ...       62
Average number of grid points per atom       ...     1480
UseSFitting                                  ... on

GRIDX 3
-------
General Integration Accuracy     IntAcc      ... 4.338
Radial Grid Type                 RadialGrid  ... OptM3 with GC (2021)
Angular Grid (max. ang.)         AngularGrid ... 3 (Lebedev-194)
Angular grid pruning method      GridPruning ... 4 (adaptive)
Weight generation scheme         WeightScheme... Becke
Basis function cutoff            BFCut       ... 1.0000e-11
Integration weight cutoff        WCut        ... 1.0000e-14
Angular grids for H and He will be reduced by one unit
Partially contracted basis set               ... on
Rotationally invariant grid construction     ... off

Total number of grid points                  ...   109208
Total number of batches                      ...     1724
Average number of points per batch           ...       63
Average number of grid points per atom       ...     3212
UseSFitting                                  ... on

Time for X-Grid setup             =    9.360 sec


--------------------
CPCM SOLVATION MODEL
--------------------
CPCM parameters:
  Epsilon                                         ...       8.9300
  Refrac                                          ...       1.4242
  Rsolv                                           ...       1.3000
  Surface type                                    ... GAUSSIAN VDW
  Epsilon function type                           ...         CPCM
Solvent:                                     ... DICHLOROMETHANE
SMD-CDS solvent descriptors:
  Soln                                       ...    1.4242
  Soln25                                     ...    1.4212
  Sola                                       ...    0.1000
  Solb                                       ...    0.0500
  Solg                                       ...   39.1500
  Solc                                       ...    0.0000
  Solh                                       ...    0.6670
Radii:
 Radius for C  used is    3.4960 Bohr (=   1.8500 Ang.)
 Radius for S  used is    4.7054 Bohr (=   2.4900 Ang.)
 Radius for O  used is    3.9949 Bohr (=   2.1140 Ang.)
 Radius for H  used is    2.2677 Bohr (=   1.2000 Ang.)
Calculating surface                               ...        done! (  0.0s)
GEPOL surface points                              ...         1948
GEPOL Volume                                      ...    2006.9602
GEPOL Surface-area                                ...    1078.5538
Calculating surface distance matrix               ...        done! (  0.1s)
Performing Cholesky decomposition & store         ...        done! (  0.2s)
Overall time for CPCM initialization              ...                 0.3s
 re-compute Schwartz prescreening matrix in partically contracted basis (1) ...done (   0.269 sec)
--------------
SCF ITERATIONS
--------------
ITER       Energy         Delta-E        Max-DP      RMS-DP      [F,P]     Damp
               ***  Starting incremental Fock matrix formation  ***
  0  -1203.7179277231   0.000000000000 0.64852421  0.00358215  0.3426809 0.7000
  1  -1204.0256946684  -0.307766945321 0.55829146  0.00238117  0.1248496 0.7000
                               ***Turning on DIIS***
  2  -1204.1415140295  -0.115819361027 1.85862823  0.00515719  0.0409005 0.0000
  3  -1204.3388609728  -0.197346943331 0.27910085  0.00137656  0.0551417 0.0000
  4  -1204.3736913536  -0.034830380841 0.12892005  0.00054469  0.0201235 0.0000
  5  -1204.3767454147  -0.003054061100 0.14111353  0.00029327  0.0080527 0.0000
                      *** Initiating the SOSCF procedure ***
                           *** Shutting down DIIS ***
                      *** Re-Reading the Fockian *** 
                      *** Removing any level shift *** 
ITER      Energy       Delta-E        Grad      Rot      Max-DP    RMS-DP
  6  -1204.37690845  -0.0001630386  0.000341  0.000341  0.017646  0.000092
               *** Restarting incremental Fock matrix formation ***
  7  -1204.37690681   0.0000016432  0.000214  0.000976  0.190179  0.000681
  8  -1204.37690818  -0.0000013662  0.000193  0.000618  0.059959  0.000205
  9  -1204.37690974  -0.0000015680  0.000062  0.000208  0.287211  0.000515
 10  -1204.37690990  -0.0000001565  0.000019  0.000043  0.027682  0.000177
 11  -1204.37690991  -0.0000000113  0.000011  0.000034  0.135223  0.000273
 12  -1204.37690996  -0.0000000439  0.000006  0.000011  0.258395  0.000497
 13  -1204.37690994   0.0000000139  0.000004  0.000016  0.356367  0.000547
 14  -1204.37690991   0.0000000317  0.000003  0.000012  0.304266  0.000569
 15  -1204.37690988   0.0000000344  0.000004  0.000005  0.078625  0.000357
 16  -1204.37690989  -0.0000000141  0.000003  0.000014  0.134301  0.000301
 17  -1204.37690992  -0.0000000328  0.000004  0.000007  0.225944  0.000531
 18  -1204.37690995  -0.0000000273  0.000004  0.000006  0.392953  0.000683
 19  -1204.37690997  -0.0000000180  0.000005  0.000014  0.239799  0.000479

 WARNING: the maximum gradient error descreased on average only by a factor   1.1
          during the last 20 iterations

                      *** Initiating the TRAH-SCF procedure ***

              ***Rediagonalizing the Fockian in SOSCF/NRSCF***

TRAH GRIDX
----------

General Integration Accuracy     IntAcc      ... 3.067
Radial Grid Type                 RadialGrid  ... OptM3 with GC (2021)
Angular Grid (max. ang.)         AngularGrid ... 1 (Lebedev-50)
Angular grid pruning method      GridPruning ... 4 (adaptive)
Weight generation scheme         WeightScheme... Becke
Basis function cutoff            BFCut       ... 1.0000e-11
Integration weight cutoff        WCut        ... 1.0000e-14
Angular grids for H and He will be reduced by one unit
Partially contracted basis set               ... on
Rotationally invariant grid construction     ... off

Total number of grid points                  ...    11483
Total number of batches                      ...      198
Average number of points per batch           ...       57
Average number of grid points per atom       ...      338


TRAH GRID
---------

General Integration Accuracy     IntAcc      ... 3.467
Radial Grid Type                 RadialGrid  ... OptM3 with GC (2021)
Angular Grid (max. ang.)         AngularGrid ... 1 (Lebedev-50)
Angular grid pruning method      GridPruning ... 4 (adaptive)
Weight generation scheme         WeightScheme... Becke
Basis function cutoff            BFCut       ... 1.0000e-11
Integration weight cutoff        WCut        ... 1.0000e-14
Angular grids for H and He will be reduced by one unit
Partially contracted basis set               ... off
Rotationally invariant grid construction     ... off

Total number of grid points                  ...    25089
Total number of batches                      ...      410
Average number of points per batch           ...       61
Average number of grid points per atom       ...      738

 --------------------------------------------------------------------------------------------
   Iter.        energy            ||Error||_2        Shift      TRadius  Mac/Mic        Rej.
 --------------------------------------------------------------------------------------------
    0      -1204.376909955658     7.548457e-04                     0.400 (TRAH MAcro)   No
    0     dE    -2.287875e-08     1.048865e-03    -4.5763e-08      0.000 (TRAH MIcro)
    0     dE    -4.834129e-08     5.130960e-05    -9.6684e-08      0.000 (TRAH MIcro)
    0     dE    -4.848765e-08     1.651542e-05    -9.6977e-08      0.000 (TRAH MIcro)
    0     dE    -4.849588e-08     5.264660e-06    -9.6993e-08      0.000 (TRAH MIcro)
    1      -1204.376910006922     5.987156e-06                           (NR   MAcro)
    1     dE    -1.187656e-12     1.778950e-06                           (NR   MIcro)
    1     dE    -1.362103e-12     5.628694e-07                           (NR   MIcro)
    2      -1204.376910006707     5.647413e-07                           (NR   MAcro)

               *****************************************************
               *                     SUCCESS                       *
               *           SCF CONVERGED AFTER  29 CYCLES          *
               *****************************************************

Old exchange energy                            =    -29.400176567 Eh
New exchange energy                            =    -29.400165891 Eh
Exchange energy change after final integration =      0.000010677 Eh
Total energy after final integration           =  -1204.376899330 Eh
Final COS-X integration done in                =   173.472 sec

SMD CDS free energy correction energy :                -6.11390     Kcal/mol
Total Energy after SMD CDS correction =             -1204.386642447 Eh

----------------
TOTAL SCF ENERGY
----------------

Total Energy       :        -1204.38664245 Eh          -32773.02669 eV

Components:
Nuclear Repulsion  :         1686.48170260 Eh           45891.50021 eV
Electronic Energy  :        -2890.86834505 Eh          -78664.52690 eV
One Electron Energy:        -4994.52121729 Eh         -135907.83174 eV
Two Electron Energy:         2103.65287224 Eh           57243.30485 eV
Max COSX asymmetry :            0.00007917 Eh               0.00215 eV
CPCM Dielectric    :           -0.02239192 Eh              -0.60931 eV
SMD CDS (Gcds)     :           -0.00974312 Eh              -0.26512 eV

Virial components:
Potential Energy   :        -2403.63980836 Eh          -65406.36438 eV
Kinetic Energy     :         1199.25316591 Eh           32633.33769 eV
Virial Ratio       :            2.00428056


DFT components:
N(Alpha)           :       74.000103795615 electrons
N(Beta)            :       74.000103795615 electrons
N(Total)           :      148.000207591231 electrons
E(X)               :     -104.770449967245 Eh       
E(C)               :       -5.796541342745 Eh       
E(XC)              :     -110.566991309990 Eh       
DFET-embed. en.    :        0.000000000000 Eh       
CPCM Solvation Model Properties:
Surface-charge          :           -0.05536559
Charge-correction       :            0.00026136 Eh               0.00711 eV
Free-energy (cav+disp)  :           -0.00974312 Eh              -0.26512 eV

---------------
SCF CONVERGENCE
---------------

  Last Energy change         ...    2.1532e-10  Tolerance :   1.0000e-08
  Last Orbital Gradient      ...    5.6474e-07  Tolerance :   1.0000e-05
  Last Orbital Rotation      ...    8.1562e-07

             **** THE GBW FILE WAS UPDATED (x3lyp-train-3.gbw) ****
             **** DENSITY x3lyp-train-3.scfp WAS UPDATED ****
             **** ENERGY FILE WAS UPDATED (x3lyp-train-3.en.tmp) ****
             **** THE GBW FILE WAS UPDATED (x3lyp-train-3.gbw) ****
             **** DENSITY x3lyp-train-3.scfp WAS UPDATED ****
----------------
ORBITAL ENERGIES
----------------

  NO   OCC          E(Eh)            E(eV) 
   0   2.0000     -89.160766     -2426.1878 
   1   2.0000     -19.160477      -521.3831 
   2   2.0000     -19.160443      -521.3822 
   3   2.0000     -10.234249      -278.4881 
   4   2.0000     -10.230647      -278.3901 
   5   2.0000     -10.229328      -278.3542 
   6   2.0000     -10.226940      -278.2892 
   7   2.0000     -10.225633      -278.2536 
   8   2.0000     -10.218984      -278.0727 
   9   2.0000     -10.216198      -277.9969 
  10   2.0000     -10.211724      -277.8751 
  11   2.0000     -10.210220      -277.8342 
  12   2.0000     -10.209582      -277.8168 
  13   2.0000     -10.206023      -277.7200 
  14   2.0000     -10.200027      -277.5568 
  15   2.0000     -10.198487      -277.5149 
  16   2.0000     -10.197423      -277.4860 
  17   2.0000     -10.196559      -277.4625 
  18   2.0000     -10.184735      -277.1407 
  19   2.0000     -10.184719      -277.1403 
  20   2.0000      -8.140317      -221.5093 
  21   2.0000      -6.097519      -165.9219 
  22   2.0000      -6.097190      -165.9130 
  23   2.0000      -6.097158      -165.9121 
  24   2.0000      -1.133053       -30.8319 
  25   2.0000      -1.024553       -27.8795 
  26   2.0000      -0.923238       -25.1226 
  27   2.0000      -0.889997       -24.2180 
  28   2.0000      -0.848535       -23.0898 
  29   2.0000      -0.817785       -22.2531 
  30   2.0000      -0.785216       -21.3668 
  31   2.0000      -0.779202       -21.2032 
  32   2.0000      -0.749551       -20.3963 
  33   2.0000      -0.728114       -19.8130 
[...]
  Split-RI-J                ....      21.975 sec  (  5.7% of F)
  Chain of spheres X        ....     333.367 sec  ( 86.2% of F)
  XC integration            ....      19.387 sec  (  5.0% of F)
    Basis function eval.    ....       2.734 sec  ( 14.1% of XC)
    Density eval.           ....       8.920 sec  ( 46.0% of XC)
    XC-Functional eval.     ....       0.202 sec  (  1.0% of XC)
    XC-Potential eval.      ....       6.900 sec  ( 35.6% of XC)
Diagonalization             ....       0.603 sec  (  0.1%)
Density matrix formation    ....       0.079 sec  (  0.0%)
Population analysis         ....       0.674 sec  (  0.2%)
Initial guess               ....       1.234 sec  (  0.3%)
Orbital Transformation      ....       0.000 sec  (  0.0%)
Orbital Orthonormalization  ....       1.151 sec  (  0.3%)
DIIS solution               ....       0.260 sec  (  0.1%)
SOSCF solution              ....       0.850 sec  (  0.2%)
Grid generation             ....      12.635 sec  (  3.1%)

Maximum memory used throughout the entire SCF-calculation: 338.0 MB


           ************************************************************
           *        Program running with 4 parallel MPI-processes     *
           *              working on a common directory               *
           ************************************************************
------------------------------------------------------------------------------
                        ORCA TD-DFT/TDA CALCULATION
------------------------------------------------------------------------------

Input orbitals are from        ... x3lyp-train-3_job2.gbw
CI-vector output               ... x3lyp-train-3_job2.cis
Tamm-Dancoff approximation     ... operative
CIS-Integral strategy          ... AO-integrals
Integral handling              ... AO integral Direct
Max. core memory used          ... 4000 MB
Reference state                ... RHF
Generation of triplets         ... off
Follow IRoot                   ... off
Number of operators            ... 1
Orbital ranges used for CIS calculation:
 Operator 0:  Orbitals  24... 73  to  74...1119
XAS localization array:
 Operator 0:  Orbitals  -1... -1

-------------------
XC-INTEGRATION GRID
-------------------

General Integration Accuracy     IntAcc      ... 3.467
Radial Grid Type                 RadialGrid  ... OptM3 with GC (2021)
Angular Grid (max. ang.)         AngularGrid ... 1 (Lebedev-50)
Angular grid pruning method      GridPruning ... 4 (adaptive)
Weight generation scheme         WeightScheme... Becke
Basis function cutoff            BFCut       ... 1.0000e-11
Integration weight cutoff        WCut        ... 1.0000e-14
Angular grids for H and He will be reduced by one unit
Partially contracted basis set               ... off
Rotationally invariant grid construction     ... off

Total number of grid points                  ...    25113
Total number of batches                      ...      412
Average number of points per batch           ...       60
Average number of grid points per atom       ...      739

---------------------
COSX-INTEGRATION GRID
---------------------

General Integration Accuracy     IntAcc      ... 3.067
Radial Grid Type                 RadialGrid  ... OptM3 with GC (2021)
Angular Grid (max. ang.)         AngularGrid ... 1 (Lebedev-50)
Angular grid pruning method      GridPruning ... 4 (adaptive)
Weight generation scheme         WeightScheme... Becke
Basis function cutoff            BFCut       ... 1.0000e-11
Integration weight cutoff        WCut        ... 1.0000e-14
Angular grids for H and He will be reduced by one unit
Partially contracted basis set               ... on
Rotationally invariant grid construction     ... off

Total number of grid points                  ...    11482
Total number of batches                      ...      198
Average number of points per batch           ...       57
Average number of grid points per atom       ...      338

---------------
TD-DFT XC SETUP
---------------

DFT calculation                         ... on
Name of the grid file                   ... x3lyp-train-3_job2.grid_cis.tmp
Exchange functional (TD-DFT)            ... X
Correlation functional (TD-DFT)         ... LYP
 LDA part of GGA corr.  LDAOpt (TD-DFT) ... VWN-5
Hybrid DFT                              ... on
   Exchange mixing (TD-DFT)             ...  0.218
   GGA exch. scaling (TD-DFT)           ...  0.709
   GGA corr. scaling (TD-DFT)           ...  0.871

Building densities             ... done
Calculating rho(r) on the grid ... done
Building xc-kernel on the grid ... done
                    *** TD-DFT CALCULATION INITIALIZED ***

---------------------------------
    LR-CPCM (non-equilibrium)
---------------------------------

Setting up LR-CPCM             ... done

------------------------
DAVIDSON-DIAGONALIZATION
------------------------

Dimension of the eigenvalue problem            ...  52300
Number of roots to be determined               ...     10
Maximum size of the expansion space            ...     70
Maximum number of iterations                   ...    100
Convergence tolerance for the residual         ...    1.000e-06
Convergence tolerance for the energies         ...    1.000e-06
Orthogonality tolerance                        ...    1.000e-14
Level Shift                                    ...    0.000e+00
Constructing the preconditioner                ... o.k.
Building the initial guess                     ... o.k.
Number of trial vectors determined             ...     70


                       ****Iteration    0****

   Memory handling for direct AO based CIS:
   Memory per vector needed      ...    57 MB
   Memory needed                 ...  1722 MB
   Memory available              ...  4000 MB
   Number of vectors per batch   ...    69
   Number of batches             ...     1
   Time for densities:            0.861
   Time for RI-J (Direct):       27.488
   Time for K (COSX):           159.743
   Time for XC-Integration:      75.143
   Time for LR-CPCM terms:       30.154
   Time for Sigma-Completion:     0.682
   Size of expansion space: 30
   Lowest Energy          :     0.140105113374
   Maximum Energy change  :     0.208205353570 (vector 9)
   Maximum residual norm  :     0.012825003633

                       ****Iteration    1****
   Time for densities:            0.310
   Time for RI-J (Direct):       16.493
   Time for K (COSX):            62.161
   Time for XC-Integration:      28.388
   Time for LR-CPCM terms:       14.503
   Time for Sigma-Completion:     0.236
   Size of expansion space: 40
   Lowest Energy          :     0.126987007124
   Maximum Energy change  :     0.013118106250 (vector 0)
   Maximum residual norm  :     0.000578690283

                       ****Iteration    2****
   Time for densities:            0.284
   Time for RI-J (Direct):       16.806
   Time for K (COSX):            63.413
   Time for XC-Integration:      29.070
   Time for LR-CPCM terms:       14.694
   Time for Sigma-Completion:     0.237
   Size of expansion space: 50
   Lowest Energy          :     0.126711261859
   Maximum Energy change  :     0.002348489543 (vector 8)
   Maximum residual norm  :     0.001293968541

                       ****Iteration    3****
   Time for densities:            0.292
   Time for RI-J (Direct):       16.830
   Time for K (COSX):            63.575
   Time for XC-Integration:      29.290
   Time for LR-CPCM terms:       14.424
   Time for Sigma-Completion:     0.242
   Size of expansion space: 60
   Lowest Energy          :     0.126691098444
   Maximum Energy change  :     0.002683851880 (vector 8)
   Maximum residual norm  :     0.000131235077

                       ****Iteration    4****
   Time for densities:            0.325
   Time for RI-J (Direct):       16.559
   Time for K (COSX):            62.539
   Time for XC-Integration:      28.881
   Time for LR-CPCM terms:       14.353
   Time for Sigma-Completion:     0.217
   Size of expansion space: 70
   Lowest Energy          :     0.126690265182
   Maximum Energy change  :     0.000213760678 (vector 8)
   Maximum residual norm  :     0.000007361961
   Rebuilding the expansion space

                       ****Iteration    5****
   Time for densities:            0.620
   Time for RI-J (Direct):       22.097
   Time for K (COSX):           116.019
   Time for XC-Integration:      55.747
   Time for LR-CPCM terms:       22.605
   Time for Sigma-Completion:     0.535
   Size of expansion space: 20
   Lowest Energy          :     0.126689718325
   Maximum Energy change  :     0.000012627506 (vector 8)
   Maximum residual norm  :     0.000000865043

      *** CONVERGENCE OF RESIDUAL NORM REACHED ***

Storing the converged CI vectors               ... x3lyp-train-3_job2.cis1

                 *** DAVIDSON DONE ***

Total time for solving the CIS problem:  1008.411sec

------------------------------------
TD-DFT/TDA EXCITED STATES (SINGLETS)
------------------------------------

the weight of the individual excitations are printed if larger than 1.0e-02

STATE  1:  E=   0.126690 au      3.447 eV    27805.2 cm**-1 <S**2> =   0.000000
    73a ->  74a  :     0.954119 (c=  0.97679022)
    73a ->  75a  :     0.019250 (c=  0.13874583)

STATE  2:  E=   0.155861 au      4.241 eV    34207.6 cm**-1 <S**2> =   0.000000
    71a ->  74a  :     0.017312 (c= -0.13157405)
    72a ->  74a  :     0.797071 (c= -0.89278857)
    73a ->  75a  :     0.089705 (c=  0.29950838)
    73a ->  76a  :     0.077042 (c=  0.27756507)

STATE  3:  E=   0.158740 au      4.320 eV    34839.5 cm**-1 <S**2> =   0.000000
    71a ->  74a  :     0.266692 (c=  0.51642197)
    72a ->  74a  :     0.091063 (c= -0.30176643)
    73a ->  74a  :     0.011716 (c=  0.10823951)
    73a ->  75a  :     0.583387 (c= -0.76379790)
    73a ->  76a  :     0.014502 (c=  0.12042575)

STATE  4:  E=   0.179183 au      4.876 eV    39326.1 cm**-1 <S**2> =   0.000000
    70a ->  75a  :     0.025634 (c= -0.16010772)
    71a ->  74a  :     0.619006 (c=  0.78676933)
    73a ->  75a  :     0.260479 (c=  0.51037161)

STATE  5:  E=   0.181320 au      4.934 eV    39795.2 cm**-1 <S**2> =   0.000000
    70a ->  74a  :     0.760224 (c=  0.87190803)
    71a ->  75a  :     0.011105 (c=  0.10537960)
    73a ->  75a  :     0.011309 (c= -0.10634318)
    73a ->  78a  :     0.176344 (c= -0.41993364)

STATE  6:  E=   0.182562 au      4.968 eV    40067.8 cm**-1 <S**2> =   0.000000
    69a ->  74a  :     0.760616 (c= -0.87213306)
    72a ->  74a  :     0.018583 (c= -0.13631976)
    72a ->  75a  :     0.017928 (c= -0.13389409)
    72a ->  78a  :     0.011432 (c= -0.10692114)
    73a ->  76a  :     0.167722 (c= -0.40953921)

STATE  7:  E=   0.182621 au      4.969 eV    40080.6 cm**-1 <S**2> =   0.000000
    69a ->  74a  :     0.222322 (c= -0.47151048)
    70a ->  74a  :     0.013136 (c=  0.11461378)
    72a ->  74a  :     0.061966 (c=  0.24893064)
    72a ->  75a  :     0.058584 (c=  0.24204110)
    72a ->  78a  :     0.037977 (c=  0.19487578)
    73a ->  76a  :     0.564618 (c=  0.75141049)

STATE  8:  E=   0.191266 au      5.205 eV    41978.0 cm**-1 <S**2> =   0.000000
    73a ->  77a  :     0.956770 (c= -0.97814633)
    73a ->  80a  :     0.013792 (c=  0.11744030)

STATE  9:  E=   0.200324 au      5.451 eV    43966.1 cm**-1 <S**2> =   0.000000
    68a ->  74a  :     0.180314 (c= -0.42463381)
    70a ->  74a  :     0.087843 (c= -0.29638331)
    70a ->  75a  :     0.023563 (c= -0.15350311)
    71a ->  75a  :     0.045043 (c= -0.21223435)
    72a ->  76a  :     0.039225 (c=  0.19805399)
    73a ->  78a  :     0.560854 (c= -0.74890203)

STATE 10:  E=   0.205094 au      5.581 eV    45012.9 cm**-1 <S**2> =   0.000000
    68a ->  74a  :     0.080311 (c=  0.28339243)
    70a ->  76a  :     0.013486 (c= -0.11613134)
    72a ->  75a  :     0.755622 (c=  0.86926501)
    73a ->  76a  :     0.049236 (c= -0.22189145)
    73a ->  78a  :     0.033912 (c= -0.18415200)
    73a ->  84a  :     0.030485 (c=  0.17459888)


-----------------------------
TD-DFT/TDA-EXCITATION SPECTRA
-----------------------------

Center of mass = (  0.5607,  0.9235, -0.7521)
Calculating the Dipole integrals                  ... done
Transforming integrals                            ... done
Calculating the Linear Momentum integrals         ... done
Transforming integrals                            ... done
Calculating angular momentum integrals            ... done
Transforming integrals                            ... done

-----------------------------------------------------------------------------
         ABSORPTION SPECTRUM VIA TRANSITION ELECTRIC DIPOLE MOMENTS
-----------------------------------------------------------------------------
State   Energy    Wavelength  fosc         T2        TX        TY        TZ  
        (cm-1)      (nm)                 (au**2)    (au)      (au)      (au) 
-----------------------------------------------------------------------------
   1   27805.2    359.6   0.431549617   5.10953   2.18456  -0.21282   0.54029
   2   34207.6    292.3   0.019480204   0.18748  -0.32815  -0.23427   0.15783
   3   34839.5    287.0   0.134978832   1.27547   1.05946  -0.19441   0.33944
   4   39326.1    254.3   0.540774053   4.52700  -1.75457   0.73938  -0.94962
   5   39795.2    251.3   0.027428512   0.22691   0.44741  -0.07358   0.14599
   6   40067.8    249.6   0.006020130   0.04946   0.07071  -0.18527   0.10070
   7   40080.6    249.5   0.017137282   0.14076  -0.06155   0.24838  -0.27437
   8   41978.0    238.2   0.000941761   0.00739  -0.02439   0.05667   0.05983
   9   43966.1    227.4   0.043041433   0.32229   0.42280   0.30588  -0.22353
  10   45012.9    222.2   0.077242922   0.56493   0.27062  -0.50005   0.49157

-----------------------------------------------------------------------------
         ABSORPTION SPECTRUM VIA TRANSITION VELOCITY DIPOLE MOMENTS
-----------------------------------------------------------------------------
State   Energy    Wavelength   fosc        P2         PX        PY        PZ  
        (cm-1)      (nm)                 (au**2)     (au)      (au)      (au) 
-----------------------------------------------------------------------------
   1   27805.2    359.6   0.036903821   0.00701  -0.08301  -0.00175  -0.01093
   2   34207.6    292.3   0.003222182   0.00075   0.02704   0.00471   0.00032
   3   34839.5    287.0   0.037007987   0.00881  -0.09290  -0.00084  -0.01342
   4   39326.1    254.3   0.180485014   0.04851   0.21331  -0.01889   0.05150
   5   39795.2    251.3   0.005237479   0.00142  -0.03568   0.00541  -0.01105
   6   40067.8    249.6   0.000961911   0.00026  -0.01406   0.00808  -0.00070
   7   40080.6    249.5   0.002019636   0.00055   0.01996  -0.00461   0.01155
   8   41978.0    238.2   0.000363359   0.00010   0.00279  -0.00681  -0.00708
   9   43966.1    227.4   0.014022363   0.00421  -0.06307  -0.01395   0.00637
  10   45012.9    222.2   0.013212022   0.00406  -0.05026   0.02574  -0.02960

-------------------------------------------------------------------
                             CD SPECTRUM
-------------------------------------------------------------------
State  Energy     Wavelength     R         MX        MY        MZ   
       (cm-1)       (nm)     (1e40*cgs)   (au)      (au)      (au)  
-------------------------------------------------------------------
   1   27805.2    359.6     -3.55731  -0.03289   0.16648   0.18459
   2   34207.6    292.3     -0.22586  -0.01487   0.09055   0.10045
   3   34839.5    287.0      0.06360   0.01371  -0.08175  -0.08923
   4   39326.1    254.3      2.90051  -0.06294   0.35607   0.38705
   5   39795.2    251.3      0.44819  -0.03397   0.17844   0.20055
   6   40067.8    249.6    -10.21479   0.00818   0.18648   0.12217
   7   40080.6    249.5      9.74273   0.05939  -0.22227  -0.28985
   8   41978.0    238.2      0.37228  -0.02279   0.03209  -0.02649
   9   43966.1    227.4      0.63274   0.03445  -0.20651  -0.22342
  10   45012.9    222.2      3.65815  -0.01710   0.09693   0.12380

-------------------------------------------------------------------
         CD SPECTRUM VIA TRANSITION VELOCITY DIPOLE MOMENTS        
-------------------------------------------------------------------
State  Energy     Wavelength     R         MX        MY        MZ   
       (cm-1)       (nm)     (1e40*cgs)   (au)      (au)      (au)  
-------------------------------------------------------------------
   1   27805.2    359.6      1.56286  -0.03289   0.16648   0.18459
   2   34207.6    292.3      0.17098  -0.01487   0.09055   0.10045
   3   34839.5    287.0     -0.02210   0.01371  -0.08175  -0.08923
   4   39326.1    254.3     -0.57761  -0.06294   0.35607   0.38705
   5   39795.2    251.3     -0.09904  -0.03397   0.17844   0.20055
   6   40067.8    249.6      3.37084   0.00818   0.18648   0.12217
   7   40080.6    249.5     -2.93426   0.05939  -0.22227  -0.28985
   8   41978.0    238.2     -0.23274  -0.02279   0.03209  -0.02649
   9   43966.1    227.4     -1.68446   0.03445  -0.20651  -0.22342
  10   45012.9    222.2     -0.71462  -0.01710   0.09693   0.12380

Total run time:     1016.999 sec

           *** ORCA-CIS/TD-DFT FINISHED WITHOUT ERROR ***

Maximum memory used throughout the entire CIS-calculation: 1634.7 MB

-----------------------
CIS/TD-DFT TOTAL ENERGY
-----------------------

    E(SCF)  =  -1204.389567654 Eh
    DE(CIS) =      0.126689718 Eh (Root  1)
    ----------------------------- ---------
    E(tot)  =  -1204.262877935 Eh


-------------------------   --------------------
FINAL SINGLE POINT ENERGY     -1204.262877935189
-------------------------   --------------------


                            ***************************************
                            *     ORCA property calculations      *
                            ***************************************

                                    ---------------------
                                    Active property flags
                                    ---------------------
   (+) Dipole Moment


------------------------------------------------------------------------------
                       ORCA ELECTRIC PROPERTIES CALCULATION
------------------------------------------------------------------------------

Dipole Moment Calculation                       ... on
Quadrupole Moment Calculation                   ... off
Polarizability Calculation                      ... off
GBWName                                         ... x3lyp-train-3_job2.gbw
Electron density                                ... x3lyp-train-3_job2.scfp
The origin for moment calculation is the CENTER OF MASS  = ( 0.560688,  0.923468 -0.752072)

-------------
DIPOLE MOMENT
-------------
                                X             Y             Z
Electronic contribution:      7.57052      10.98604      -8.75310
Nuclear contribution   :     -7.75664     -13.49382      11.03364
                        -----------------------------------------
Total Dipole Moment    :     -0.18612      -2.50778       2.28054
                        -----------------------------------------
Magnitude (a.u.)       :      3.39476
Magnitude (Debye)      :      8.62881



--------------------
Rotational spectrum 
--------------------
 
Rotational constants in cm-1:     0.019335     0.009110     0.006706 
Rotational constants in MHz :   579.637932   273.099168   201.033838 

 Dipole components along the rotational axes: 
x,y,z [a.u.] :     0.037348    -3.394473     0.024180 
x,y,z [Debye]:     0.094932    -8.628065     0.061461 

 

Timings for individual modules:

Sum of individual times         ...     1434.576 sec (=  23.910 min)
GTO integral calculation        ...        5.526 sec (=   0.092 min)   0.4 %
SCF iterations                  ...      411.226 sec (=   6.854 min)  28.7 %
CIS module                      ...     1017.825 sec (=  16.964 min)  70.9 %



                             ****ORCA TERMINATED NORMALLY****
TOTAL RUN TIME: 0 days 4 hours 4 minutes 6 seconds 987 msec
