
                                 *****************
                                 * O   R   C   A *
                                 *****************

                                            #,                                       
                                            ###                                      
                                            ####                                     
                                            #####                                    
                                            ######                                   
                                           ########,                                 
                                     ,,################,,,,,                         
                               ,,#################################,,                 
                          ,,##########################################,,             
                       ,#########################################, ''#####,          
                    ,#############################################,,   '####,        
                  ,##################################################,,,,####,       
                ,###########''''           ''''###############################       
              ,#####''   ,,,,##########,,,,          '''####'''          '####       
            ,##' ,,,,###########################,,,                        '##       
           ' ,,###''''                  '''############,,,                           
         ,,##''                                '''############,,,,        ,,,,,,###''
      ,#''                                            '''#######################'''  
     '                                                          ''''####''''         
             ,#######,   #######,   ,#######,      ##                                
            ,#'     '#,  ##    ##  ,#'     '#,    #''#        ######   ,####,        
            ##       ##  ##   ,#'  ##            #'  '#       #        #'  '#        
            ##       ##  #######   ##           ,######,      #####,   #    #        
            '#,     ,#'  ##    ##  '#,     ,#' ,#      #,         ##   #,  ,#        
             '#######'   ##     ##  '#######'  #'      '#     #####' # '####'        



                  #######################################################
                  #                        -***-                        #
                  #          Department of theory and spectroscopy      #
                  #    Directorship and core code : Frank Neese         #
                  #        Max Planck Institute fuer Kohlenforschung    #
                  #                Kaiser Wilhelm Platz 1               #
                  #                 D-45470 Muelheim/Ruhr               #
                  #                      Germany                        #
                  #                                                     #
                  #                  All rights reserved                #
                  #                        -***-                        #
                  #######################################################


                         Program Version 5.0.2 -  RELEASE  -


 With contributions from (in alphabetic order):
   Daniel Aravena         : Magnetic Suceptibility
   Michael Atanasov       : Ab Initio Ligand Field Theory (pilot matlab implementation)
   Alexander A. Auer      : GIAO ZORA, VPT2 properties, NMR spectrum
   Ute Becker             : Parallelization
   Giovanni Bistoni       : ED, misc. LED, open-shell LED, HFLD
   Martin Brehm           : Molecular dynamics
   Dmytro Bykov           : SCF Hessian
   Vijay G. Chilkuri      : MRCI spin determinant printing, contributions to CSF-ICE
   Dipayan Datta          : RHF DLPNO-CCSD density
   Achintya Kumar Dutta   : EOM-CC, STEOM-CC
   Dmitry Ganyushin       : Spin-Orbit,Spin-Spin,Magnetic field MRCI
   Miquel Garcia          : C-PCM and meta-GGA Hessian, CC/C-PCM, Gaussian charge scheme
   Yang Guo               : DLPNO-NEVPT2, F12-NEVPT2, CIM, IAO-localization
   Andreas Hansen         : Spin unrestricted coupled pair/coupled cluster methods
   Benjamin Helmich-Paris : MC-RPA, TRAH-SCF, COSX integrals
   Lee Huntington         : MR-EOM, pCC
   Robert Izsak           : Overlap fitted RIJCOSX, COSX-SCS-MP3, EOM
   Marcus Kettner         : VPT2
   Christian Kollmar      : KDIIS, OOCD, Brueckner-CCSD(T), CCSD density, CASPT2, CASPT2-K
   Simone Kossmann        : Meta GGA functionals, TD-DFT gradient, OOMP2, MP2 Hessian
   Martin Krupicka        : Initial AUTO-CI
   Lucas Lang             : DCDCAS
   Marvin Lechner         : AUTO-CI (C++ implementation), FIC-MRCC
   Dagmar Lenk            : GEPOL surface, SMD
   Dimitrios Liakos       : Extrapolation schemes; Compound Job, initial MDCI parallelization
   Dimitrios Manganas     : Further ROCIS development; embedding schemes
   Dimitrios Pantazis     : SARC Basis sets
   Anastasios Papadopoulos: AUTO-CI, single reference methods and gradients
   Taras Petrenko         : DFT Hessian,TD-DFT gradient, ASA, ECA, R-Raman, ABS, FL, XAS/XES, NRVS
   Peter Pinski           : DLPNO-MP2, DLPNO-MP2 Gradient
   Christoph Reimann      : Effective Core Potentials
   Marius Retegan         : Local ZFS, SOC
   Christoph Riplinger    : Optimizer, TS searches, QM/MM, DLPNO-CCSD(T), (RO)-DLPNO pert. Triples
   Tobias Risthaus        : Range-separated hybrids, TD-DFT gradient, RPA, STAB
   Michael Roemelt        : Original ROCIS implementation
   Masaaki Saitow         : Open-shell DLPNO-CCSD energy and density
   Barbara Sandhoefer     : DKH picture change effects
   Avijit Sen             : IP-ROCIS
   Kantharuban Sivalingam : CASSCF convergence, NEVPT2, FIC-MRCI
   Bernardo de Souza      : ESD, SOC TD-DFT
   Georgi Stoychev        : AutoAux, RI-MP2 NMR, DLPNO-MP2 response
   Willem Van den Heuvel  : Paramagnetic NMR
   Boris Wezisla          : Elementary symmetry handling
   Frank Wennmohs         : Technical directorship


 We gratefully acknowledge several colleagues who have allowed us to
 interface, adapt or use parts of their codes:
   Stefan Grimme, W. Hujo, H. Kruse, P. Pracht,  : VdW corrections, initial TS optimization,
                  C. Bannwarth, S. Ehlert          DFT functionals, gCP, sTDA/sTD-DF
   Ed Valeev, F. Pavosevic, A. Kumar             : LibInt (2-el integral package), F12 methods
   Garnet Chan, S. Sharma, J. Yang, R. Olivares  : DMRG
   Ulf Ekstrom                                   : XCFun DFT Library
   Mihaly Kallay                                 : mrcc  (arbitrary order and MRCC methods)
   Jiri Pittner, Ondrej Demel                    : Mk-CCSD
   Frank Weinhold                                : gennbo (NPA and NBO analysis)
   Christopher J. Cramer and Donald G. Truhlar   : smd solvation model
   Lars Goerigk                                  : TD-DFT with DH, B97 family of functionals
   V. Asgeirsson, H. Jonsson                     : NEB implementation
   FAccTs GmbH                                   : IRC, NEB, NEB-TS, DLPNO-Multilevel, CI-OPT
                                                   MM, QMMM, 2- and 3-layer-ONIOM, Crystal-QMMM,
                                                   LR-CPCM, SF, NACMEs, symmetry and pop. for TD-DFT,
                                                   nearIR, NL-DFT gradient (VV10), updates on ESD,
                                                   ML-optimized integration grids
   S Lehtola, MJT Oliveira, MAL Marques          : LibXC Library
   Liviu Ungur et al                             : ANISO software


 Your calculation uses the libint2 library for the computation of 2-el integrals
 For citations please refer to: http://libint.valeyev.net

 Your ORCA version has been built with support for libXC version: 5.1.0
 For citations please refer to: https://tddft.org/programs/libxc/

 This ORCA versions uses:
   CBLAS   interface :  Fast vector & matrix operations
   LAPACKE interface :  Fast linear algebra routines
   SCALAPACK package :  Parallel linear algebra routines
   Shared memory     :  Shared parallel matrices
   BLAS/LAPACK       :  OpenBLAS 0.3.15  USE64BITINT DYNAMIC_ARCH NO_AFFINITY Haswell SINGLE_THREADED
        Core in use  :  Haswell
   Copyright (c) 2011-2014, The OpenBLAS Project


Your calculation utilizes the SMD solvation module
Please cite in your paper:
A.V. Marenich, C.J. Cramer, D.G. Truhlar J. Phys. Chem. B, 113, (2009), 6378 

================================================================================

----- Orbital basis set information -----
Your calculation utilizes the basis: aug-cc-pVTZ 
    H, B-Ne : Obtained from the ccRepo (grant-hill.group.shef.ac.uk/ccrepo) Feb. 2017
              R. A. Kendall, T. H. Dunning, Jr., R. J. Harrison, J. Chem. Phys. 96, 6796 (1992)
         He : Obtained from the ccRepo (grant-hill.group.shef.ac.uk/ccrepo) Feb. 2017
              D. E. Woon, T. H. Dunning, Jr., J. Chem. Phys. 100, 2975 (1994)
  Li-Be, Na : Obtained from the ccRepo (grant-hill.group.shef.ac.uk/ccrepo) Feb. 2017
              B. P. Prascher, D. E. Woon, K. A. Peterson, T. H. Dunning, Jr., A. K. Wilson, Theor. Chem. Acc. 128, 69 (2011)
         Mg : Obtained from the Peterson Research Group Website (tyr0.chem.wsu.edu/~kipeters) Feb. 2017
              B. P. Prascher, D. E. Woon, K. A. Peterson, T. H. Dunning, Jr., A. K. Wilson, Theor. Chem. Acc. 128, 69 (2011)
      Al-Ar : Obtained from the ccRepo (grant-hill.group.shef.ac.uk/ccrepo) Feb. 2017
              D. E. Woon, T. H. Dunning, Jr., J. Chem. Phys. 98, 1358 (1993)
      Sc-Zn : Obtained from the ccRepo (grant-hill.group.shef.ac.uk/ccrepo) Feb. 2017
              N. B. Balabanov, K. A. Peterson, J. Chem. Phys. 123, 064107 (2005)
              N. B. Balabanov, K. A. Peterson, J. Chem. Phys. 125, 074110 (2006)
      Ga-Kr : Obtained from the ccRepo (grant-hill.group.shef.ac.uk/ccrepo) Feb. 2017
              A. K. Wilson, D. E. Woon, K. A. Peterson, T. H. Dunning, Jr., J. Chem. Phys. 110, 7667 (1999)
     Ag, Au : Obtained from the Peterson Research Group Website (tyr0.chem.wsu.edu/~kipeters) Feb. 2017
              K. A. Peterson, C. Puzzarini, Theor. Chem. Acc. 114, 283 (2005)

The basis set includes element-specific modifications.

Your calculation utilizes the basis: cc-pVTZ 
       H, B-Ne : Obtained from the ccRepo (grant-hill.group.shef.ac.uk/ccrepo) Feb. 2017
                 T. H. Dunning, Jr., J. Chem. Phys. 90, 1007 (1989)
            He : Obtained from the ccRepo (grant-hill.group.shef.ac.uk/ccrepo) Feb. 2017
                 D. E. Woon, T. H. Dunning, Jr., J. Chem. Phys. 100, 2975 (1994)
  Li-Be, Na-Mg : Obtained from the ccRepo (grant-hill.group.shef.ac.uk/ccrepo) Feb. 2017
                 B. P. Prascher, D. E. Woon, K. A. Peterson, T. H. Dunning, Jr., A. K. Wilson, Theor. Chem. Acc. 128, 69 (2011)
         Al-Ar : Obtained from the ccRepo (grant-hill.group.shef.ac.uk/ccrepo) Feb. 2017
                 D. E. Woon, T. H. Dunning, Jr., J. Chem. Phys. 98, 1358 (1993)
            Ca : Obtained from the Peterson Research Group Website (tyr0.chem.wsu.edu/~kipeters) Feb. 2017
                 J. Koput, K. A. Peterson, J. Phys. Chem. 106, 9595 (2002)
         Sc-Zn : Obtained from the ccRepo (grant-hill.group.shef.ac.uk/ccrepo) Feb. 2017
                 N. B. Balabanov, K. A. Peterson, J. Chem. Phys. 123, 064107 (2005)
                 N. B. Balabanov, K. A. Peterson, J. Chem. Phys. 125, 074110 (2006)
         Ga-Kr : Obtained from the ccRepo (grant-hill.group.shef.ac.uk/ccrepo) Feb. 2017
                 A. K. Wilson, D. E. Woon, K. A. Peterson, T. H. Dunning, Jr., J. Chem. Phys. 110, 7667 (1999)
             Y : Obtained from the ccRepo (grant-hill.group.shef.ac.uk/ccrepo) Feb. 2017
                 K. A. Peterson, D. Figgen, M. Dolg, H. Stoll, J. Chem. Phys. 126, 124101 (2007)
        Ag, Au : Obtained from the Peterson Research Group Website (tyr0.chem.wsu.edu/~kipeters) Feb. 2017
                 K. A. Peterson, C. Puzzarini, Theor. Chem. Acc. 114, 283 (2005)

----- AuxJ basis set information -----
Your calculation utilizes the auxiliary basis: aug-cc-pVTZ/JK 
  H, B-F, Al-Cl, Ga-Br : Obtained from the TURBOMOLE 7.0 basis set library

The basis set includes element-specific modifications.

Your calculation utilizes the auxiliary basis: cc-pVTZ/JK 
  H, B-F, Al-Cl, Ga-Br : Obtained from the TURBOMOLE 7.0 basis set library

----- AuxC basis set information -----
Your calculation utilizes the auxiliary basis: aug-cc-pVTZ/C 
  H-He, B-F, Al-Ar, Ga-Kr : Obtained from the EMSL Basis Set Exchange (bse.pnl.gov) Feb. 2017
                            F. Weigend, A. Kohn, C. Hattig, J. Chem. Phys. 116, 3175 (2002)
                   Be, Mg : Obtained from the TURBOMOLE 7.0 basis set library
                            C. Haettig, Phys. Chem. Chem. Phys. 7, 59 (2005)
                       Ne : Obtained from the EMSL Basis Set Exchange (bse.pnl.gov) Feb. 2017
                            C. Haettig, Phys. Chem. Chem. Phys. 7, 59 (2005)
                            F. Weigend, A. Kohn, C. Hattig, J. Chem. Phys. 116, 3175 (2002)
                    Sc-Zn : Obtained from the EMSL Basis Set Exchange (bse.pnl.gov) Feb. 2017
                            J. G. Hill, J. A. Platts, J. Chem. Phys. 128, 044104 (2008)

The basis set includes element-specific modifications.

Your calculation utilizes the auxiliary basis: cc-pVTZ/C 
  Obtained from the EMSL Basis Set Exchange (bse.pnl.gov) Feb. 2017
  H-He, B-F, Al-Ar, Ga-Kr : F. Weigend, A. Kohn, C. Hattig, J. Chem. Phys. 116, 3175 (2002)
             Li-Be, Na-Mg : C. Haettig, Phys. Chem. Chem. Phys. 7, 59 (2005)
                       Ne : C. Haettig, Phys. Chem. Chem. Phys. 7, 59 (2005)
                            F. Weigend, A. Kohn, C. Hattig, J. Chem. Phys. 116, 3175 (2002)
                    Sc-Zn : J. G. Hill, J. A. Platts, J. Chem. Phys. 128, 044104 (2008)

================================================================================
                                        WARNINGS
                       Please study these warnings very carefully!
================================================================================


WARNING: Geometry Optimization
  ===> : Switching off AutoStart
         For restart on a previous wavefunction, please use MOREAD

INFO   : the flag for use of the SHARK integral package has been found!



***************************************
The coordinates will be read from file: 
***************************************


Your calculation utilizes the SMD solvation module
Please cite in your paper:
A.V. Marenich, C.J. Cramer, D.G. Truhlar J. Phys. Chem. B, 113, (2009), 6378 

================================================================================

----- Orbital basis set information -----
Your calculation utilizes the basis: aug-cc-pVTZ 
    H, B-Ne : Obtained from the ccRepo (grant-hill.group.shef.ac.uk/ccrepo) Feb. 2017
              R. A. Kendall, T. H. Dunning, Jr., R. J. Harrison, J. Chem. Phys. 96, 6796 (1992)
         He : Obtained from the ccRepo (grant-hill.group.shef.ac.uk/ccrepo) Feb. 2017
              D. E. Woon, T. H. Dunning, Jr., J. Chem. Phys. 100, 2975 (1994)
  Li-Be, Na : Obtained from the ccRepo (grant-hill.group.shef.ac.uk/ccrepo) Feb. 2017
              B. P. Prascher, D. E. Woon, K. A. Peterson, T. H. Dunning, Jr., A. K. Wilson, Theor. Chem. Acc. 128, 69 (2011)
         Mg : Obtained from the Peterson Research Group Website (tyr0.chem.wsu.edu/~kipeters) Feb. 2017
              B. P. Prascher, D. E. Woon, K. A. Peterson, T. H. Dunning, Jr., A. K. Wilson, Theor. Chem. Acc. 128, 69 (2011)
      Al-Ar : Obtained from the ccRepo (grant-hill.group.shef.ac.uk/ccrepo) Feb. 2017
              D. E. Woon, T. H. Dunning, Jr., J. Chem. Phys. 98, 1358 (1993)
      Sc-Zn : Obtained from the ccRepo (grant-hill.group.shef.ac.uk/ccrepo) Feb. 2017
              N. B. Balabanov, K. A. Peterson, J. Chem. Phys. 123, 064107 (2005)
              N. B. Balabanov, K. A. Peterson, J. Chem. Phys. 125, 074110 (2006)
      Ga-Kr : Obtained from the ccRepo (grant-hill.group.shef.ac.uk/ccrepo) Feb. 2017
              A. K. Wilson, D. E. Woon, K. A. Peterson, T. H. Dunning, Jr., J. Chem. Phys. 110, 7667 (1999)
     Ag, Au : Obtained from the Peterson Research Group Website (tyr0.chem.wsu.edu/~kipeters) Feb. 2017
              K. A. Peterson, C. Puzzarini, Theor. Chem. Acc. 114, 283 (2005)

The basis set includes element-specific modifications.

Your calculation utilizes the basis: cc-pVTZ 
       H, B-Ne : Obtained from the ccRepo (grant-hill.group.shef.ac.uk/ccrepo) Feb. 2017
                 T. H. Dunning, Jr., J. Chem. Phys. 90, 1007 (1989)
            He : Obtained from the ccRepo (grant-hill.group.shef.ac.uk/ccrepo) Feb. 2017
                 D. E. Woon, T. H. Dunning, Jr., J. Chem. Phys. 100, 2975 (1994)
  Li-Be, Na-Mg : Obtained from the ccRepo (grant-hill.group.shef.ac.uk/ccrepo) Feb. 2017
                 B. P. Prascher, D. E. Woon, K. A. Peterson, T. H. Dunning, Jr., A. K. Wilson, Theor. Chem. Acc. 128, 69 (2011)
         Al-Ar : Obtained from the ccRepo (grant-hill.group.shef.ac.uk/ccrepo) Feb. 2017
                 D. E. Woon, T. H. Dunning, Jr., J. Chem. Phys. 98, 1358 (1993)
            Ca : Obtained from the Peterson Research Group Website (tyr0.chem.wsu.edu/~kipeters) Feb. 2017
                 J. Koput, K. A. Peterson, J. Phys. Chem. 106, 9595 (2002)
         Sc-Zn : Obtained from the ccRepo (grant-hill.group.shef.ac.uk/ccrepo) Feb. 2017
                 N. B. Balabanov, K. A. Peterson, J. Chem. Phys. 123, 064107 (2005)
                 N. B. Balabanov, K. A. Peterson, J. Chem. Phys. 125, 074110 (2006)
         Ga-Kr : Obtained from the ccRepo (grant-hill.group.shef.ac.uk/ccrepo) Feb. 2017
                 A. K. Wilson, D. E. Woon, K. A. Peterson, T. H. Dunning, Jr., J. Chem. Phys. 110, 7667 (1999)
             Y : Obtained from the ccRepo (grant-hill.group.shef.ac.uk/ccrepo) Feb. 2017
                 K. A. Peterson, D. Figgen, M. Dolg, H. Stoll, J. Chem. Phys. 126, 124101 (2007)
        Ag, Au : Obtained from the Peterson Research Group Website (tyr0.chem.wsu.edu/~kipeters) Feb. 2017
                 K. A. Peterson, C. Puzzarini, Theor. Chem. Acc. 114, 283 (2005)

----- AuxJ basis set information -----
Your calculation utilizes the auxiliary basis: aug-cc-pVTZ/JK 
  H, B-F, Al-Cl, Ga-Br : Obtained from the TURBOMOLE 7.0 basis set library

The basis set includes element-specific modifications.

Your calculation utilizes the auxiliary basis: cc-pVTZ/JK 
  H, B-F, Al-Cl, Ga-Br : Obtained from the TURBOMOLE 7.0 basis set library

----- AuxC basis set information -----
Your calculation utilizes the auxiliary basis: aug-cc-pVTZ/C 
  H-He, B-F, Al-Ar, Ga-Kr : Obtained from the EMSL Basis Set Exchange (bse.pnl.gov) Feb. 2017
                            F. Weigend, A. Kohn, C. Hattig, J. Chem. Phys. 116, 3175 (2002)
                   Be, Mg : Obtained from the TURBOMOLE 7.0 basis set library
                            C. Haettig, Phys. Chem. Chem. Phys. 7, 59 (2005)
                       Ne : Obtained from the EMSL Basis Set Exchange (bse.pnl.gov) Feb. 2017
                            C. Haettig, Phys. Chem. Chem. Phys. 7, 59 (2005)
                            F. Weigend, A. Kohn, C. Hattig, J. Chem. Phys. 116, 3175 (2002)
                    Sc-Zn : Obtained from the EMSL Basis Set Exchange (bse.pnl.gov) Feb. 2017
                            J. G. Hill, J. A. Platts, J. Chem. Phys. 128, 044104 (2008)

The basis set includes element-specific modifications.

Your calculation utilizes the auxiliary basis: cc-pVTZ/C 
  Obtained from the EMSL Basis Set Exchange (bse.pnl.gov) Feb. 2017
  H-He, B-F, Al-Ar, Ga-Kr : F. Weigend, A. Kohn, C. Hattig, J. Chem. Phys. 116, 3175 (2002)
             Li-Be, Na-Mg : C. Haettig, Phys. Chem. Chem. Phys. 7, 59 (2005)
                       Ne : C. Haettig, Phys. Chem. Chem. Phys. 7, 59 (2005)
                            F. Weigend, A. Kohn, C. Hattig, J. Chem. Phys. 116, 3175 (2002)
                    Sc-Zn : J. G. Hill, J. A. Platts, J. Chem. Phys. 128, 044104 (2008)

================================================================================
                                        WARNINGS
                       Please study these warnings very carefully!
================================================================================

INFO   : Checking CIS options ...

INFO   : the flag for use of the SHARK integral package has been found!

================================================================================
                                       INPUT FILE
================================================================================
NAME = b3lyp-train-11.inp
|  1> ! b3lyp aug-cc-PVTZ RIJCOSX Opt
|  2> %maxcore 4000
|  3> %basis
|  4>  AuxJ "aug-cc-PVTZ/JK"
|  5>  AuxC "aug-cc-PVTZ/C"
|  6>  newGTO H "cc-PVTZ" end
|  7>  newAuxJGTO H "cc-PVTZ/JK" end
|  8>  newAuxCGTO H "cc-PVTZ/C" end
|  9> end
| 10> %cpcm
| 11>  SMD true
| 12>  SMDsolvent "ethanol"
| 13> end
| 14> %pal nprocs 4 end
| 15> * xyz 0 1
| 16> N         -2.13160       -3.53150       -0.43250
| 17> C         -1.57570       -2.55260       -0.63200
| 18> C         -0.89460       -1.30680       -0.85160
| 19> C          0.62070       -1.46820       -1.05290
| 20> C          1.21490       -0.12200       -0.62600
| 21> C          2.51050       -0.27790        0.19930
| 22> N          2.91190        0.89490        0.72050
| 23> O          3.09230       -1.32760        0.33320
| 24> N          0.18610        0.51360        0.17560
| 25> N          0.17690        1.82820        0.27800
| 26> C         -0.90910        2.43540        0.60720
| 27> C         -2.17820        1.75380        0.67270
| 28> C         -2.22420        0.42980        0.50170
| 29> C         -0.96120       -0.36810        0.38090
| 30> H         -1.34710       -0.80480       -1.71590
| 31> H          1.01430       -2.25180       -0.40120
| 32> H          0.87550       -1.71890       -2.08030
| 33> H          1.45630        0.51580       -1.48700
| 34> H          3.70900        0.91340        1.33490
| 35> H          2.30520        1.70030        0.66600
| 36> H         -0.83820        3.50140        0.74460
| 37> H         -3.07550        2.34250        0.77660
| 38> H         -3.14950       -0.12280        0.43620
| 39> H         -0.78870       -0.97630        1.28840
| 40> *
| 41> 
| 42> 
| 43> $new_job
| 44> ! b3lyp aug-cc-PVTZ RIJCOSX SP
| 45> %maxcore 4000
| 46> %basis
| 47>  AuxJ "aug-cc-PVTZ/JK"
| 48>  AuxC "aug-cc-PVTZ/C"
| 49>  newGTO H "cc-PVTZ" end
| 50>  newAuxJGTO H "cc-PVTZ/JK" end
| 51>  newAuxCGTO H "cc-PVTZ/C" end
| 52> end
| 53> %cpcm
| 54>  SMD true
| 55>  SMDsolvent "ethanol"
| 56> end
| 57> %pal nprocs 4 end
| 58> %tddft
| 59>  nroots 10
| 60>  maxdim 7
| 61> end
| 62> * xyzfile 0 1
| 63> 
| 64>                          ****END OF INPUT****
================================================================================


                 $$$$$$$$$$$$$$$$$$$$$$$$$$$$$$$$$$$$$$$$$$$$$$ 
                 $ THERE ARE  2 JOBS TO BE PROCESSED THIS RUN $
                 $$$$$$$$$$$$$$$$$$$$$$$$$$$$$$$$$$$$$$$$$$$$$$ 




                 $$$$$$$$$$$$$$$$  JOB NUMBER  1 $$$$$$$$$$$$$$


                       *****************************
                       * Geometry Optimization Run *
                       *****************************

Geometry optimization settings:
Update method            Update   .... BFGS
Choice of coordinates    CoordSys .... Z-matrix Internals
Initial Hessian          InHess   .... Almoef's Model

Convergence Tolerances:
Energy Change            TolE     ....  5.0000e-06 Eh
Max. Gradient            TolMAXG  ....  3.0000e-04 Eh/bohr
RMS Gradient             TolRMSG  ....  1.0000e-04 Eh/bohr
Max. Displacement        TolMAXD  ....  4.0000e-03 bohr
RMS Displacement         TolRMSD  ....  2.0000e-03 bohr
Strict Convergence                ....  False
------------------------------------------------------------------------------
                        ORCA OPTIMIZATION COORDINATE SETUP
------------------------------------------------------------------------------

The optimization will be done in new redundant internal coordinates
Making redundant internal coordinates   ...  (new redundants) done
Evaluating the initial hessian          ...  (Almloef) done
Evaluating the coordinates              ...  done
Calculating the B-matrix                .... done
Calculating the G-matrix                .... done
Diagonalizing the G-matrix              .... done
Small eigenvalue found = 2.354e-02
The first mode is                       ....   71
The number of degrees of freedom        ....   66

    -----------------------------------------------------------------
                    Redundant Internal Coordinates


    -----------------------------------------------------------------
         Definition                    Initial Value    Approx d2E/dq
    -----------------------------------------------------------------
      1. B(C   1,N   0)                  1.1433         1.385207   
      2. B(C   2,C   1)                  1.4367         0.526276   
      3. B(C   3,C   2)                  1.5371         0.363944   
      4. B(C   4,C   3)                  1.5322         0.370597   
      5. B(C   5,C   4)                  1.5440         0.354818   
      6. B(N   6,C   5)                  1.3447         0.660908   
      7. B(O   7,C   5)                  1.2076         1.093674   
      8. B(N   8,C   4)                  1.4509         0.447492   
      9. B(N   9,N   8)                  1.3186         0.651484   
     10. B(C  10,N   9)                  1.2870         0.816862   
     11. B(C  11,C  10)                  1.4420         0.516071   
     12. B(C  12,C  11)                  1.3358         0.762480   
     13. B(C  13,C  12)                  1.4988         0.418941   
     14. B(C  13,N   8)                  1.4615         0.430407   
     15. B(C  13,C   2)                  1.5507         0.346228   
     16. B(H  14,C   2)                  1.0972         0.350743   
     17. B(H  15,C   3)                  1.0925         0.356744   
     18. B(H  16,C   3)                  1.0878         0.363013   
     19. B(H  17,C   4)                  1.0984         0.349215   
     20. B(H  18,N   6)                  1.0066         0.438183   
     21. B(H  19,N   6)                  1.0098         0.433004   
     22. B(H  20,C  10)                  1.0772         0.377500   
     23. B(H  21,C  11)                  1.0782         0.376056   
     24. B(H  22,C  12)                  1.0797         0.373933   
     25. B(H  23,C  13)                  1.1060         0.339553   
     26. L(N   0,C   1,C   2,C  13, 2) 180.6772         0.484570   
     27. L(N   0,C   1,C   2,C  13, 1) 178.4979         0.484570   
     28. A(C   1,C   2,C   3)          113.3477         0.383732   
     29. A(C  13,C   2,H  14)          109.3556         0.318930   
     30. A(C   3,C   2,C  13)          102.1217         0.357082   
     31. A(C   3,C   2,H  14)          110.5762         0.321542   
     32. A(C   1,C   2,H  14)          108.7617         0.341788   
     33. A(C   1,C   2,C  13)          112.5232         0.380422   
     34. A(C   2,C   3,H  16)          112.2591         0.323359   
     35. A(C   2,C   3,H  15)          110.6305         0.322437   
     36. A(C   4,C   3,H  16)          112.0120         0.324322   
     37. A(C   2,C   3,C   4)          104.6886         0.361241   
     38. A(H  15,C   3,H  16)          108.2819         0.290780   
     39. A(C   4,C   3,H  15)          108.9204         0.323396   
     40. A(C   3,C   4,H  17)          112.1495         0.322267   
     41. A(C   5,C   4,N   8)          110.1162         0.369157   
     42. A(C   3,C   4,C   5)          112.6829         0.359681   
     43. A(C   3,C   4,N   8)          105.2988         0.371930   
     44. A(N   8,C   4,H  17)          109.5460         0.330434   
     45. A(C   5,C   4,H  17)          107.0505         0.319981   
     46. A(C   4,C   5,O   7)          123.4565         0.431961   
     47. A(C   4,C   5,N   6)          111.6903         0.395009   
     48. A(N   6,C   5,O   7)          124.8432         0.480559   
     49. A(C   5,N   6,H  19)          119.6929         0.362639   
     50. A(H  18,N   6,H  19)          119.6075         0.303901   
     51. A(C   5,N   6,H  18)          119.2745         0.363377   
     52. A(C   4,N   8,N   9)          118.9867         0.405143   
     53. A(N   9,N   8,C  13)          125.8087         0.402369   
     54. A(C   4,N   8,C  13)          111.7148         0.379267   
     55. A(N   8,N   9,C  10)          119.7421         0.451276   
     56. A(N   9,C  10,C  11)          122.0885         0.438449   
     57. A(C  11,C  10,H  20)          121.3257         0.344893   
     58. A(N   9,C  10,H  20)          116.3583         0.370585   
     59. A(C  10,C  11,C  12)          119.5369         0.435897   
     60. A(C  12,C  11,H  21)          121.6590         0.368286   
     61. A(C  10,C  11,H  21)          118.6016         0.344671   
     62. A(C  13,C  12,H  22)          116.4104         0.332572   
     63. A(C  11,C  12,H  22)          122.9939         0.367928   
     64. A(C  11,C  12,C  13)          120.5945         0.419906   
     65. A(N   8,C  13,H  23)          108.9407         0.326801   
     66. A(N   8,C  13,C  12)          110.5902         0.377340   
     67. A(C   2,C  13,H  23)          108.2146         0.317249   
     68. A(C   2,C  13,C  12)          114.9932         0.365758   
     69. A(C  12,C  13,H  23)          110.9804         0.327313   
     70. A(C   2,C  13,N   8)          102.6995         0.365164   
     71. D(H  15,C   3,C   2,H  14)   -159.8993         0.010611   
     72. D(H  16,C   3,C   2,C  13)   -155.0941         0.010611   
     73. D(H  15,C   3,C   2,C   1)    -37.4717         0.010611   
     74. D(C   4,C   3,C   2,C  13)    -33.3617         0.010611   
     75. D(H  16,C   3,C   2,C   1)     83.6108         0.010611   
     76. D(H  15,C   3,C   2,C  13)     83.8234         0.010611   
     77. D(C   4,C   3,C   2,C   1)   -154.6568         0.010611   
     78. D(H  16,C   3,C   2,H  14)    -38.8168         0.010611   
     79. D(C   4,C   3,C   2,H  14)     82.9156         0.010611   
     80. D(N   8,C   4,C   3,C   2)     18.6015         0.010977   
     81. D(N   8,C   4,C   3,H  15)    -99.7514         0.010977   
     82. D(C   5,C   4,C   3,H  16)    -99.4524         0.010977   
     83. D(C   5,C   4,C   3,H  15)     20.3003         0.010977   
     84. D(N   8,C   4,C   3,H  16)    140.4959         0.010977   
     85. D(C   5,C   4,C   3,C   2)    138.6532         0.010977   
     86. D(H  17,C   4,C   3,H  16)     21.4283         0.010977   
     87. D(H  17,C   4,C   3,H  15)    141.1810         0.010977   
     88. D(H  17,C   4,C   3,C   2)   -100.4662         0.010977   
     89. D(O   7,C   5,C   4,H  17)   -113.9776         0.009490   
     90. D(O   7,C   5,C   4,N   8)    127.0092         0.009490   
     91. D(O   7,C   5,C   4,C   3)      9.7747         0.009490   
     92. D(N   6,C   5,C   4,H  17)     64.9176         0.009490   
     93. D(N   6,C   5,C   4,N   8)    -54.0957         0.009490   
     94. D(N   6,C   5,C   4,C   3)   -171.3302         0.009490   
     95. D(H  19,N   6,C   5,C   4)      9.2919         0.035752   
     96. D(H  19,N   6,C   5,O   7)   -171.8313         0.035752   
     97. D(H  18,N   6,C   5,O   7)     -5.5030         0.035752   
     98. D(H  18,N   6,C   5,C   4)    175.6202         0.035752   
     99. D(N   9,N   8,C   4,C   3)   -155.3766         0.017080   
    100. D(N   9,N   8,C   4,C   5)     82.8904         0.017080   
    101. D(N   9,N   8,C   4,H  17)    -34.5866         0.017080   
    102. D(C  13,N   8,C   4,H  17)    125.5643         0.017080   
    103. D(C  13,N   8,C   4,C   5)   -116.9587         0.017080   
    104. D(C  13,N   8,C   4,C   3)      4.7744         0.017080   
    105. D(C  10,N   9,N   8,C  13)      1.2417         0.036925   
    106. D(C  10,N   9,N   8,C   4)    158.3510         0.036925   
    107. D(H  20,C  10,N   9,N   8)    175.7116         0.051687   
    108. D(C  11,C  10,N   9,N   8)     -9.7034         0.051687   
    109. D(H  21,C  11,C  10,H  20)      5.3234         0.018158   
    110. D(H  21,C  11,C  10,N   9)   -168.9957         0.018158   
    111. D(C  12,C  11,C  10,H  20)   -179.7613         0.018158   
    112. D(C  12,C  11,C  10,N   9)      5.9196         0.018158   
    113. D(H  22,C  12,C  11,H  21)      1.3573         0.041595   
    114. D(H  22,C  12,C  11,C  10)   -173.3975         0.041595   
    115. D(C  13,C  12,C  11,H  21)   -179.0560         0.041595   
    116. D(C  13,C  12,C  11,C  10)      6.1891         0.041595   
    117. D(C   2,C  13,C  12,C  11)   -128.4578         0.012980   
    118. D(H  23,C  13,N   8,N   9)   -112.6742         0.015794   
    119. D(H  23,C  13,N   8,C   4)     88.8096         0.015794   
    120. D(C  12,C  13,N   8,C   4)   -148.9618         0.015794   
    121. D(C   2,C  13,N   8,N   9)    132.7377         0.015794   
    122. D(C   2,C  13,N   8,C   4)    -25.7785         0.015794   
    123. D(H  23,C  13,C   2,H  14)    163.3690         0.009675   
    124. D(H  23,C  13,C   2,C   3)    -79.4727         0.009675   
    125. D(H  23,C  13,C   2,C   1)     42.3899         0.009675   
    126. D(C  12,C  13,C   2,H  14)     38.6691         0.009675   
    127. D(C  12,C  13,C   2,C   3)    155.8273         0.009675   
    128. D(C  12,C  13,N   8,N   9)      9.5544         0.015794   
    129. D(C  12,C  13,C   2,C   1)    -82.3100         0.009675   
    130. D(N   8,C  13,C   2,H  14)    -81.5161         0.009675   
    131. D(N   8,C  13,C   2,C   3)     35.6422         0.009675   
    132. D(C   2,C  13,C  12,H  22)     51.1551         0.012980   
    133. D(N   8,C  13,C   2,C   1)    157.5049         0.009675   
    134. D(H  23,C  13,C  12,H  22)    -72.0830         0.012980   
    135. D(H  23,C  13,C  12,C  11)    108.3041         0.012980   
    136. D(N   8,C  13,C  12,H  22)    166.8914         0.012980   
    137. D(N   8,C  13,C  12,C  11)    -12.7215         0.012980   
    -----------------------------------------------------------------

Number of atoms                         .... 24
Number of degrees of freedom            .... 137

         *************************************************************
         *                GEOMETRY OPTIMIZATION CYCLE   1            *
         *************************************************************
---------------------------------
CARTESIAN COORDINATES (ANGSTROEM)
---------------------------------
  N     -2.131600   -3.531500   -0.432500
  C     -1.575700   -2.552600   -0.632000
  C     -0.894600   -1.306800   -0.851600
  C      0.620700   -1.468200   -1.052900
  C      1.214900   -0.122000   -0.626000
  C      2.510500   -0.277900    0.199300
  N      2.911900    0.894900    0.720500
  O      3.092300   -1.327600    0.333200
  N      0.186100    0.513600    0.175600
  N      0.176900    1.828200    0.278000
  C     -0.909100    2.435400    0.607200
  C     -2.178200    1.753800    0.672700
  C     -2.224200    0.429800    0.501700
  C     -0.961200   -0.368100    0.380900
  H     -1.347100   -0.804800   -1.715900
  H      1.014300   -2.251800   -0.401200
  H      0.875500   -1.718900   -2.080300
  H      1.456300    0.515800   -1.487000
  H      3.709000    0.913400    1.334900
  H      2.305200    1.700300    0.666000
  H     -0.838200    3.501400    0.744600
  H     -3.075500    2.342500    0.776600
  H     -3.149500   -0.122800    0.436200
  H     -0.788700   -0.976300    1.288400

----------------------------
CARTESIAN COORDINATES (A.U.)
----------------------------
  NO LB      ZA    FRAG     MASS         X           Y           Z
   0 N     7.0000    0    14.007   -4.028140   -6.673568   -0.817307
   1 C     6.0000    0    12.011   -2.977641   -4.823715   -1.194307
   2 C     6.0000    0    12.011   -1.690549   -2.469494   -1.609291
   3 C     6.0000    0    12.011    1.172953   -2.774496   -1.989693
   4 C     6.0000    0    12.011    2.295828   -0.230547   -1.182969
   5 C     6.0000    0    12.011    4.744157   -0.525155    0.376622
   6 N     7.0000    0    14.007    5.502694    1.691116    1.361548
   7 O     8.0000    0    15.999    5.843600   -2.508800    0.629657
   8 N     7.0000    0    14.007    0.351678    0.970563    0.331836
   9 N     7.0000    0    14.007    0.334293    3.454797    0.525344
  10 C     6.0000    0    12.011   -1.717950    4.602239    1.147442
  11 C     6.0000    0    12.011   -4.116201    3.314202    1.271219
  12 C     6.0000    0    12.011   -4.203129    0.812204    0.948076
  13 C     6.0000    0    12.011   -1.816405   -0.695608    0.719797
  14 H     1.0000    0     1.008   -2.545650   -1.520852   -3.242581
  15 H     1.0000    0     1.008    1.916749   -4.255285   -0.758158
  16 H     1.0000    0     1.008    1.654455   -3.248250   -3.931197
  17 H     1.0000    0     1.008    2.752008    0.974721   -2.810023
  18 H     1.0000    0     1.008    7.008994    1.726076    2.522595
  19 H     1.0000    0     1.008    4.356197    3.213101    1.258558
  20 H     1.0000    0     1.008   -1.583968    6.616687    1.407090
  21 H     1.0000    0     1.008   -5.811853    4.426683    1.467561
  22 H     1.0000    0     1.008   -5.951692   -0.232058    0.824299
  23 H     1.0000    0     1.008   -1.490427   -1.844940    2.434723

--------------------------------
INTERNAL COORDINATES (ANGSTROEM)
--------------------------------
 N      0   0   0     0.000000000000     0.00000000     0.00000000
 C      1   0   0     1.143271739352     0.00000000     0.00000000
 C      2   1   0     1.436711178351   178.44617550     0.00000000
 C      3   2   1     1.537109540664   113.34770437   130.35166312
 C      4   3   2     1.532178739573   104.68862019   205.34320223
 C      5   4   3     1.544022104764   112.68290263   138.65315362
 N      6   5   4     1.344704889558   111.69027248   188.66981177
 O      6   5   4     1.207597010596   123.45646494     9.77469348
 N      5   4   3     1.450854699824   105.29875111    18.60145888
 N      9   5   4     1.318614257469   118.98667030   204.62343772
 C     10   9   5     1.287035539525   119.74205503   158.35098435
 C     11  10   9     1.442041476519   122.08848126   350.29655202
 C     12  11  10     1.335789279789   119.53687988     5.91961133
 C      9   5   4     1.461451425809   111.71478375     4.77436528
 H      3   2   1     1.097166687427   108.76172160   253.78075429
 H      4   3   2     1.092548767790   110.63049577   322.52831671
 H      4   3   2     1.087807101466   112.25913614    83.61075005
 H      5   4   3     1.098355042780   112.14948605   259.53384786
 H      7   6   5     1.006577379042   119.27450213   175.62017245
 H      7   6   5     1.009813992773   119.69291382     9.29188625
 H     11  10   9     1.077154385406   116.35830241   175.71156159
 H     12  11  10     1.078197658131   118.60159958   191.00430300
 H     13  12  11     1.079739366699   122.99391327   186.60245147
 H     14   9   5     1.105992649162   108.94065924    88.80958397

---------------------------
INTERNAL COORDINATES (A.U.)
---------------------------
 N      0   0   0     0.000000000000     0.00000000     0.00000000
 C      1   0   0     2.160470484026     0.00000000     0.00000000
 C      2   1   0     2.714990660628   178.44617550     0.00000000
 C      3   2   1     2.904716069692   113.34770437   130.35166312
 C      4   3   2     2.895398206010   104.68862019   205.34320223
 C      5   4   3     2.917778922725   112.68290263   138.65315362
 N      6   5   4     2.541123972209   111.69027248   188.66981177
 O      6   5   4     2.282027630168   123.45646494     9.77469348
 N      5   4   3     2.741718042779   105.29875111    18.60145888
 N      9   5   4     2.491819822900   118.98667030   204.62343772
 C     10   9   5     2.432144694326   119.74205503   158.35098435
 C     11  10   9     2.725063464376   122.08848126   350.29655202
 C     12  11  10     2.524275911430   119.53687988     5.91961133
 C      9   5   4     2.761742952808   111.71478375     4.77436528
 H      3   2   1     2.073344562499   108.76172160   253.78075429
 H      4   3   2     2.064617959077   110.63049577   322.52831671
 H      4   3   2     2.055657508306   112.25913614    83.61075005
 H      5   4   3     2.075590228665   112.14948605   259.53384786
 H      7   6   5     1.902155578991   119.27450213   175.62017245
 H      7   6   5     1.908271892542   119.69291382     9.29188625
 H     11  10   9     2.035526792370   116.35830241   175.71156159
 H     12  11  10     2.037498292104   118.60159958   191.00430300
 H     13  12  11     2.040411699075   122.99391327   186.60245147
 H     14   9   5     2.090023213046   108.94065924    88.80958397

---------------------
BASIS SET INFORMATION
---------------------
There are 4 groups of distinct atoms

 Group   1 Type N   : 19s6p3d2f contracted to 5s4p3d2f pattern {88111/3111/111/11}
 Group   2 Type C   : 19s6p3d2f contracted to 5s4p3d2f pattern {88111/3111/111/11}
 Group   3 Type O   : 19s6p3d2f contracted to 5s4p3d2f pattern {88111/3111/111/11}
 Group   4 Type H   : 5s2p1d contracted to 3s2p1d pattern {311/11/1}

Atom   0N    basis set group =>   1
Atom   1C    basis set group =>   2
Atom   2C    basis set group =>   2
Atom   3C    basis set group =>   2
Atom   4C    basis set group =>   2
Atom   5C    basis set group =>   2
Atom   6N    basis set group =>   1
Atom   7O    basis set group =>   3
Atom   8N    basis set group =>   1
Atom   9N    basis set group =>   1
Atom  10C    basis set group =>   2
Atom  11C    basis set group =>   2
Atom  12C    basis set group =>   2
Atom  13C    basis set group =>   2
Atom  14H    basis set group =>   4
Atom  15H    basis set group =>   4
Atom  16H    basis set group =>   4
Atom  17H    basis set group =>   4
Atom  18H    basis set group =>   4
Atom  19H    basis set group =>   4
Atom  20H    basis set group =>   4
Atom  21H    basis set group =>   4
Atom  22H    basis set group =>   4
Atom  23H    basis set group =>   4
---------------------------------
AUXILIARY/J BASIS SET INFORMATION
---------------------------------
There are 4 groups of distinct atoms

 Group   1 Type N   : 10s7p5d2f1g contracted to 10s7p5d2f1g pattern {1111111111/1111111/11111/11/1}
 Group   2 Type C   : 10s7p5d2f1g contracted to 10s7p5d2f1g pattern {1111111111/1111111/11111/11/1}
 Group   3 Type O   : 10s7p5d2f1g contracted to 10s7p5d2f1g pattern {1111111111/1111111/11111/11/1}
 Group   4 Type H   : 4s3p2d1f contracted to 4s3p2d1f pattern {1111/111/11/1}

Atom   0N    basis set group =>   1
Atom   1C    basis set group =>   2
Atom   2C    basis set group =>   2
Atom   3C    basis set group =>   2
Atom   4C    basis set group =>   2
Atom   5C    basis set group =>   2
Atom   6N    basis set group =>   1
Atom   7O    basis set group =>   3
Atom   8N    basis set group =>   1
Atom   9N    basis set group =>   1
Atom  10C    basis set group =>   2
Atom  11C    basis set group =>   2
Atom  12C    basis set group =>   2
Atom  13C    basis set group =>   2
Atom  14H    basis set group =>   4
Atom  15H    basis set group =>   4
Atom  16H    basis set group =>   4
Atom  17H    basis set group =>   4
Atom  18H    basis set group =>   4
Atom  19H    basis set group =>   4
Atom  20H    basis set group =>   4
Atom  21H    basis set group =>   4
Atom  22H    basis set group =>   4
Atom  23H    basis set group =>   4
---------------------------------
AUXILIARY/C BASIS SET INFORMATION
---------------------------------
There are 4 groups of distinct atoms

 Group   1 Type N   : 9s7p6d4f2g contracted to 9s7p6d4f2g pattern {111111111/1111111/111111/1111/11}
 Group   2 Type C   : 9s7p6d4f2g contracted to 9s7p6d4f2g pattern {111111111/1111111/111111/1111/11}
 Group   3 Type O   : 9s7p6d4f2g contracted to 9s7p6d4f2g pattern {111111111/1111111/111111/1111/11}
 Group   4 Type H   : 4s3p2d1f contracted to 4s3p2d1f pattern {1111/111/11/1}

Atom   0N    basis set group =>   1
Atom   1C    basis set group =>   2
Atom   2C    basis set group =>   2
Atom   3C    basis set group =>   2
Atom   4C    basis set group =>   2
Atom   5C    basis set group =>   2
Atom   6N    basis set group =>   1
Atom   7O    basis set group =>   3
Atom   8N    basis set group =>   1
Atom   9N    basis set group =>   1
Atom  10C    basis set group =>   2
Atom  11C    basis set group =>   2
Atom  12C    basis set group =>   2
Atom  13C    basis set group =>   2
Atom  14H    basis set group =>   4
Atom  15H    basis set group =>   4
Atom  16H    basis set group =>   4
Atom  17H    basis set group =>   4
Atom  18H    basis set group =>   4
Atom  19H    basis set group =>   4
Atom  20H    basis set group =>   4
Atom  21H    basis set group =>   4
Atom  22H    basis set group =>   4
Atom  23H    basis set group =>   4


           ************************************************************
           *        Program running with 4 parallel MPI-processes     *
           *              working on a common directory               *
           ************************************************************
------------------------------------------------------------------------------
                           ORCA GTO INTEGRAL CALCULATION
                           -- RI-GTO INTEGRALS CHOSEN --
------------------------------------------------------------------------------
------------------------------------------------------------------------------
                   ___                                                        
                  /   \      - P O W E R E D   B Y -                         
                 /     \                                                     
                 |  |  |   _    _      __       _____    __    __             
                 |  |  |  | |  | |    /  \     |  _  \  |  |  /  |          
                  \  \/   | |  | |   /    \    | | | |  |  | /  /          
                 / \  \   | |__| |  /  /\  \   | |_| |  |  |/  /          
                |  |  |   |  __  | /  /__\  \  |    /   |      \           
                |  |  |   | |  | | |   __   |  |    \   |  |\   \          
                \     /   | |  | | |  |  |  |  | |\  \  |  | \   \       
                 \___/    |_|  |_| |__|  |__|  |_| \__\ |__|  \__/        
                                                                              
                      - O R C A' S   B I G   F R I E N D -                    
                                      &                                       
                       - I N T E G R A L  F E E D E R -                       
                                                                              
 v1 FN, 2020, v2 2021                                                         
------------------------------------------------------------------------------


Reading SHARK input file b3lyp-train-11.SHARKINP.tmp ... ok
----------------------
SHARK INTEGRAL PACKAGE
----------------------

Number of atoms                             ...     24
Number of basis functions                   ...    868
Number of shells                            ...    340
Maximum angular momentum                    ...      3
Integral batch strategy                     ... SHARK/LIBINT Hybrid
RI-J (if used) integral strategy            ... SPLIT-RIJ (Revised 2003 algorithm where possible)
Printlevel                                  ...      1
Contraction scheme used                     ... PARTIAL GENERAL contraction
Coulomb Range Separation                    ... NOT USED
Exchange Range Separation                   ... NOT USED
Finite Nucleus Model                        ... NOT USED
Auxiliary Coulomb fitting basis             ... AVAILABLE
   # of basis functions in Aux-J            ...   1406
   # of shells in Aux-J                     ...    450
   Maximum angular momentum in Aux-J        ...      4
Auxiliary J/K fitting basis                 ... NOT available
Auxiliary Correlation fitting basis         ... AVAILABLE
   # of basis functions in Aux-C            ...   1784
   # of shells in Aux-C                     ...    492
   Maximum angular momentum in Aux-C        ...      4
Auxiliary 'external' fitting basis          ... NOT available
Integral threshold                          ...     2.500000e-11
Primitive cut-off                           ...     2.500000e-12
Primitive pair pre-selection threshold      ...     2.500000e-12

Calculating pre-screening integrals         ... done (  0.2 sec) Dimension = 340
Calculating pre-screening integrals (ORCA)  ... done (  0.3 sec) Dimension = 256
Organizing shell pair data                  ... done (  1.2 sec)
Shell pair information
Total number of shell pairs                 ...     57970
Shell pairs after pre-screening             ...     44162
Total number of primitive shell pairs       ...     75538
Primitive shell pairs kept                  ...     52854
          la=0 lb=0:  10218 shell pairs
          la=1 lb=0:  11182 shell pairs
          la=1 lb=1:   2670 shell pairs
          la=2 lb=0:   7447 shell pairs
          la=2 lb=1:   3565 shell pairs
          la=2 lb=2:   1234 shell pairs
          la=3 lb=0:   4159 shell pairs
          la=3 lb=1:   1964 shell pairs
          la=3 lb=2:   1339 shell pairs
          la=3 lb=3:    384 shell pairs

Calculating one electron integrals          ... done (  0.1 sec)
Calculating RI/J V-Matrix + Cholesky decomp.... done (  0.2 sec)
Calculating RI/C V-Matrix + Cholesky decomp.... done (  0.2 sec)
Calculating Nuclear repulsion               ... done (  0.0 sec) ENN=    877.506055215617 Eh

SHARK setup successfully completed in   4.4 seconds

Maximum memory used throughout the entire GTOINT-calculation: 65.6 MB


           ************************************************************
           *        Program running with 4 parallel MPI-processes     *
           *              working on a common directory               *
           ************************************************************
-------------------------------------------------------------------------------
                                 ORCA SCF
-------------------------------------------------------------------------------

------------
SCF SETTINGS
------------
Hamiltonian:
 Density Functional     Method          .... DFT(GTOs)
 Exchange Functional    Exchange        .... B88
   X-Alpha parameter    XAlpha          ....  0.666667
   Becke's b parameter  XBeta           ....  0.004200
 Correlation Functional Correlation     .... LYP
 LDA part of GGA corr.  LDAOpt          .... VWN-5
 Gradients option       PostSCFGGA      .... off
 Hybrid DFT is turned on
   Fraction HF Exchange ScalHFX         ....  0.200000
   Scaling of DF-GGA-X  ScalDFX         ....  0.720000
   Scaling of DF-GGA-C  ScalDFC         ....  0.810000
   Scaling of DF-LDA-C  ScalLDAC        ....  1.000000
   Perturbative correction              ....  0.000000
   Density functional embedding theory  .... OFF
   NL short-range parameter             ....  4.800000
 RI-approximation to the Coulomb term is turned on
   Number of AuxJ basis functions       .... 1406
   RIJ-COSX (HFX calculated with COS-X)).... on


General Settings:
 Integral files         IntName         .... b3lyp-train-11
 Hartree-Fock type      HFTyp           .... RHF
 Total Charge           Charge          ....    0
 Multiplicity           Mult            ....    1
 Number of Electrons    NEL             ....  100
 Basis Dimension        Dim             ....  784
 Nuclear Repulsion      ENuc            ....    877.5060552156 Eh

Convergence Acceleration:
 DIIS                   CNVDIIS         .... on
   Start iteration      DIISMaxIt       ....    12
   Startup error        DIISStart       ....  0.200000
   # of expansion vecs  DIISMaxEq       ....     5
   Bias factor          DIISBfac        ....   1.050
   Max. coefficient     DIISMaxC        ....  10.000
 Trust-Rad. Augm. Hess. CNVTRAH         .... auto
   Auto Start mean grad. ratio tolernc. ....  1.125000
   Auto Start start iteration           ....    20
   Auto Start num. interpolation iter.  ....    10
   Max. Number of Micro iterations      ....    16
   Max. Number of Macro iterations      .... Maxiter - #DIIS iter
   Number of Davidson start vectors     ....     2
   Converg. threshold I  (grad. norm)   ....   1.000e-05
   Converg. threshold II (energy diff.) ....   1.000e-08
   Grad. Scal. Fac. for Micro threshold ....   0.100
   Minimum threshold for Micro iter.    ....   0.010
   NR start threshold (gradient norm)   ....   0.001
   Initial trust radius                 ....   0.400
   Minimum AH scaling param. (alpha)    ....   1.000
   Maximum AH scaling param. (alpha)    .... 1000.000
   Orbital update algorithm             .... Taylor
   White noise on init. David. guess    .... on
   Maximum white noise                  ....   0.010
   Quad. conv. algorithm                .... NR
 SOSCF                  CNVSOSCF        .... on
   Start iteration      SOSCFMaxIt      ....   150
   Startup grad/error   SOSCFStart      ....  0.003300
 Level Shifting         CNVShift        .... on
   Level shift para.    LevelShift      ....    0.2500
   Turn off err/grad.   ShiftErr        ....    0.0010
 Zerner damping         CNVZerner       .... off
 Static damping         CNVDamp         .... on
   Fraction old density DampFac         ....    0.7000
   Max. Damping (<1)    DampMax         ....    0.9800
   Min. Damping (>=0)   DampMin         ....    0.0000
   Turn off err/grad.   DampErr         ....    0.1000
 Fernandez-Rico         CNVRico         .... off

SCF Procedure:
 Maximum # iterations   MaxIter         ....   125
 SCF integral mode      SCFMode         .... Direct
   Integral package                     .... SHARK and LIBINT hybrid scheme
 Reset frequency        DirectResetFreq ....    20
 Integral Threshold     Thresh          ....  2.500e-11 Eh
 Primitive CutOff       TCut            ....  2.500e-12 Eh

Convergence Tolerance:
 Convergence Check Mode ConvCheckMode   .... Total+1el-Energy
 Convergence forced     ConvForced      .... 0
 Energy Change          TolE            ....  1.000e-08 Eh
 1-El. energy change                    ....  1.000e-05 Eh
 Orbital Gradient       TolG            ....  1.000e-05
 Orbital Rotation angle TolX            ....  1.000e-05
 DIIS Error             TolErr          ....  5.000e-07


Diagonalization of the overlap matrix:
Smallest eigenvalue                        ... 2.237e-06
Time for diagonalization                   ...    0.170 sec
Threshold for overlap eigenvalues          ... 1.000e-08
Number of eigenvalues below threshold      ... 0
Time for construction of square roots      ...    0.093 sec
Total time needed                          ...    0.267 sec

Time for model grid setup =    0.419 sec

------------------------------
INITIAL GUESS: MODEL POTENTIAL
------------------------------
Loading Hartree-Fock densities                     ... done
Calculating cut-offs                               ... done
Initializing the effective Hamiltonian             ... done
Setting up the integral package (SHARK)            ... done
Starting the Coulomb interaction                   ... done (   1.2 sec)
Reading the grid                                   ... done
Mapping shells                                     ... done
Starting the XC term evaluation                    ... done (   1.1 sec)
  promolecular density results
     # of electrons  =     99.994489530
     EX              =    -83.768916362
     EC              =     -3.431666903
     EX+EC           =    -87.200583265
Transforming the Hamiltonian                       ... done (   0.1 sec)
Diagonalizing the Hamiltonian                      ... done (   0.1 sec)
Back transforming the eigenvectors                 ... done (   0.0 sec)
Now organizing SCF variables                       ... done
                      ------------------
                      INITIAL GUESS DONE (   3.1 sec)
                      ------------------
-------------------
DFT GRID GENERATION
-------------------

General Integration Accuracy     IntAcc      ... 4.388
Radial Grid Type                 RadialGrid  ... OptM3 with GC (2021)
Angular Grid (max. ang.)         AngularGrid ... 4 (Lebedev-302)
Angular grid pruning method      GridPruning ... 4 (adaptive)
Weight generation scheme         WeightScheme... Becke
Basis function cutoff            BFCut       ... 1.0000e-11
Integration weight cutoff        WCut        ... 1.0000e-14
Angular grids for H and He will be reduced by one unit
Partially contracted basis set               ... off
Rotationally invariant grid construction     ... off

Total number of grid points                  ...   119168
Total number of batches                      ...     1874
Average number of points per batch           ...       63
Average number of grid points per atom       ...     4965
Time for grid setup =    1.340 sec

--------------------
COSX GRID GENERATION
--------------------

GRIDX 1
-------
General Integration Accuracy     IntAcc      ... 3.816
Radial Grid Type                 RadialGrid  ... OptM3 with GC (2021)
Angular Grid (max. ang.)         AngularGrid ... 1 (Lebedev-50)
Angular grid pruning method      GridPruning ... 4 (adaptive)
Weight generation scheme         WeightScheme... Becke
Basis function cutoff            BFCut       ... 1.0000e-11
Integration weight cutoff        WCut        ... 1.0000e-14
Angular grids for H and He will be reduced by one unit
Partially contracted basis set               ... on
Rotationally invariant grid construction     ... off

Total number of grid points                  ...    15163
Total number of batches                      ...      248
Average number of points per batch           ...       61
Average number of grid points per atom       ...      632
UseSFitting                                  ... on

GRIDX 2
-------
General Integration Accuracy     IntAcc      ... 4.020
Radial Grid Type                 RadialGrid  ... OptM3 with GC (2021)
Angular Grid (max. ang.)         AngularGrid ... 2 (Lebedev-110)
Angular grid pruning method      GridPruning ... 4 (adaptive)
Weight generation scheme         WeightScheme... Becke
Basis function cutoff            BFCut       ... 1.0000e-11
Integration weight cutoff        WCut        ... 1.0000e-14
Angular grids for H and He will be reduced by one unit
Partially contracted basis set               ... on
Rotationally invariant grid construction     ... off

Total number of grid points                  ...    36140
Total number of batches                      ...      578
Average number of points per batch           ...       62
Average number of grid points per atom       ...     1506
UseSFitting                                  ... on

GRIDX 3
-------
General Integration Accuracy     IntAcc      ... 4.338
Radial Grid Type                 RadialGrid  ... OptM3 with GC (2021)
Angular Grid (max. ang.)         AngularGrid ... 3 (Lebedev-194)
Angular grid pruning method      GridPruning ... 4 (adaptive)
Weight generation scheme         WeightScheme... Becke
Basis function cutoff            BFCut       ... 1.0000e-11
Integration weight cutoff        WCut        ... 1.0000e-14
Angular grids for H and He will be reduced by one unit
Partially contracted basis set               ... on
Rotationally invariant grid construction     ... off

Total number of grid points                  ...    77948
Total number of batches                      ...     1231
Average number of points per batch           ...       63
Average number of grid points per atom       ...     3248
UseSFitting                                  ... on

Time for X-Grid setup             =    2.974 sec


--------------------
CPCM SOLVATION MODEL
--------------------
CPCM parameters:
  Epsilon                                         ...      24.8520
  Refrac                                          ...       1.3611
  Rsolv                                           ...       1.3000
  Surface type                                    ... GAUSSIAN VDW
  Epsilon function type                           ...         CPCM
Solvent:                                     ... ETHANOL
SMD-CDS solvent descriptors:
  Soln                                       ...    1.3611
  Soln25                                     ...    1.3593
  Sola                                       ...    0.3700
  Solb                                       ...    0.4800
  Solg                                       ...   31.6200
  Solc                                       ...    0.0000
  Solh                                       ...    0.0000
Radii:
 Radius for N  used is    3.5716 Bohr (=   1.8900 Ang.)
 Radius for C  used is    3.4960 Bohr (=   1.8500 Ang.)
 Radius for O  used is    3.0765 Bohr (=   1.6280 Ang.)
 Radius for H  used is    2.2677 Bohr (=   1.2000 Ang.)
Calculating surface                               ...        done! (  0.0s)
GEPOL surface points                              ...         1386
GEPOL Volume                                      ...    1319.5210
GEPOL Surface-area                                ...     760.5854
Calculating surface distance matrix               ...        done! (  0.0s)
Performing Cholesky decomposition & store         ...        done! (  0.1s)
Overall time for CPCM initialization              ...                 0.1s
 re-compute Schwartz prescreening matrix in partically contracted basis (1) ...done (   0.162 sec)
--------------
SCF ITERATIONS
--------------
ITER       Energy         Delta-E        Max-DP      RMS-DP      [F,P]     Damp
               ***  Starting incremental Fock matrix formation  ***
  0   -642.6535992355   0.000000000000 0.10745761  0.00088405  0.3245714 0.7000
  1   -642.8354886117  -0.181889376194 0.08114430  0.00066318  0.1290917 0.7000
                               ***Turning on DIIS***
  2   -642.9048692879  -0.069380676186 0.17996802  0.00132824  0.0434708 0.0000
  3   -643.0185146689  -0.113645381043 0.04515891  0.00035146  0.0675479 0.0000
  4   -643.0407223460  -0.022207677028 0.01254048  0.00012455  0.0214704 0.0000
  5   -643.0425729909  -0.001850644983 0.00358232  0.00004518  0.0051444 0.0000
                      *** Initiating the SOSCF procedure ***
                           *** Shutting down DIIS ***
                      *** Re-Reading the Fockian *** 
                      *** Removing any level shift *** 
ITER      Energy       Delta-E        Grad      Rot      Max-DP    RMS-DP
  6   -643.04266668  -0.0000936936  0.000375  0.000375  0.002785  0.000018
               *** Restarting incremental Fock matrix formation ***
  7   -643.04266780  -0.0000011146  0.000194  0.001296  0.005055  0.000043
  8   -643.04266896  -0.0000011578  0.000205  0.000662  0.001223  0.000013
  9   -643.04267078  -0.0000018197  0.000050  0.000200  0.001434  0.000013
 10   -643.04267075   0.0000000229  0.000053  0.000056  0.001040  0.000005
 11   -643.04267096  -0.0000002081  0.000011  0.000043  0.003787  0.000020
 12   -643.04267097  -0.0000000077  0.000011  0.000014  0.000871  0.000006
 13   -643.04267099  -0.0000000228  0.000005  0.000022  0.002111  0.000010
 14   -643.04267098   0.0000000158  0.000005  0.000007  0.000969  0.000004
                  ***Gradient check signals convergence***
              ***Rediagonalizing the Fockian in SOSCF/NRSCF***

               *****************************************************
               *                     SUCCESS                       *
               *           SCF CONVERGED AFTER  15 CYCLES          *
               *****************************************************

Old exchange energy                            =    -16.984471501 Eh
New exchange energy                            =    -16.984445864 Eh
Exchange energy change after final integration =      0.000025638 Eh
Total energy after final integration           =   -643.042645333 Eh
Final COS-X integration done in                =    62.525 sec

SMD CDS free energy correction energy :                 2.44712     Kcal/mol
Total Energy after SMD CDS correction =              -643.038745607 Eh

----------------
TOTAL SCF ENERGY
----------------

Total Energy       :         -643.03874561 Eh          -17497.97385 eV

Components:
Nuclear Repulsion  :          877.50605522 Eh           23878.15370 eV
Electronic Energy  :        -1520.54480082 Eh          -41376.12755 eV
One Electron Energy:        -2612.59972937 Eh          -71092.45291 eV
Two Electron Energy:         1092.05492855 Eh           29716.32535 eV
Max COSX asymmetry :            0.00002303 Eh               0.00063 eV
CPCM Dielectric    :           -0.03500568 Eh              -0.95255 eV
SMD CDS (Gcds)     :            0.00389973 Eh               0.10612 eV

Virial components:
Potential Energy   :        -1282.74560069 Eh          -34905.28235 eV
Kinetic Energy     :          639.70685509 Eh           17407.30850 eV
Virial Ratio       :            2.00520846


DFT components:
N(Alpha)           :       49.999974514980 electrons
N(Beta)            :       49.999974514980 electrons
N(Total)           :       99.999949029961 electrons
E(X)               :      -67.550943607263 Eh       
E(C)               :       -4.041909898334 Eh       
E(XC)              :      -71.592853505597 Eh       
DFET-embed. en.    :        0.000000000000 Eh       
CPCM Solvation Model Properties:
Surface-charge          :           -0.04781701
Charge-correction       :            0.00020648 Eh               0.00562 eV
Free-energy (cav+disp)  :            0.00389973 Eh               0.10612 eV

---------------
SCF CONVERGENCE
---------------

  Last Energy change         ...    5.5711e-09  Tolerance :   1.0000e-08
  Last MAX-Density change    ...    2.8866e-15  Tolerance :   1.0000e-07
  Last RMS-Density change    ...    1.1417e-17  Tolerance :   5.0000e-09
  Last Orbital Gradient      ...    6.0794e-07  Tolerance :   1.0000e-05
  Last Orbital Rotation      ...    5.3141e-06  Tolerance :   1.0000e-05

             **** THE GBW FILE WAS UPDATED (b3lyp-train-11.gbw) ****
             **** DENSITY b3lyp-train-11.scfp WAS UPDATED ****
             **** ENERGY FILE WAS UPDATED (b3lyp-train-11.en.tmp) ****
             **** THE GBW FILE WAS UPDATED (b3lyp-train-11.gbw) ****
             **** DENSITY b3lyp-train-11.scfp WAS UPDATED ****
----------------
ORBITAL ENERGIES
----------------

  NO   OCC          E(Eh)            E(eV) 
   0   2.0000     -19.109988      -520.0092 
   1   2.0000     -14.369671      -391.0186 
   2   2.0000     -14.356212      -390.6524 
   3   2.0000     -14.331104      -389.9692 
   4   2.0000     -14.319326      -389.6487 
   5   2.0000     -10.280528      -279.7474 
   6   2.0000     -10.230817      -278.3947 
   7   2.0000     -10.221397      -278.1384 
   8   2.0000     -10.219767      -278.0940 
   9   2.0000     -10.219238      -278.0796 
  10   2.0000     -10.195238      -277.4265 
  11   2.0000     -10.185425      -277.1595 
  12   2.0000     -10.183811      -277.1156 
  13   2.0000     -10.178689      -276.9762 
  14   2.0000      -1.060471       -28.8569 
  15   2.0000      -1.040922       -28.3249 
  16   2.0000      -0.924922       -25.1684 
  17   2.0000      -0.912223       -24.8229 
  18   2.0000      -0.887567       -24.1519 
  19   2.0000      -0.826262       -22.4837 
  20   2.0000      -0.781423       -21.2636 
  21   2.0000      -0.754152       -20.5215 
  22   2.0000      -0.668066       -18.1790 
  23   2.0000      -0.648397       -17.6438 
  24   2.0000      -0.638561       -17.3761 
  25   2.0000      -0.583798       -15.8859 
  26   2.0000      -0.556116       -15.1327 
  27   2.0000      -0.531836       -14.4720 
  28   2.0000      -0.522028       -14.2051 
  29   2.0000      -0.512872       -13.9560 
  30   2.0000      -0.493105       -13.4181 
  31   2.0000      -0.484641       -13.1877 
  32   2.0000      -0.464386       -12.6366 
  33   2.0000      -0.447621       -12.1804 
  34   2.0000      -0.440651       -11.9907 
  35   2.0000      -0.422068       -11.4851 
  36   2.0000      -0.411388       -11.1944 
  37   2.0000      -0.399880       -10.8813 
  38   2.0000      -0.397623       -10.8199 
  39   2.0000      -0.384802       -10.4710 
  40   2.0000      -0.377095       -10.2613 
  41   2.0000      -0.369305       -10.0493 
  42   2.0000      -0.357213        -9.7203 
  43   2.0000      -0.337840        -9.1931 
  44   2.0000      -0.334078        -9.0907 
  45   2.0000      -0.309772        -8.4293 
  46   2.0000      -0.285175        -7.7600 
  47   2.0000      -0.282463        -7.6862 
  48   2.0000      -0.271831        -7.3969 
  49   2.0000      -0.199309        -5.4235 
  50   0.0000      -0.049782        -1.3546 
  51   0.0000      -0.005100        -0.1388 
  52   0.0000       0.007716         0.2100 
  53   0.0000       0.009395         0.2556 
  54   0.0000       0.011086         0.3017 
  55   0.0000       0.017621         0.4795 
  56   0.0000       0.019870         0.5407 
  57   0.0000       0.024804         0.6749 
  58   0.0000       0.032545         0.8856 
  59   0.0000       0.033927         0.9232 
  60   0.0000       0.038810         1.0561 
  61   0.0000       0.045007         1.2247 
  62   0.0000       0.046611         1.2684 
  63   0.0000       0.058601         1.5946 
  64   0.0000       0.060783         1.6540 
  65   0.0000       0.062353         1.6967 
  66   0.0000       0.068918         1.8753 
  67   0.0000       0.073848         2.0095 
  68   0.0000       0.075640         2.0583 
  69   0.0000       0.078984         2.1493 
  70   0.0000       0.080188         2.1820 
  71   0.0000       0.091143         2.4801 
  72   0.0000       0.097056         2.6410 
  73   0.0000       0.100566         2.7365 
  74   0.0000       0.107473         2.9245 
  75   0.0000       0.111832         3.0431 
  76   0.0000       0.113647         3.0925 
  77   0.0000       0.120070         3.2673 
  78   0.0000       0.121531         3.3070 
  79   0.0000       0.123011         3.3473 
  80   0.0000       0.126673         3.4469 
  81   0.0000       0.128881         3.5070 
  82   0.0000       0.131379         3.5750 
  83   0.0000       0.136759         3.7214 
  84   0.0000       0.137955         3.7539 
  85   0.0000       0.141197         3.8422 
  86   0.0000       0.144846         3.9415 
  87   0.0000       0.146204         3.9784 
  88   0.0000       0.150348         4.0912 
  89   0.0000       0.153281         4.1710 
  90   0.0000       0.156980         4.2716 
  91   0.0000       0.161810         4.4031 
  92   0.0000       0.163924         4.4606 
  93   0.0000       0.168779         4.5927 
  94   0.0000       0.170228         4.6321 
  95   0.0000       0.173154         4.7118 
  96   0.0000       0.178237         4.8501 
  97   0.0000       0.180668         4.9162 
  98   0.0000       0.188276         5.1232 
  99   0.0000       0.192323         5.2334 
 100   0.0000       0.193003         5.2519 
 101   0.0000       0.196334         5.3425 
 102   0.0000       0.198756         5.4084 
 103   0.0000       0.205451         5.5906 
 104   0.0000       0.208504         5.6737 
 105   0.0000       0.212065         5.7706 
 106   0.0000       0.215209         5.8561 
 107   0.0000       0.220674         6.0048 
 108   0.0000       0.223291         6.0761 
 109   0.0000       0.226244         6.1564 
 110   0.0000       0.230817         6.2808 
 111   0.0000       0.234410         6.3786 
 112   0.0000       0.239950         6.5294 
 113   0.0000       0.242959         6.6112 
 114   0.0000       0.249772         6.7966 
 115   0.0000       0.252375         6.8675 
 116   0.0000       0.255444         6.9510 
 117   0.0000       0.261028         7.1029 
 118   0.0000       0.266959         7.2643 
 119   0.0000       0.268316         7.3012 
 120   0.0000       0.274274         7.4634 
 121   0.0000       0.280955         7.6452 
 122   0.0000       0.283635         7.7181 
 123   0.0000       0.290102         7.8941 
 124   0.0000       0.291339         7.9277 
 125   0.0000       0.299032         8.1371 
 126   0.0000       0.306138         8.3305 
 127   0.0000       0.307343         8.3632 
 128   0.0000       0.310968         8.4619 
 129   0.0000       0.316008         8.5990 
 130   0.0000       0.319627         8.6975 
 131   0.0000       0.323271         8.7967 
 132   0.0000       0.326697         8.8899 
 133   0.0000       0.332285         9.0419 
 134   0.0000       0.339983         9.2514 
 135   0.0000       0.347329         9.4513 
 136   0.0000       0.347632         9.4596 
 137   0.0000       0.353548         9.6205 
 138   0.0000       0.357434         9.7263 
 139   0.0000       0.360791         9.8176 
 140   0.0000       0.365531         9.9466 
 141   0.0000       0.369677        10.0594 
 142   0.0000       0.379074        10.3151 
 143   0.0000       0.379890        10.3373 
 144   0.0000       0.386239        10.5101 
 145   0.0000       0.387796        10.5525 
 146   0.0000       0.389496        10.5987 
 147   0.0000       0.397879        10.8268 
 148   0.0000       0.404971        11.0198 
 149   0.0000       0.409305        11.1378 
 150   0.0000       0.413811        11.2604 
 151   0.0000       0.418703        11.3935 
 152   0.0000       0.421583        11.4719 
 153   0.0000       0.423590        11.5265 
 154   0.0000       0.429454        11.6861 
 155   0.0000       0.441540        12.0149 
 156   0.0000       0.442083        12.0297 
 157   0.0000       0.445264        12.1162 
 158   0.0000       0.447893        12.1878 
 159   0.0000       0.452069        12.3014 
 160   0.0000       0.455267        12.3885 
 161   0.0000       0.460373        12.5274 
 162   0.0000       0.461571        12.5600 
 163   0.0000       0.468358        12.7447 
 164   0.0000       0.468696        12.7539 
 165   0.0000       0.473321        12.8797 
 166   0.0000       0.480389        13.0721 
 167   0.0000       0.485904        13.2221 
 168   0.0000       0.488885        13.3032 
 169   0.0000       0.495357        13.4793 
 170   0.0000       0.499141        13.5823 
 171   0.0000       0.503061        13.6890 
 172   0.0000       0.509226        13.8567 
 173   0.0000       0.513009        13.9597 
 174   0.0000       0.520681        14.1685 
 175   0.0000       0.527907        14.3651 
 176   0.0000       0.535387        14.5686 
 177   0.0000       0.542022        14.7492 
 178   0.0000       0.548446        14.9240 
 179   0.0000       0.552768        15.0416 
 180   0.0000       0.556321        15.1383 
 181   0.0000       0.563103        15.3228 
 182   0.0000       0.565139        15.3782 
 183   0.0000       0.568684        15.4747 
 184   0.0000       0.572990        15.5918 
 185   0.0000       0.579979        15.7820 
 186   0.0000       0.585736        15.9387 
 187   0.0000       0.590978        16.0813 
 188   0.0000       0.593688        16.1551 
 189   0.0000       0.600788        16.3483 
 190   0.0000       0.610810        16.6210 
 191   0.0000       0.614754        16.7283 
 192   0.0000       0.620335        16.8802 
 193   0.0000       0.626217        17.0402 
 194   0.0000       0.632804        17.2195 
 195   0.0000       0.639969        17.4145 
 196   0.0000       0.646490        17.5919 
 197   0.0000       0.649940        17.6858 
 198   0.0000       0.651776        17.7357 
 199   0.0000       0.657140        17.8817 
 200   0.0000       0.663176        18.0459 
 201   0.0000       0.666598        18.1390 
 202   0.0000       0.670722        18.2513 
 203   0.0000       0.678103        18.4521 
 204   0.0000       0.680004        18.5039 
 205   0.0000       0.682790        18.5797 
 206   0.0000       0.695275        18.9194 
 207   0.0000       0.699235        19.0272 
 208   0.0000       0.703906        19.1543 
 209   0.0000       0.712096        19.3771 
 210   0.0000       0.717447        19.5227 
 211   0.0000       0.723224        19.6799 
 212   0.0000       0.727302        19.7909 
 213   0.0000       0.734837        19.9959 
 214   0.0000       0.742508        20.2047 
 215   0.0000       0.743264        20.2252 
 216   0.0000       0.746601        20.3160 
 217   0.0000       0.750087        20.4109 
 218   0.0000       0.760861        20.7041 
 219   0.0000       0.762974        20.7616 
 220   0.0000       0.772487        21.0204 
 221   0.0000       0.775187        21.0939 
 222   0.0000       0.782947        21.3051 
 223   0.0000       0.785960        21.3870 
 224   0.0000       0.789494        21.4832 
 225   0.0000       0.794444        21.6179 
 226   0.0000       0.800821        21.7914 
 227   0.0000       0.813710        22.1422 
 228   0.0000       0.816273        22.2119 
 229   0.0000       0.826902        22.5011 
 230   0.0000       0.829591        22.5743 
 231   0.0000       0.836058        22.7503 
 232   0.0000       0.839627        22.8474 
 233   0.0000       0.845239        23.0001 
 234   0.0000       0.859423        23.3861 
 235   0.0000       0.868529        23.6339 
 236   0.0000       0.874004        23.7829 
 237   0.0000       0.877333        23.8734 
 238   0.0000       0.879572        23.9344 
 239   0.0000       0.891785        24.2667 
 240   0.0000       0.901365        24.5274 
 241   0.0000       0.903272        24.5793 
 242   0.0000       0.906472        24.6663 
 243   0.0000       0.912297        24.8249 
 244   0.0000       0.920763        25.0552 
 245   0.0000       0.928612        25.2688 
 246   0.0000       0.944158        25.6918 
 247   0.0000       0.945423        25.7263 
 248   0.0000       0.949353        25.8332 
 249   0.0000       0.963600        26.2209 
 250   0.0000       0.969981        26.3945 
 251   0.0000       0.973650        26.4944 
 252   0.0000       0.977829        26.6081 
 253   0.0000       0.982492        26.7350 
 254   0.0000       0.988499        26.8984 
 255   0.0000       0.992546        27.0086 
 256   0.0000       1.004602        27.3366 
 257   0.0000       1.009472        27.4691 
 258   0.0000       1.016688        27.6655 
 259   0.0000       1.019528        27.7428 
 260   0.0000       1.026308        27.9273 
 261   0.0000       1.035030        28.1646 
 262   0.0000       1.040827        28.3223 
 263   0.0000       1.046112        28.4661 
 264   0.0000       1.050327        28.5809 
 265   0.0000       1.060000        28.8441 
 266   0.0000       1.069662        29.1070 
 267   0.0000       1.076527        29.2938 
 268   0.0000       1.087320        29.5875 
 269   0.0000       1.089937        29.6587 
 270   0.0000       1.100172        29.9372 
 271   0.0000       1.109316        30.1860 
 272   0.0000       1.115798        30.3624 
 273   0.0000       1.126758        30.6606 
 274   0.0000       1.132876        30.8271 
 275   0.0000       1.141546        31.0630 
 276   0.0000       1.147569        31.2269 
 277   0.0000       1.151020        31.3208 
 278   0.0000       1.158250        31.5176 
 279   0.0000       1.159733        31.5579 
 280   0.0000       1.165659        31.7192 
 281   0.0000       1.177604        32.0442 
 282   0.0000       1.185918        32.2705 
 283   0.0000       1.194613        32.5071 
 284   0.0000       1.204487        32.7757 
 285   0.0000       1.206041        32.8180 
 286   0.0000       1.211283        32.9607 
 287   0.0000       1.227662        33.4064 
 288   0.0000       1.238784        33.7090 
 289   0.0000       1.242194        33.8018 
 290   0.0000       1.243226        33.8299 
 291   0.0000       1.254253        34.1300 
 292   0.0000       1.264467        34.4079 
[...]
B( 11-C , 12-C ) :   1.5955 B( 11-C , 21-H ) :   1.0021 B( 12-C , 13-C ) :   0.6720 
B( 12-C , 22-H ) :   1.0346 B( 13-C , 23-H ) :   1.0427 

-------
TIMINGS
-------

Total SCF time: 0 days 0 hours 2 min 27 sec 

Total time                  ....     147.567 sec
Sum of individual times     ....     145.527 sec  ( 98.6%)

Fock matrix formation       ....     140.472 sec  ( 95.2%)
  Split-RI-J                ....       7.387 sec  (  5.3% of F)
  Chain of spheres X        ....     121.999 sec  ( 86.8% of F)
  XC integration            ....       6.623 sec  (  4.7% of F)
    Basis function eval.    ....       1.217 sec  ( 18.4% of XC)
    Density eval.           ....       2.374 sec  ( 35.8% of XC)
    XC-Functional eval.     ....       0.077 sec  (  1.2% of XC)
    XC-Potential eval.      ....       2.852 sec  ( 43.1% of XC)
Diagonalization             ....       0.248 sec  (  0.2%)
Density matrix formation    ....       0.023 sec  (  0.0%)
Population analysis         ....       0.175 sec  (  0.1%)
Initial guess               ....       0.287 sec  (  0.2%)
Orbital Transformation      ....       0.000 sec  (  0.0%)
Orbital Orthonormalization  ....       0.248 sec  (  0.2%)
DIIS solution               ....       0.086 sec  (  0.1%)
SOSCF solution              ....       0.173 sec  (  0.1%)
Grid generation             ....       4.063 sec  (  2.8%)

Maximum memory used throughout the entire SCF-calculation: 189.7 MB


           ************************************************************
           *        Program running with 4 parallel MPI-processes     *
           *              working on a common directory               *
           ************************************************************
------------------------------------------------------------------------------
                        ORCA TD-DFT/TDA CALCULATION
------------------------------------------------------------------------------

Input orbitals are from        ... b3lyp-train-11_job2.gbw
CI-vector output               ... b3lyp-train-11_job2.cis
Tamm-Dancoff approximation     ... operative
CIS-Integral strategy          ... AO-integrals
Integral handling              ... AO integral Direct
Max. core memory used          ... 4000 MB
Reference state                ... RHF
Generation of triplets         ... off
Follow IRoot                   ... off
Number of operators            ... 1
Orbital ranges used for CIS calculation:
 Operator 0:  Orbitals  14... 49  to  50...783
XAS localization array:
 Operator 0:  Orbitals  -1... -1

-------------------
XC-INTEGRATION GRID
-------------------

General Integration Accuracy     IntAcc      ... 3.467
Radial Grid Type                 RadialGrid  ... OptM3 with GC (2021)
Angular Grid (max. ang.)         AngularGrid ... 1 (Lebedev-50)
Angular grid pruning method      GridPruning ... 4 (adaptive)
Weight generation scheme         WeightScheme... Becke
Basis function cutoff            BFCut       ... 1.0000e-11
Integration weight cutoff        WCut        ... 1.0000e-14
Angular grids for H and He will be reduced by one unit
Partially contracted basis set               ... off
Rotationally invariant grid construction     ... off

Total number of grid points                  ...    17737
Total number of batches                      ...      289
Average number of points per batch           ...       61
Average number of grid points per atom       ...      739

---------------------
COSX-INTEGRATION GRID
---------------------

General Integration Accuracy     IntAcc      ... 3.067
Radial Grid Type                 RadialGrid  ... OptM3 with GC (2021)
Angular Grid (max. ang.)         AngularGrid ... 1 (Lebedev-50)
Angular grid pruning method      GridPruning ... 4 (adaptive)
Weight generation scheme         WeightScheme... Becke
Basis function cutoff            BFCut       ... 1.0000e-11
Integration weight cutoff        WCut        ... 1.0000e-14
Angular grids for H and He will be reduced by one unit
Partially contracted basis set               ... on
Rotationally invariant grid construction     ... off

Total number of grid points                  ...     8080
Total number of batches                      ...      139
Average number of points per batch           ...       58
Average number of grid points per atom       ...      337

---------------
TD-DFT XC SETUP
---------------

DFT calculation                         ... on
Name of the grid file                   ... b3lyp-train-11_job2.grid_cis.tmp
Exchange functional (TD-DFT)            ... B88
   X-Alpha parameter    XAlpha (TD-DFT) ...  0.666667
   Becke's b parameter  XBeta (TD-DFT)  ...  0.004200
Correlation functional (TD-DFT)         ... LYP
 LDA part of GGA corr.  LDAOpt (TD-DFT) ... VWN-5
Hybrid DFT                              ... on
   Exchange mixing (TD-DFT)             ...  0.200
   GGA exch. scaling (TD-DFT)           ...  0.720
   GGA corr. scaling (TD-DFT)           ...  0.810

Building densities             ... done
Calculating rho(r) on the grid ... done
Building xc-kernel on the grid ... done
                    *** TD-DFT CALCULATION INITIALIZED ***

---------------------------------
    LR-CPCM (non-equilibrium)
---------------------------------

Setting up LR-CPCM             ... done

------------------------
DAVIDSON-DIAGONALIZATION
------------------------

Dimension of the eigenvalue problem            ...  26424
Number of roots to be determined               ...     10
Maximum size of the expansion space            ...     70
Maximum number of iterations                   ...    100
Convergence tolerance for the residual         ...    1.000e-06
Convergence tolerance for the energies         ...    1.000e-06
Orthogonality tolerance                        ...    1.000e-14
Level Shift                                    ...    0.000e+00
Constructing the preconditioner                ... o.k.
Building the initial guess                     ... o.k.
Number of trial vectors determined             ...     70


                       ****Iteration    0****

   Memory handling for direct AO based CIS:
   Memory per vector needed      ...    28 MB
   Memory needed                 ...   844 MB
   Memory available              ...  4000 MB
   Number of vectors per batch   ...   142
   Number of batches             ...     1
   Time for densities:            0.254
   Time for RI-J (Direct):        8.865
   Time for K (COSX):            48.139
   Time for XC-Integration:      25.387
   Time for LR-CPCM terms:       11.992
   Time for Sigma-Completion:     0.197
   Size of expansion space: 30
   Lowest Energy          :     0.165967885492
   Maximum Energy change  :     0.212184800798 (vector 9)
   Maximum residual norm  :     0.019541373524

                       ****Iteration    1****
   Time for densities:            0.085
   Time for RI-J (Direct):        5.219
   Time for K (COSX):            17.442
   Time for XC-Integration:       8.886
   Time for LR-CPCM terms:        5.382
   Time for Sigma-Completion:     0.065
   Size of expansion space: 40
   Lowest Energy          :     0.145441762238
   Maximum Energy change  :     0.020526123254 (vector 0)
   Maximum residual norm  :     0.000507818342

                       ****Iteration    2****
   Time for densities:            0.085
   Time for RI-J (Direct):        5.188
   Time for K (COSX):            17.212
   Time for XC-Integration:       9.125
   Time for LR-CPCM terms:        5.357
   Time for Sigma-Completion:     0.065
   Size of expansion space: 50
   Lowest Energy          :     0.144987022656
   Maximum Energy change  :     0.000454739583 (vector 0)
   Maximum residual norm  :     0.000031199572

                       ****Iteration    3****
   Time for densities:            0.087
   Time for RI-J (Direct):        5.267
   Time for K (COSX):            17.229
   Time for XC-Integration:       8.883
   Time for LR-CPCM terms:        5.365
   Time for Sigma-Completion:     0.064
   Size of expansion space: 60
   Lowest Energy          :     0.144970067364
   Maximum Energy change  :     0.000111845725 (vector 9)
   Maximum residual norm  :     0.000007111480

                       ****Iteration    4****
   Time for densities:            0.085
   Time for RI-J (Direct):        5.218
   Time for K (COSX):            17.284
   Time for XC-Integration:       8.931
   Time for LR-CPCM terms:        5.382
   Time for Sigma-Completion:     0.064
   Size of expansion space: 70
   Lowest Energy          :     0.144969584015
   Maximum Energy change  :     0.000010797670 (vector 9)
   Maximum residual norm  :     0.000000336653

      *** CONVERGENCE OF RESIDUAL NORM REACHED ***

Storing the converged CI vectors               ... b3lyp-train-11_job2.cis1

                 *** DAVIDSON DONE ***

Total time for solving the CIS problem:   243.825sec

------------------------------------
TD-DFT/TDA EXCITED STATES (SINGLETS)
------------------------------------

the weight of the individual excitations are printed if larger than 1.0e-02

STATE  1:  E=   0.144970 au      3.945 eV    31817.1 cm**-1 <S**2> =   0.000000
    49a ->  50a  :     0.948752 (c=  0.97403903)

STATE  2:  E=   0.181178 au      4.930 eV    39764.0 cm**-1 <S**2> =   0.000000
    46a ->  50a  :     0.454157 (c= -0.67391145)
    47a ->  50a  :     0.325344 (c= -0.57038977)
    48a ->  50a  :     0.189659 (c= -0.43549799)
    49a ->  51a  :     0.015981 (c=  0.12641661)

STATE  3:  E=   0.183032 au      4.981 eV    40170.8 cm**-1 <S**2> =   0.000000
    49a ->  51a  :     0.918955 (c=  0.95862166)
    49a ->  52a  :     0.029629 (c= -0.17212979)

STATE  4:  E=   0.189147 au      5.147 eV    41513.1 cm**-1 <S**2> =   0.000000
    49a ->  51a  :     0.031780 (c= -0.17826944)
    49a ->  52a  :     0.923437 (c= -0.96095648)

STATE  5:  E=   0.197250 au      5.367 eV    43291.4 cm**-1 <S**2> =   0.000000
    45a ->  50a  :     0.010453 (c= -0.10224107)
    46a ->  50a  :     0.101738 (c= -0.31896398)
    47a ->  50a  :     0.075413 (c= -0.27461458)
    48a ->  50a  :     0.743493 (c=  0.86226060)
    49a ->  54a  :     0.013513 (c= -0.11624373)
    49a ->  55a  :     0.017736 (c= -0.13317626)

STATE  6:  E=   0.203207 au      5.530 eV    44598.7 cm**-1 <S**2> =   0.000000
    49a ->  53a  :     0.882972 (c=  0.93966605)
    49a ->  54a  :     0.016339 (c=  0.12782307)
    49a ->  55a  :     0.035990 (c=  0.18971052)
    49a ->  56a  :     0.013545 (c= -0.11638285)
    49a ->  57a  :     0.010607 (c= -0.10299100)

STATE  7:  E=   0.204787 au      5.573 eV    44945.6 cm**-1 <S**2> =   0.000000
    45a ->  50a  :     0.014562 (c=  0.12067244)
    49a ->  53a  :     0.026394 (c=  0.16246157)
    49a ->  54a  :     0.732369 (c= -0.85578578)
    49a ->  55a  :     0.114405 (c= -0.33823777)
    49a ->  57a  :     0.049860 (c= -0.22329303)

STATE  8:  E=   0.206346 au      5.615 eV    45287.7 cm**-1 <S**2> =   0.000000
    46a ->  50a  :     0.018145 (c=  0.13470275)
    47a ->  50a  :     0.012575 (c= -0.11213818)
    49a ->  53a  :     0.015631 (c=  0.12502530)
    49a ->  54a  :     0.130112 (c=  0.36071056)
    49a ->  55a  :     0.732974 (c= -0.85613892)
    49a ->  56a  :     0.037138 (c= -0.19271146)
    49a ->  57a  :     0.030107 (c=  0.17351342)

STATE  9:  E=   0.206666 au      5.624 eV    45358.0 cm**-1 <S**2> =   0.000000
    46a ->  50a  :     0.396170 (c= -0.62942020)
    47a ->  50a  :     0.562012 (c=  0.74967455)
    49a ->  55a  :     0.033703 (c= -0.18358412)

STATE 10:  E=   0.210662 au      5.732 eV    46234.9 cm**-1 <S**2> =   0.000000
    48a ->  51a  :     0.013585 (c= -0.11655610)
    48a ->  52a  :     0.052002 (c=  0.22803945)
    49a ->  52a  :     0.010972 (c= -0.10474868)
    49a ->  53a  :     0.040573 (c= -0.20142715)
    49a ->  55a  :     0.017356 (c=  0.13174321)
    49a ->  56a  :     0.699022 (c= -0.83607543)
    49a ->  57a  :     0.103433 (c= -0.32160958)


-----------------------------
TD-DFT/TDA-EXCITATION SPECTRA
-----------------------------

Center of mass = (  0.1760, -0.2862, -0.0948)
Calculating the Dipole integrals                  ... done
Transforming integrals                            ... done
Calculating the Linear Momentum integrals         ... done
Transforming integrals                            ... done
Calculating angular momentum integrals            ... done
Transforming integrals                            ... done

-----------------------------------------------------------------------------
         ABSORPTION SPECTRUM VIA TRANSITION ELECTRIC DIPOLE MOMENTS
-----------------------------------------------------------------------------
State   Energy    Wavelength  fosc         T2        TX        TY        TZ  
        (cm-1)      (nm)                 (au**2)    (au)      (au)      (au) 
-----------------------------------------------------------------------------
   1   31817.1    314.3   0.098318068   1.01730  -0.96118  -0.03600   0.30353
   2   39764.0    251.5   0.005024319   0.04160  -0.01704  -0.00048   0.20324
   3   40170.8    248.9   0.004009290   0.03286   0.09184  -0.15622  -0.00429
   4   41513.1    240.9   0.003736544   0.02963  -0.00758  -0.17188  -0.00564
   5   43291.4    231.0   0.010282355   0.07819  -0.00290   0.24691  -0.13123
   6   44598.7    224.2   0.002268835   0.01675   0.00822   0.12911   0.00334
   7   44945.6    222.5   0.121014130   0.88639  -0.29773  -0.87739  -0.16713
   8   45287.7    220.8   0.007075551   0.05143  -0.12909  -0.08699  -0.16493
   9   45358.0    220.5   0.003242328   0.02353   0.09732  -0.11841   0.00636
  10   46234.9    216.3   0.005890716   0.04194   0.01920   0.10938   0.17208

-----------------------------------------------------------------------------
         ABSORPTION SPECTRUM VIA TRANSITION VELOCITY DIPOLE MOMENTS
-----------------------------------------------------------------------------
State   Energy    Wavelength   fosc        P2         PX        PY        PZ  
        (cm-1)      (nm)                 (au**2)     (au)      (au)      (au) 
-----------------------------------------------------------------------------
   1   31817.1    314.3   0.017370044   0.00378  -0.01400  -0.05777  -0.01563
   2   39764.0    251.5   0.000831148   0.00023   0.00950   0.00816   0.00830
   3   40170.8    248.9   0.001437690   0.00039  -0.00185   0.01938  -0.00396
   4   41513.1    240.9   0.000257704   0.00007   0.00034   0.00740   0.00427
   5   43291.4    231.0   0.001206173   0.00036   0.01874   0.00067  -0.00225
   6   44598.7    224.2   0.000657382   0.00020   0.01416  -0.00002  -0.00006
   7   44945.6    222.5   0.043460462   0.01335   0.03684   0.10738   0.02148
   8   45287.7    220.8   0.004823624   0.00149   0.02106   0.00365   0.03219
   9   45358.0    220.5   0.001380897   0.00043  -0.01268   0.01364   0.00901
  10   46234.9    216.3   0.006359354   0.00201  -0.00108  -0.00140  -0.04479

-------------------------------------------------------------------
                             CD SPECTRUM
-------------------------------------------------------------------
State  Energy     Wavelength     R         MX        MY        MZ   
       (cm-1)       (nm)     (1e40*cgs)   (au)      (au)      (au)  
-------------------------------------------------------------------
   1   31817.1    314.3    -40.56487   0.28238   0.16707   0.63053
   2   39764.0    251.5      4.95887   0.23897  -0.17452   0.07138
   3   40170.8    248.9      2.78954  -0.02725  -0.05208  -0.06587
   4   41513.1    240.9    -13.75704  -0.05699   0.17162   0.02016
   5   43291.4    231.0      6.60047  -0.10506  -0.07035  -0.23673
   6   44598.7    224.2      0.77980   0.15278   0.00625  -0.12254
   7   44945.6    222.5     23.03531   0.01029  -0.07181   0.06633
   8   45287.7    220.8     -2.47868   0.06058  -0.03434   0.00257
   9   45358.0    220.5      1.12145   0.01780  -0.00540   0.00106
  10   46234.9    216.3    -14.60677   0.24942  -0.09212  -0.14933

-------------------------------------------------------------------
         CD SPECTRUM VIA TRANSITION VELOCITY DIPOLE MOMENTS        
-------------------------------------------------------------------
State  Energy     Wavelength     R         MX        MY        MZ   
       (cm-1)       (nm)     (1e40*cgs)   (au)      (au)      (au)  
-------------------------------------------------------------------
   1   31817.1    314.3    -76.28492   0.28238   0.16707   0.63053
   2   39764.0    251.5      3.74491   0.23897  -0.17452   0.07138
   3   40170.8    248.9     -1.79870  -0.02725  -0.05208  -0.06587
   4   41513.1    240.9      3.33054  -0.05699   0.17162   0.02016
   5   43291.4    231.0     -3.54660  -0.10506  -0.07035  -0.23673
   6   44598.7    224.2      5.03444   0.15278   0.00625  -0.12254
   7   44945.6    222.5    -13.60100   0.01029  -0.07181   0.06633
   8   45287.7    220.8      2.81788   0.06058  -0.03434   0.00257
   9   45358.0    220.5     -0.66128   0.01780  -0.00540   0.00106
  10   46234.9    216.3     14.65427   0.24942  -0.09212  -0.14933

Total run time:      247.036 sec

           *** ORCA-CIS/TD-DFT FINISHED WITHOUT ERROR ***

Maximum memory used throughout the entire CIS-calculation: 816.1 MB

-----------------------
CIS/TD-DFT TOTAL ENERGY
-----------------------

    E(SCF)  =   -643.046684108 Eh
    DE(CIS) =      0.144969584 Eh (Root  1)
    ----------------------------- ---------
    E(tot)  =   -642.901714524 Eh


-------------------------   --------------------
FINAL SINGLE POINT ENERGY      -642.901714524277
-------------------------   --------------------


                            ***************************************
                            *     ORCA property calculations      *
                            ***************************************

                                    ---------------------
                                    Active property flags
                                    ---------------------
   (+) Dipole Moment


------------------------------------------------------------------------------
                       ORCA ELECTRIC PROPERTIES CALCULATION
------------------------------------------------------------------------------

Dipole Moment Calculation                       ... on
Quadrupole Moment Calculation                   ... off
Polarizability Calculation                      ... off
GBWName                                         ... b3lyp-train-11_job2.gbw
Electron density                                ... b3lyp-train-11_job2.scfp
The origin for moment calculation is the CENTER OF MASS  = ( 0.175979, -0.286206 -0.094801)

-------------
DIPOLE MOMENT
-------------
                                X             Y             Z
Electronic contribution:     -0.08481      -1.09671       0.00579
Nuclear contribution   :     -1.01370       3.44933       1.10684
                        -----------------------------------------
Total Dipole Moment    :     -1.09851       2.35262       1.11263
                        -----------------------------------------
Magnitude (a.u.)       :      2.82480
Magnitude (Debye)      :      7.18006



--------------------
Rotational spectrum 
--------------------
 
Rotational constants in cm-1:     0.028907     0.022257     0.014540 
Rotational constants in MHz :   866.595764   667.237952   435.894652 

 Dipole components along the rotational axes: 
x,y,z [a.u.] :    -1.194933     2.473573     0.658061 
x,y,z [Debye]:    -3.037279     6.287324     1.672657 

 

Timings for individual modules:

Sum of individual times         ...      399.159 sec (=   6.653 min)
GTO integral calculation        ...        3.180 sec (=   0.053 min)   0.8 %
SCF iterations                  ...      148.157 sec (=   2.469 min)  37.1 %
CIS module                      ...      247.823 sec (=   4.130 min)  62.1 %



                             ****ORCA TERMINATED NORMALLY****
TOTAL RUN TIME: 0 days 4 hours 14 minutes 39 seconds 387 msec
