
                                 *****************
                                 * O   R   C   A *
                                 *****************

                                            #,                                       
                                            ###                                      
                                            ####                                     
                                            #####                                    
                                            ######                                   
                                           ########,                                 
                                     ,,################,,,,,                         
                               ,,#################################,,                 
                          ,,##########################################,,             
                       ,#########################################, ''#####,          
                    ,#############################################,,   '####,        
                  ,##################################################,,,,####,       
                ,###########''''           ''''###############################       
              ,#####''   ,,,,##########,,,,          '''####'''          '####       
            ,##' ,,,,###########################,,,                        '##       
           ' ,,###''''                  '''############,,,                           
         ,,##''                                '''############,,,,        ,,,,,,###''
      ,#''                                            '''#######################'''  
     '                                                          ''''####''''         
             ,#######,   #######,   ,#######,      ##                                
            ,#'     '#,  ##    ##  ,#'     '#,    #''#        ######   ,####,        
            ##       ##  ##   ,#'  ##            #'  '#       #        #'  '#        
            ##       ##  #######   ##           ,######,      #####,   #    #        
            '#,     ,#'  ##    ##  '#,     ,#' ,#      #,         ##   #,  ,#        
             '#######'   ##     ##  '#######'  #'      '#     #####' # '####'        



                  #######################################################
                  #                        -***-                        #
                  #          Department of theory and spectroscopy      #
                  #    Directorship and core code : Frank Neese         #
                  #        Max Planck Institute fuer Kohlenforschung    #
                  #                Kaiser Wilhelm Platz 1               #
                  #                 D-45470 Muelheim/Ruhr               #
                  #                      Germany                        #
                  #                                                     #
                  #                  All rights reserved                #
                  #                        -***-                        #
                  #######################################################


                         Program Version 5.0.2 -  RELEASE  -


 With contributions from (in alphabetic order):
   Daniel Aravena         : Magnetic Suceptibility
   Michael Atanasov       : Ab Initio Ligand Field Theory (pilot matlab implementation)
   Alexander A. Auer      : GIAO ZORA, VPT2 properties, NMR spectrum
   Ute Becker             : Parallelization
   Giovanni Bistoni       : ED, misc. LED, open-shell LED, HFLD
   Martin Brehm           : Molecular dynamics
   Dmytro Bykov           : SCF Hessian
   Vijay G. Chilkuri      : MRCI spin determinant printing, contributions to CSF-ICE
   Dipayan Datta          : RHF DLPNO-CCSD density
   Achintya Kumar Dutta   : EOM-CC, STEOM-CC
   Dmitry Ganyushin       : Spin-Orbit,Spin-Spin,Magnetic field MRCI
   Miquel Garcia          : C-PCM and meta-GGA Hessian, CC/C-PCM, Gaussian charge scheme
   Yang Guo               : DLPNO-NEVPT2, F12-NEVPT2, CIM, IAO-localization
   Andreas Hansen         : Spin unrestricted coupled pair/coupled cluster methods
   Benjamin Helmich-Paris : MC-RPA, TRAH-SCF, COSX integrals
   Lee Huntington         : MR-EOM, pCC
   Robert Izsak           : Overlap fitted RIJCOSX, COSX-SCS-MP3, EOM
   Marcus Kettner         : VPT2
   Christian Kollmar      : KDIIS, OOCD, Brueckner-CCSD(T), CCSD density, CASPT2, CASPT2-K
   Simone Kossmann        : Meta GGA functionals, TD-DFT gradient, OOMP2, MP2 Hessian
   Martin Krupicka        : Initial AUTO-CI
   Lucas Lang             : DCDCAS
   Marvin Lechner         : AUTO-CI (C++ implementation), FIC-MRCC
   Dagmar Lenk            : GEPOL surface, SMD
   Dimitrios Liakos       : Extrapolation schemes; Compound Job, initial MDCI parallelization
   Dimitrios Manganas     : Further ROCIS development; embedding schemes
   Dimitrios Pantazis     : SARC Basis sets
   Anastasios Papadopoulos: AUTO-CI, single reference methods and gradients
   Taras Petrenko         : DFT Hessian,TD-DFT gradient, ASA, ECA, R-Raman, ABS, FL, XAS/XES, NRVS
   Peter Pinski           : DLPNO-MP2, DLPNO-MP2 Gradient
   Christoph Reimann      : Effective Core Potentials
   Marius Retegan         : Local ZFS, SOC
   Christoph Riplinger    : Optimizer, TS searches, QM/MM, DLPNO-CCSD(T), (RO)-DLPNO pert. Triples
   Tobias Risthaus        : Range-separated hybrids, TD-DFT gradient, RPA, STAB
   Michael Roemelt        : Original ROCIS implementation
   Masaaki Saitow         : Open-shell DLPNO-CCSD energy and density
   Barbara Sandhoefer     : DKH picture change effects
   Avijit Sen             : IP-ROCIS
   Kantharuban Sivalingam : CASSCF convergence, NEVPT2, FIC-MRCI
   Bernardo de Souza      : ESD, SOC TD-DFT
   Georgi Stoychev        : AutoAux, RI-MP2 NMR, DLPNO-MP2 response
   Willem Van den Heuvel  : Paramagnetic NMR
   Boris Wezisla          : Elementary symmetry handling
   Frank Wennmohs         : Technical directorship


 We gratefully acknowledge several colleagues who have allowed us to
 interface, adapt or use parts of their codes:
   Stefan Grimme, W. Hujo, H. Kruse, P. Pracht,  : VdW corrections, initial TS optimization,
                  C. Bannwarth, S. Ehlert          DFT functionals, gCP, sTDA/sTD-DF
   Ed Valeev, F. Pavosevic, A. Kumar             : LibInt (2-el integral package), F12 methods
   Garnet Chan, S. Sharma, J. Yang, R. Olivares  : DMRG
   Ulf Ekstrom                                   : XCFun DFT Library
   Mihaly Kallay                                 : mrcc  (arbitrary order and MRCC methods)
   Jiri Pittner, Ondrej Demel                    : Mk-CCSD
   Frank Weinhold                                : gennbo (NPA and NBO analysis)
   Christopher J. Cramer and Donald G. Truhlar   : smd solvation model
   Lars Goerigk                                  : TD-DFT with DH, B97 family of functionals
   V. Asgeirsson, H. Jonsson                     : NEB implementation
   FAccTs GmbH                                   : IRC, NEB, NEB-TS, DLPNO-Multilevel, CI-OPT
                                                   MM, QMMM, 2- and 3-layer-ONIOM, Crystal-QMMM,
                                                   LR-CPCM, SF, NACMEs, symmetry and pop. for TD-DFT,
                                                   nearIR, NL-DFT gradient (VV10), updates on ESD,
                                                   ML-optimized integration grids
   S Lehtola, MJT Oliveira, MAL Marques          : LibXC Library
   Liviu Ungur et al                             : ANISO software


 Your calculation uses the libint2 library for the computation of 2-el integrals
 For citations please refer to: http://libint.valeyev.net

 Your ORCA version has been built with support for libXC version: 5.1.0
 For citations please refer to: https://tddft.org/programs/libxc/

 This ORCA versions uses:
   CBLAS   interface :  Fast vector & matrix operations
   LAPACKE interface :  Fast linear algebra routines
   SCALAPACK package :  Parallel linear algebra routines
   Shared memory     :  Shared parallel matrices
   BLAS/LAPACK       :  OpenBLAS 0.3.15  USE64BITINT DYNAMIC_ARCH NO_AFFINITY Sandybridge SINGLE_THREADED
        Core in use  :  Sandybridge
   Copyright (c) 2011-2014, The OpenBLAS Project


Your calculation utilizes the SMD solvation module
Please cite in your paper:
A.V. Marenich, C.J. Cramer, D.G. Truhlar J. Phys. Chem. B, 113, (2009), 6378 

XCFun DFT library Copyright 2009-2010 Ulf Ekstrom and contributors.
See http://admol.org/xcfun for more information.
This is free software; see the source code for copying conditions.
There is ABSOLUTELY NO WARRANTY; not even for MERCHANTABILITY or FITNESS FOR A PARTICULAR PURPOSE.
For details see the documentation.
Scientific users of this library should cite U. Ekstrom, L. Visscher, R. Bast, A. J. Thorvaldsen and K. Ruud;
J.Chem.Theor.Comp. 2010, DOI: 10.1021/ct100117s
XCFun Version 0.99 

================================================================================

----- Orbital basis set information -----
Your calculation utilizes the basis: aug-cc-pVTZ 
    H, B-Ne : Obtained from the ccRepo (grant-hill.group.shef.ac.uk/ccrepo) Feb. 2017
              R. A. Kendall, T. H. Dunning, Jr., R. J. Harrison, J. Chem. Phys. 96, 6796 (1992)
         He : Obtained from the ccRepo (grant-hill.group.shef.ac.uk/ccrepo) Feb. 2017
              D. E. Woon, T. H. Dunning, Jr., J. Chem. Phys. 100, 2975 (1994)
  Li-Be, Na : Obtained from the ccRepo (grant-hill.group.shef.ac.uk/ccrepo) Feb. 2017
              B. P. Prascher, D. E. Woon, K. A. Peterson, T. H. Dunning, Jr., A. K. Wilson, Theor. Chem. Acc. 128, 69 (2011)
         Mg : Obtained from the Peterson Research Group Website (tyr0.chem.wsu.edu/~kipeters) Feb. 2017
              B. P. Prascher, D. E. Woon, K. A. Peterson, T. H. Dunning, Jr., A. K. Wilson, Theor. Chem. Acc. 128, 69 (2011)
      Al-Ar : Obtained from the ccRepo (grant-hill.group.shef.ac.uk/ccrepo) Feb. 2017
              D. E. Woon, T. H. Dunning, Jr., J. Chem. Phys. 98, 1358 (1993)
      Sc-Zn : Obtained from the ccRepo (grant-hill.group.shef.ac.uk/ccrepo) Feb. 2017
              N. B. Balabanov, K. A. Peterson, J. Chem. Phys. 123, 064107 (2005)
              N. B. Balabanov, K. A. Peterson, J. Chem. Phys. 125, 074110 (2006)
      Ga-Kr : Obtained from the ccRepo (grant-hill.group.shef.ac.uk/ccrepo) Feb. 2017
              A. K. Wilson, D. E. Woon, K. A. Peterson, T. H. Dunning, Jr., J. Chem. Phys. 110, 7667 (1999)
     Ag, Au : Obtained from the Peterson Research Group Website (tyr0.chem.wsu.edu/~kipeters) Feb. 2017
              K. A. Peterson, C. Puzzarini, Theor. Chem. Acc. 114, 283 (2005)

The basis set includes element-specific modifications.

Your calculation utilizes the basis: cc-pVTZ 
       H, B-Ne : Obtained from the ccRepo (grant-hill.group.shef.ac.uk/ccrepo) Feb. 2017
                 T. H. Dunning, Jr., J. Chem. Phys. 90, 1007 (1989)
            He : Obtained from the ccRepo (grant-hill.group.shef.ac.uk/ccrepo) Feb. 2017
                 D. E. Woon, T. H. Dunning, Jr., J. Chem. Phys. 100, 2975 (1994)
  Li-Be, Na-Mg : Obtained from the ccRepo (grant-hill.group.shef.ac.uk/ccrepo) Feb. 2017
                 B. P. Prascher, D. E. Woon, K. A. Peterson, T. H. Dunning, Jr., A. K. Wilson, Theor. Chem. Acc. 128, 69 (2011)
         Al-Ar : Obtained from the ccRepo (grant-hill.group.shef.ac.uk/ccrepo) Feb. 2017
                 D. E. Woon, T. H. Dunning, Jr., J. Chem. Phys. 98, 1358 (1993)
            Ca : Obtained from the Peterson Research Group Website (tyr0.chem.wsu.edu/~kipeters) Feb. 2017
                 J. Koput, K. A. Peterson, J. Phys. Chem. 106, 9595 (2002)
         Sc-Zn : Obtained from the ccRepo (grant-hill.group.shef.ac.uk/ccrepo) Feb. 2017
                 N. B. Balabanov, K. A. Peterson, J. Chem. Phys. 123, 064107 (2005)
                 N. B. Balabanov, K. A. Peterson, J. Chem. Phys. 125, 074110 (2006)
         Ga-Kr : Obtained from the ccRepo (grant-hill.group.shef.ac.uk/ccrepo) Feb. 2017
                 A. K. Wilson, D. E. Woon, K. A. Peterson, T. H. Dunning, Jr., J. Chem. Phys. 110, 7667 (1999)
             Y : Obtained from the ccRepo (grant-hill.group.shef.ac.uk/ccrepo) Feb. 2017
                 K. A. Peterson, D. Figgen, M. Dolg, H. Stoll, J. Chem. Phys. 126, 124101 (2007)
        Ag, Au : Obtained from the Peterson Research Group Website (tyr0.chem.wsu.edu/~kipeters) Feb. 2017
                 K. A. Peterson, C. Puzzarini, Theor. Chem. Acc. 114, 283 (2005)

----- AuxJ basis set information -----
Your calculation utilizes the auxiliary basis: aug-cc-pVTZ/JK 
  H, B-F, Al-Cl, Ga-Br : Obtained from the TURBOMOLE 7.0 basis set library

The basis set includes element-specific modifications.

Your calculation utilizes the auxiliary basis: cc-pVTZ/JK 
  H, B-F, Al-Cl, Ga-Br : Obtained from the TURBOMOLE 7.0 basis set library

----- AuxC basis set information -----
Your calculation utilizes the auxiliary basis: aug-cc-pVTZ/C 
  H-He, B-F, Al-Ar, Ga-Kr : Obtained from the EMSL Basis Set Exchange (bse.pnl.gov) Feb. 2017
                            F. Weigend, A. Kohn, C. Hattig, J. Chem. Phys. 116, 3175 (2002)
                   Be, Mg : Obtained from the TURBOMOLE 7.0 basis set library
                            C. Haettig, Phys. Chem. Chem. Phys. 7, 59 (2005)
                       Ne : Obtained from the EMSL Basis Set Exchange (bse.pnl.gov) Feb. 2017
                            C. Haettig, Phys. Chem. Chem. Phys. 7, 59 (2005)
                            F. Weigend, A. Kohn, C. Hattig, J. Chem. Phys. 116, 3175 (2002)
                    Sc-Zn : Obtained from the EMSL Basis Set Exchange (bse.pnl.gov) Feb. 2017
                            J. G. Hill, J. A. Platts, J. Chem. Phys. 128, 044104 (2008)

The basis set includes element-specific modifications.

Your calculation utilizes the auxiliary basis: cc-pVTZ/C 
  Obtained from the EMSL Basis Set Exchange (bse.pnl.gov) Feb. 2017
  H-He, B-F, Al-Ar, Ga-Kr : F. Weigend, A. Kohn, C. Hattig, J. Chem. Phys. 116, 3175 (2002)
             Li-Be, Na-Mg : C. Haettig, Phys. Chem. Chem. Phys. 7, 59 (2005)
                       Ne : C. Haettig, Phys. Chem. Chem. Phys. 7, 59 (2005)
                            F. Weigend, A. Kohn, C. Hattig, J. Chem. Phys. 116, 3175 (2002)
                    Sc-Zn : J. G. Hill, J. A. Platts, J. Chem. Phys. 128, 044104 (2008)

================================================================================
                                        WARNINGS
                       Please study these warnings very carefully!
================================================================================


WARNING: Geometry Optimization
  ===> : Switching off AutoStart
         For restart on a previous wavefunction, please use MOREAD

INFO   : the flag for use of the SHARK integral package has been found!



***************************************
The coordinates will be read from file: 
***************************************


Your calculation utilizes the SMD solvation module
Please cite in your paper:
A.V. Marenich, C.J. Cramer, D.G. Truhlar J. Phys. Chem. B, 113, (2009), 6378 

XCFun DFT library Copyright 2009-2010 Ulf Ekstrom and contributors.
See http://admol.org/xcfun for more information.
This is free software; see the source code for copying conditions.
There is ABSOLUTELY NO WARRANTY; not even for MERCHANTABILITY or FITNESS FOR A PARTICULAR PURPOSE.
For details see the documentation.
Scientific users of this library should cite U. Ekstrom, L. Visscher, R. Bast, A. J. Thorvaldsen and K. Ruud;
J.Chem.Theor.Comp. 2010, DOI: 10.1021/ct100117s
XCFun Version 0.99 

================================================================================

----- Orbital basis set information -----
Your calculation utilizes the basis: aug-cc-pVTZ 
    H, B-Ne : Obtained from the ccRepo (grant-hill.group.shef.ac.uk/ccrepo) Feb. 2017
              R. A. Kendall, T. H. Dunning, Jr., R. J. Harrison, J. Chem. Phys. 96, 6796 (1992)
         He : Obtained from the ccRepo (grant-hill.group.shef.ac.uk/ccrepo) Feb. 2017
              D. E. Woon, T. H. Dunning, Jr., J. Chem. Phys. 100, 2975 (1994)
  Li-Be, Na : Obtained from the ccRepo (grant-hill.group.shef.ac.uk/ccrepo) Feb. 2017
              B. P. Prascher, D. E. Woon, K. A. Peterson, T. H. Dunning, Jr., A. K. Wilson, Theor. Chem. Acc. 128, 69 (2011)
         Mg : Obtained from the Peterson Research Group Website (tyr0.chem.wsu.edu/~kipeters) Feb. 2017
              B. P. Prascher, D. E. Woon, K. A. Peterson, T. H. Dunning, Jr., A. K. Wilson, Theor. Chem. Acc. 128, 69 (2011)
      Al-Ar : Obtained from the ccRepo (grant-hill.group.shef.ac.uk/ccrepo) Feb. 2017
              D. E. Woon, T. H. Dunning, Jr., J. Chem. Phys. 98, 1358 (1993)
      Sc-Zn : Obtained from the ccRepo (grant-hill.group.shef.ac.uk/ccrepo) Feb. 2017
              N. B. Balabanov, K. A. Peterson, J. Chem. Phys. 123, 064107 (2005)
              N. B. Balabanov, K. A. Peterson, J. Chem. Phys. 125, 074110 (2006)
      Ga-Kr : Obtained from the ccRepo (grant-hill.group.shef.ac.uk/ccrepo) Feb. 2017
              A. K. Wilson, D. E. Woon, K. A. Peterson, T. H. Dunning, Jr., J. Chem. Phys. 110, 7667 (1999)
     Ag, Au : Obtained from the Peterson Research Group Website (tyr0.chem.wsu.edu/~kipeters) Feb. 2017
              K. A. Peterson, C. Puzzarini, Theor. Chem. Acc. 114, 283 (2005)

The basis set includes element-specific modifications.

Your calculation utilizes the basis: cc-pVTZ 
       H, B-Ne : Obtained from the ccRepo (grant-hill.group.shef.ac.uk/ccrepo) Feb. 2017
                 T. H. Dunning, Jr., J. Chem. Phys. 90, 1007 (1989)
            He : Obtained from the ccRepo (grant-hill.group.shef.ac.uk/ccrepo) Feb. 2017
                 D. E. Woon, T. H. Dunning, Jr., J. Chem. Phys. 100, 2975 (1994)
  Li-Be, Na-Mg : Obtained from the ccRepo (grant-hill.group.shef.ac.uk/ccrepo) Feb. 2017
                 B. P. Prascher, D. E. Woon, K. A. Peterson, T. H. Dunning, Jr., A. K. Wilson, Theor. Chem. Acc. 128, 69 (2011)
         Al-Ar : Obtained from the ccRepo (grant-hill.group.shef.ac.uk/ccrepo) Feb. 2017
                 D. E. Woon, T. H. Dunning, Jr., J. Chem. Phys. 98, 1358 (1993)
            Ca : Obtained from the Peterson Research Group Website (tyr0.chem.wsu.edu/~kipeters) Feb. 2017
                 J. Koput, K. A. Peterson, J. Phys. Chem. 106, 9595 (2002)
         Sc-Zn : Obtained from the ccRepo (grant-hill.group.shef.ac.uk/ccrepo) Feb. 2017
                 N. B. Balabanov, K. A. Peterson, J. Chem. Phys. 123, 064107 (2005)
                 N. B. Balabanov, K. A. Peterson, J. Chem. Phys. 125, 074110 (2006)
         Ga-Kr : Obtained from the ccRepo (grant-hill.group.shef.ac.uk/ccrepo) Feb. 2017
                 A. K. Wilson, D. E. Woon, K. A. Peterson, T. H. Dunning, Jr., J. Chem. Phys. 110, 7667 (1999)
             Y : Obtained from the ccRepo (grant-hill.group.shef.ac.uk/ccrepo) Feb. 2017
                 K. A. Peterson, D. Figgen, M. Dolg, H. Stoll, J. Chem. Phys. 126, 124101 (2007)
        Ag, Au : Obtained from the Peterson Research Group Website (tyr0.chem.wsu.edu/~kipeters) Feb. 2017
                 K. A. Peterson, C. Puzzarini, Theor. Chem. Acc. 114, 283 (2005)

----- AuxJ basis set information -----
Your calculation utilizes the auxiliary basis: aug-cc-pVTZ/JK 
  H, B-F, Al-Cl, Ga-Br : Obtained from the TURBOMOLE 7.0 basis set library

The basis set includes element-specific modifications.

Your calculation utilizes the auxiliary basis: cc-pVTZ/JK 
  H, B-F, Al-Cl, Ga-Br : Obtained from the TURBOMOLE 7.0 basis set library

----- AuxC basis set information -----
Your calculation utilizes the auxiliary basis: aug-cc-pVTZ/C 
  H-He, B-F, Al-Ar, Ga-Kr : Obtained from the EMSL Basis Set Exchange (bse.pnl.gov) Feb. 2017
                            F. Weigend, A. Kohn, C. Hattig, J. Chem. Phys. 116, 3175 (2002)
                   Be, Mg : Obtained from the TURBOMOLE 7.0 basis set library
                            C. Haettig, Phys. Chem. Chem. Phys. 7, 59 (2005)
                       Ne : Obtained from the EMSL Basis Set Exchange (bse.pnl.gov) Feb. 2017
                            C. Haettig, Phys. Chem. Chem. Phys. 7, 59 (2005)
                            F. Weigend, A. Kohn, C. Hattig, J. Chem. Phys. 116, 3175 (2002)
                    Sc-Zn : Obtained from the EMSL Basis Set Exchange (bse.pnl.gov) Feb. 2017
                            J. G. Hill, J. A. Platts, J. Chem. Phys. 128, 044104 (2008)

The basis set includes element-specific modifications.

Your calculation utilizes the auxiliary basis: cc-pVTZ/C 
  Obtained from the EMSL Basis Set Exchange (bse.pnl.gov) Feb. 2017
  H-He, B-F, Al-Ar, Ga-Kr : F. Weigend, A. Kohn, C. Hattig, J. Chem. Phys. 116, 3175 (2002)
             Li-Be, Na-Mg : C. Haettig, Phys. Chem. Chem. Phys. 7, 59 (2005)
                       Ne : C. Haettig, Phys. Chem. Chem. Phys. 7, 59 (2005)
                            F. Weigend, A. Kohn, C. Hattig, J. Chem. Phys. 116, 3175 (2002)
                    Sc-Zn : J. G. Hill, J. A. Platts, J. Chem. Phys. 128, 044104 (2008)

================================================================================
                                        WARNINGS
                       Please study these warnings very carefully!
================================================================================

INFO   : Checking CIS options ...

INFO   : the flag for use of the SHARK integral package has been found!

================================================================================
                                       INPUT FILE
================================================================================
NAME = m062x-train-11.inp
|  1> ! m062x defgrid3 aug-cc-PVTZ RIJCOSX Opt
|  2> %maxcore 4000
|  3> %basis
|  4>  AuxJ "aug-cc-PVTZ/JK"
|  5>  AuxC "aug-cc-PVTZ/C"
|  6>  newGTO H "cc-PVTZ" end
|  7>  newAuxJGTO H "cc-PVTZ/JK" end
|  8>  newAuxCGTO H "cc-PVTZ/C" end
|  9> end
| 10> %cpcm
| 11>  SMD true
| 12>  SMDsolvent "ethanol"
| 13> end
| 14> %pal nprocs 4 end
| 15> * xyz 0 1
| 16> N         -2.13160       -3.53150       -0.43250
| 17> C         -1.57570       -2.55260       -0.63200
| 18> C         -0.89460       -1.30680       -0.85160
| 19> C          0.62070       -1.46820       -1.05290
| 20> C          1.21490       -0.12200       -0.62600
| 21> C          2.51050       -0.27790        0.19930
| 22> N          2.91190        0.89490        0.72050
| 23> O          3.09230       -1.32760        0.33320
| 24> N          0.18610        0.51360        0.17560
| 25> N          0.17690        1.82820        0.27800
| 26> C         -0.90910        2.43540        0.60720
| 27> C         -2.17820        1.75380        0.67270
| 28> C         -2.22420        0.42980        0.50170
| 29> C         -0.96120       -0.36810        0.38090
| 30> H         -1.34710       -0.80480       -1.71590
| 31> H          1.01430       -2.25180       -0.40120
| 32> H          0.87550       -1.71890       -2.08030
| 33> H          1.45630        0.51580       -1.48700
| 34> H          3.70900        0.91340        1.33490
| 35> H          2.30520        1.70030        0.66600
| 36> H         -0.83820        3.50140        0.74460
| 37> H         -3.07550        2.34250        0.77660
| 38> H         -3.14950       -0.12280        0.43620
| 39> H         -0.78870       -0.97630        1.28840
| 40> *
| 41> 
| 42> 
| 43> $new_job
| 44> ! m062x defgrid3 aug-cc-PVTZ RIJCOSX SP
| 45> %maxcore 4000
| 46> %basis
| 47>  AuxJ "aug-cc-PVTZ/JK"
| 48>  AuxC "aug-cc-PVTZ/C"
| 49>  newGTO H "cc-PVTZ" end
| 50>  newAuxJGTO H "cc-PVTZ/JK" end
| 51>  newAuxCGTO H "cc-PVTZ/C" end
| 52> end
| 53> %cpcm
| 54>  SMD true
| 55>  SMDsolvent "ethanol"
| 56> end
| 57> %pal nprocs 4 end
| 58> %tddft
| 59>  nroots 10
| 60>  maxdim 7
| 61> end
| 62> * xyzfile 0 1
| 63> 
| 64>                          ****END OF INPUT****
================================================================================


                 $$$$$$$$$$$$$$$$$$$$$$$$$$$$$$$$$$$$$$$$$$$$$$ 
                 $ THERE ARE  2 JOBS TO BE PROCESSED THIS RUN $
                 $$$$$$$$$$$$$$$$$$$$$$$$$$$$$$$$$$$$$$$$$$$$$$ 




                 $$$$$$$$$$$$$$$$  JOB NUMBER  1 $$$$$$$$$$$$$$


                       *****************************
                       * Geometry Optimization Run *
                       *****************************

Geometry optimization settings:
Update method            Update   .... BFGS
Choice of coordinates    CoordSys .... Z-matrix Internals
Initial Hessian          InHess   .... Almoef's Model

Convergence Tolerances:
Energy Change            TolE     ....  5.0000e-06 Eh
Max. Gradient            TolMAXG  ....  3.0000e-04 Eh/bohr
RMS Gradient             TolRMSG  ....  1.0000e-04 Eh/bohr
Max. Displacement        TolMAXD  ....  4.0000e-03 bohr
RMS Displacement         TolRMSD  ....  2.0000e-03 bohr
Strict Convergence                ....  False
------------------------------------------------------------------------------
                        ORCA OPTIMIZATION COORDINATE SETUP
------------------------------------------------------------------------------

The optimization will be done in new redundant internal coordinates
Making redundant internal coordinates   ...  (new redundants) done
Evaluating the initial hessian          ...  (Almloef) done
Evaluating the coordinates              ...  done
Calculating the B-matrix                .... done
Calculating the G-matrix                .... done
Diagonalizing the G-matrix              .... done
Small eigenvalue found = 2.354e-02
The first mode is                       ....   71
The number of degrees of freedom        ....   66

    -----------------------------------------------------------------
                    Redundant Internal Coordinates


    -----------------------------------------------------------------
         Definition                    Initial Value    Approx d2E/dq
    -----------------------------------------------------------------
      1. B(C   1,N   0)                  1.1433         1.385207   
      2. B(C   2,C   1)                  1.4367         0.526276   
      3. B(C   3,C   2)                  1.5371         0.363944   
      4. B(C   4,C   3)                  1.5322         0.370597   
      5. B(C   5,C   4)                  1.5440         0.354818   
      6. B(N   6,C   5)                  1.3447         0.660908   
      7. B(O   7,C   5)                  1.2076         1.093674   
      8. B(N   8,C   4)                  1.4509         0.447492   
      9. B(N   9,N   8)                  1.3186         0.651484   
     10. B(C  10,N   9)                  1.2870         0.816862   
     11. B(C  11,C  10)                  1.4420         0.516071   
     12. B(C  12,C  11)                  1.3358         0.762480   
     13. B(C  13,C  12)                  1.4988         0.418941   
     14. B(C  13,N   8)                  1.4615         0.430407   
     15. B(C  13,C   2)                  1.5507         0.346228   
     16. B(H  14,C   2)                  1.0972         0.350743   
     17. B(H  15,C   3)                  1.0925         0.356744   
     18. B(H  16,C   3)                  1.0878         0.363013   
     19. B(H  17,C   4)                  1.0984         0.349215   
     20. B(H  18,N   6)                  1.0066         0.438183   
     21. B(H  19,N   6)                  1.0098         0.433004   
     22. B(H  20,C  10)                  1.0772         0.377500   
     23. B(H  21,C  11)                  1.0782         0.376056   
     24. B(H  22,C  12)                  1.0797         0.373933   
     25. B(H  23,C  13)                  1.1060         0.339553   
     26. L(N   0,C   1,C   2,C  13, 2) 180.6772         0.484570   
     27. L(N   0,C   1,C   2,C  13, 1) 178.4979         0.484570   
     28. A(C   1,C   2,C   3)          113.3477         0.383732   
     29. A(C  13,C   2,H  14)          109.3556         0.318930   
     30. A(C   3,C   2,C  13)          102.1217         0.357082   
     31. A(C   3,C   2,H  14)          110.5762         0.321542   
     32. A(C   1,C   2,H  14)          108.7617         0.341788   
     33. A(C   1,C   2,C  13)          112.5232         0.380422   
     34. A(C   2,C   3,H  16)          112.2591         0.323359   
     35. A(C   2,C   3,H  15)          110.6305         0.322437   
     36. A(C   4,C   3,H  16)          112.0120         0.324322   
     37. A(C   2,C   3,C   4)          104.6886         0.361241   
     38. A(H  15,C   3,H  16)          108.2819         0.290780   
     39. A(C   4,C   3,H  15)          108.9204         0.323396   
     40. A(C   3,C   4,H  17)          112.1495         0.322267   
     41. A(C   5,C   4,N   8)          110.1162         0.369157   
     42. A(C   3,C   4,C   5)          112.6829         0.359681   
     43. A(C   3,C   4,N   8)          105.2988         0.371930   
     44. A(N   8,C   4,H  17)          109.5460         0.330434   
     45. A(C   5,C   4,H  17)          107.0505         0.319981   
     46. A(C   4,C   5,O   7)          123.4565         0.431961   
     47. A(C   4,C   5,N   6)          111.6903         0.395009   
     48. A(N   6,C   5,O   7)          124.8432         0.480559   
     49. A(C   5,N   6,H  19)          119.6929         0.362639   
     50. A(H  18,N   6,H  19)          119.6075         0.303901   
     51. A(C   5,N   6,H  18)          119.2745         0.363377   
     52. A(C   4,N   8,N   9)          118.9867         0.405143   
     53. A(N   9,N   8,C  13)          125.8087         0.402369   
     54. A(C   4,N   8,C  13)          111.7148         0.379267   
     55. A(N   8,N   9,C  10)          119.7421         0.451276   
     56. A(N   9,C  10,C  11)          122.0885         0.438449   
     57. A(C  11,C  10,H  20)          121.3257         0.344893   
     58. A(N   9,C  10,H  20)          116.3583         0.370585   
     59. A(C  10,C  11,C  12)          119.5369         0.435897   
     60. A(C  12,C  11,H  21)          121.6590         0.368286   
     61. A(C  10,C  11,H  21)          118.6016         0.344671   
     62. A(C  13,C  12,H  22)          116.4104         0.332572   
     63. A(C  11,C  12,H  22)          122.9939         0.367928   
     64. A(C  11,C  12,C  13)          120.5945         0.419906   
     65. A(N   8,C  13,H  23)          108.9407         0.326801   
     66. A(N   8,C  13,C  12)          110.5902         0.377340   
     67. A(C   2,C  13,H  23)          108.2146         0.317249   
     68. A(C   2,C  13,C  12)          114.9932         0.365758   
     69. A(C  12,C  13,H  23)          110.9804         0.327313   
     70. A(C   2,C  13,N   8)          102.6995         0.365164   
     71. D(H  15,C   3,C   2,H  14)   -159.8993         0.010611   
     72. D(H  16,C   3,C   2,C  13)   -155.0941         0.010611   
     73. D(H  15,C   3,C   2,C   1)    -37.4717         0.010611   
     74. D(C   4,C   3,C   2,C  13)    -33.3617         0.010611   
     75. D(H  16,C   3,C   2,C   1)     83.6108         0.010611   
     76. D(H  15,C   3,C   2,C  13)     83.8234         0.010611   
     77. D(C   4,C   3,C   2,C   1)   -154.6568         0.010611   
     78. D(H  16,C   3,C   2,H  14)    -38.8168         0.010611   
     79. D(C   4,C   3,C   2,H  14)     82.9156         0.010611   
     80. D(N   8,C   4,C   3,C   2)     18.6015         0.010977   
     81. D(N   8,C   4,C   3,H  15)    -99.7514         0.010977   
     82. D(C   5,C   4,C   3,H  16)    -99.4524         0.010977   
     83. D(C   5,C   4,C   3,H  15)     20.3003         0.010977   
     84. D(N   8,C   4,C   3,H  16)    140.4959         0.010977   
     85. D(C   5,C   4,C   3,C   2)    138.6532         0.010977   
     86. D(H  17,C   4,C   3,H  16)     21.4283         0.010977   
     87. D(H  17,C   4,C   3,H  15)    141.1810         0.010977   
     88. D(H  17,C   4,C   3,C   2)   -100.4662         0.010977   
     89. D(O   7,C   5,C   4,H  17)   -113.9776         0.009490   
     90. D(O   7,C   5,C   4,N   8)    127.0092         0.009490   
     91. D(O   7,C   5,C   4,C   3)      9.7747         0.009490   
     92. D(N   6,C   5,C   4,H  17)     64.9176         0.009490   
     93. D(N   6,C   5,C   4,N   8)    -54.0957         0.009490   
     94. D(N   6,C   5,C   4,C   3)   -171.3302         0.009490   
     95. D(H  19,N   6,C   5,C   4)      9.2919         0.035752   
     96. D(H  19,N   6,C   5,O   7)   -171.8313         0.035752   
     97. D(H  18,N   6,C   5,O   7)     -5.5030         0.035752   
     98. D(H  18,N   6,C   5,C   4)    175.6202         0.035752   
     99. D(N   9,N   8,C   4,C   3)   -155.3766         0.017080   
    100. D(N   9,N   8,C   4,C   5)     82.8904         0.017080   
    101. D(N   9,N   8,C   4,H  17)    -34.5866         0.017080   
    102. D(C  13,N   8,C   4,H  17)    125.5643         0.017080   
    103. D(C  13,N   8,C   4,C   5)   -116.9587         0.017080   
    104. D(C  13,N   8,C   4,C   3)      4.7744         0.017080   
    105. D(C  10,N   9,N   8,C  13)      1.2417         0.036925   
    106. D(C  10,N   9,N   8,C   4)    158.3510         0.036925   
    107. D(H  20,C  10,N   9,N   8)    175.7116         0.051687   
    108. D(C  11,C  10,N   9,N   8)     -9.7034         0.051687   
    109. D(H  21,C  11,C  10,H  20)      5.3234         0.018158   
    110. D(H  21,C  11,C  10,N   9)   -168.9957         0.018158   
    111. D(C  12,C  11,C  10,H  20)   -179.7613         0.018158   
    112. D(C  12,C  11,C  10,N   9)      5.9196         0.018158   
    113. D(H  22,C  12,C  11,H  21)      1.3573         0.041595   
    114. D(H  22,C  12,C  11,C  10)   -173.3975         0.041595   
    115. D(C  13,C  12,C  11,H  21)   -179.0560         0.041595   
    116. D(C  13,C  12,C  11,C  10)      6.1891         0.041595   
    117. D(C   2,C  13,C  12,C  11)   -128.4578         0.012980   
    118. D(H  23,C  13,N   8,N   9)   -112.6742         0.015794   
    119. D(H  23,C  13,N   8,C   4)     88.8096         0.015794   
    120. D(C  12,C  13,N   8,C   4)   -148.9618         0.015794   
    121. D(C   2,C  13,N   8,N   9)    132.7377         0.015794   
    122. D(C   2,C  13,N   8,C   4)    -25.7785         0.015794   
    123. D(H  23,C  13,C   2,H  14)    163.3690         0.009675   
    124. D(H  23,C  13,C   2,C   3)    -79.4727         0.009675   
    125. D(H  23,C  13,C   2,C   1)     42.3899         0.009675   
    126. D(C  12,C  13,C   2,H  14)     38.6691         0.009675   
    127. D(C  12,C  13,C   2,C   3)    155.8273         0.009675   
    128. D(C  12,C  13,N   8,N   9)      9.5544         0.015794   
    129. D(C  12,C  13,C   2,C   1)    -82.3100         0.009675   
    130. D(N   8,C  13,C   2,H  14)    -81.5161         0.009675   
    131. D(N   8,C  13,C   2,C   3)     35.6422         0.009675   
    132. D(C   2,C  13,C  12,H  22)     51.1551         0.012980   
    133. D(N   8,C  13,C   2,C   1)    157.5049         0.009675   
    134. D(H  23,C  13,C  12,H  22)    -72.0830         0.012980   
    135. D(H  23,C  13,C  12,C  11)    108.3041         0.012980   
    136. D(N   8,C  13,C  12,H  22)    166.8914         0.012980   
    137. D(N   8,C  13,C  12,C  11)    -12.7215         0.012980   
    -----------------------------------------------------------------

Number of atoms                         .... 24
Number of degrees of freedom            .... 137

         *************************************************************
         *                GEOMETRY OPTIMIZATION CYCLE   1            *
         *************************************************************
---------------------------------
CARTESIAN COORDINATES (ANGSTROEM)
---------------------------------
  N     -2.131600   -3.531500   -0.432500
  C     -1.575700   -2.552600   -0.632000
  C     -0.894600   -1.306800   -0.851600
  C      0.620700   -1.468200   -1.052900
  C      1.214900   -0.122000   -0.626000
  C      2.510500   -0.277900    0.199300
  N      2.911900    0.894900    0.720500
  O      3.092300   -1.327600    0.333200
  N      0.186100    0.513600    0.175600
  N      0.176900    1.828200    0.278000
  C     -0.909100    2.435400    0.607200
  C     -2.178200    1.753800    0.672700
  C     -2.224200    0.429800    0.501700
  C     -0.961200   -0.368100    0.380900
  H     -1.347100   -0.804800   -1.715900
  H      1.014300   -2.251800   -0.401200
  H      0.875500   -1.718900   -2.080300
  H      1.456300    0.515800   -1.487000
  H      3.709000    0.913400    1.334900
  H      2.305200    1.700300    0.666000
  H     -0.838200    3.501400    0.744600
  H     -3.075500    2.342500    0.776600
  H     -3.149500   -0.122800    0.436200
  H     -0.788700   -0.976300    1.288400

----------------------------
CARTESIAN COORDINATES (A.U.)
----------------------------
  NO LB      ZA    FRAG     MASS         X           Y           Z
   0 N     7.0000    0    14.007   -4.028140   -6.673568   -0.817307
   1 C     6.0000    0    12.011   -2.977641   -4.823715   -1.194307
   2 C     6.0000    0    12.011   -1.690549   -2.469494   -1.609291
   3 C     6.0000    0    12.011    1.172953   -2.774496   -1.989693
   4 C     6.0000    0    12.011    2.295828   -0.230547   -1.182969
   5 C     6.0000    0    12.011    4.744157   -0.525155    0.376622
   6 N     7.0000    0    14.007    5.502694    1.691116    1.361548
   7 O     8.0000    0    15.999    5.843600   -2.508800    0.629657
   8 N     7.0000    0    14.007    0.351678    0.970563    0.331836
   9 N     7.0000    0    14.007    0.334293    3.454797    0.525344
  10 C     6.0000    0    12.011   -1.717950    4.602239    1.147442
  11 C     6.0000    0    12.011   -4.116201    3.314202    1.271219
  12 C     6.0000    0    12.011   -4.203129    0.812204    0.948076
  13 C     6.0000    0    12.011   -1.816405   -0.695608    0.719797
  14 H     1.0000    0     1.008   -2.545650   -1.520852   -3.242581
  15 H     1.0000    0     1.008    1.916749   -4.255285   -0.758158
  16 H     1.0000    0     1.008    1.654455   -3.248250   -3.931197
  17 H     1.0000    0     1.008    2.752008    0.974721   -2.810023
  18 H     1.0000    0     1.008    7.008994    1.726076    2.522595
  19 H     1.0000    0     1.008    4.356197    3.213101    1.258558
  20 H     1.0000    0     1.008   -1.583968    6.616687    1.407090
  21 H     1.0000    0     1.008   -5.811853    4.426683    1.467561
  22 H     1.0000    0     1.008   -5.951692   -0.232058    0.824299
  23 H     1.0000    0     1.008   -1.490427   -1.844940    2.434723

--------------------------------
INTERNAL COORDINATES (ANGSTROEM)
--------------------------------
 N      0   0   0     0.000000000000     0.00000000     0.00000000
 C      1   0   0     1.143271739352     0.00000000     0.00000000
 C      2   1   0     1.436711178351   178.44617550     0.00000000
 C      3   2   1     1.537109540664   113.34770437   130.35166312
 C      4   3   2     1.532178739573   104.68862019   205.34320223
 C      5   4   3     1.544022104764   112.68290263   138.65315362
 N      6   5   4     1.344704889558   111.69027248   188.66981177
 O      6   5   4     1.207597010596   123.45646494     9.77469348
 N      5   4   3     1.450854699824   105.29875111    18.60145888
 N      9   5   4     1.318614257469   118.98667030   204.62343772
 C     10   9   5     1.287035539525   119.74205503   158.35098435
 C     11  10   9     1.442041476519   122.08848126   350.29655202
 C     12  11  10     1.335789279789   119.53687988     5.91961133
 C      9   5   4     1.461451425809   111.71478375     4.77436528
 H      3   2   1     1.097166687427   108.76172160   253.78075429
 H      4   3   2     1.092548767790   110.63049577   322.52831671
 H      4   3   2     1.087807101466   112.25913614    83.61075005
 H      5   4   3     1.098355042780   112.14948605   259.53384786
 H      7   6   5     1.006577379042   119.27450213   175.62017245
 H      7   6   5     1.009813992773   119.69291382     9.29188625
 H     11  10   9     1.077154385406   116.35830241   175.71156159
 H     12  11  10     1.078197658131   118.60159958   191.00430300
 H     13  12  11     1.079739366699   122.99391327   186.60245147
 H     14   9   5     1.105992649162   108.94065924    88.80958397

---------------------------
INTERNAL COORDINATES (A.U.)
---------------------------
 N      0   0   0     0.000000000000     0.00000000     0.00000000
 C      1   0   0     2.160470484026     0.00000000     0.00000000
 C      2   1   0     2.714990660628   178.44617550     0.00000000
 C      3   2   1     2.904716069692   113.34770437   130.35166312
 C      4   3   2     2.895398206010   104.68862019   205.34320223
 C      5   4   3     2.917778922725   112.68290263   138.65315362
 N      6   5   4     2.541123972209   111.69027248   188.66981177
 O      6   5   4     2.282027630168   123.45646494     9.77469348
 N      5   4   3     2.741718042779   105.29875111    18.60145888
 N      9   5   4     2.491819822900   118.98667030   204.62343772
 C     10   9   5     2.432144694326   119.74205503   158.35098435
 C     11  10   9     2.725063464376   122.08848126   350.29655202
 C     12  11  10     2.524275911430   119.53687988     5.91961133
 C      9   5   4     2.761742952808   111.71478375     4.77436528
 H      3   2   1     2.073344562499   108.76172160   253.78075429
 H      4   3   2     2.064617959077   110.63049577   322.52831671
 H      4   3   2     2.055657508306   112.25913614    83.61075005
 H      5   4   3     2.075590228665   112.14948605   259.53384786
 H      7   6   5     1.902155578991   119.27450213   175.62017245
 H      7   6   5     1.908271892542   119.69291382     9.29188625
 H     11  10   9     2.035526792370   116.35830241   175.71156159
 H     12  11  10     2.037498292104   118.60159958   191.00430300
 H     13  12  11     2.040411699075   122.99391327   186.60245147
 H     14   9   5     2.090023213046   108.94065924    88.80958397

---------------------
BASIS SET INFORMATION
---------------------
There are 4 groups of distinct atoms

 Group   1 Type N   : 19s6p3d2f contracted to 5s4p3d2f pattern {88111/3111/111/11}
 Group   2 Type C   : 19s6p3d2f contracted to 5s4p3d2f pattern {88111/3111/111/11}
 Group   3 Type O   : 19s6p3d2f contracted to 5s4p3d2f pattern {88111/3111/111/11}
 Group   4 Type H   : 5s2p1d contracted to 3s2p1d pattern {311/11/1}

Atom   0N    basis set group =>   1
Atom   1C    basis set group =>   2
Atom   2C    basis set group =>   2
Atom   3C    basis set group =>   2
Atom   4C    basis set group =>   2
Atom   5C    basis set group =>   2
Atom   6N    basis set group =>   1
Atom   7O    basis set group =>   3
Atom   8N    basis set group =>   1
Atom   9N    basis set group =>   1
Atom  10C    basis set group =>   2
Atom  11C    basis set group =>   2
Atom  12C    basis set group =>   2
Atom  13C    basis set group =>   2
Atom  14H    basis set group =>   4
Atom  15H    basis set group =>   4
Atom  16H    basis set group =>   4
Atom  17H    basis set group =>   4
Atom  18H    basis set group =>   4
Atom  19H    basis set group =>   4
Atom  20H    basis set group =>   4
Atom  21H    basis set group =>   4
Atom  22H    basis set group =>   4
Atom  23H    basis set group =>   4
---------------------------------
AUXILIARY/J BASIS SET INFORMATION
---------------------------------
There are 4 groups of distinct atoms

 Group   1 Type N   : 10s7p5d2f1g contracted to 10s7p5d2f1g pattern {1111111111/1111111/11111/11/1}
 Group   2 Type C   : 10s7p5d2f1g contracted to 10s7p5d2f1g pattern {1111111111/1111111/11111/11/1}
 Group   3 Type O   : 10s7p5d2f1g contracted to 10s7p5d2f1g pattern {1111111111/1111111/11111/11/1}
 Group   4 Type H   : 4s3p2d1f contracted to 4s3p2d1f pattern {1111/111/11/1}

Atom   0N    basis set group =>   1
Atom   1C    basis set group =>   2
Atom   2C    basis set group =>   2
Atom   3C    basis set group =>   2
Atom   4C    basis set group =>   2
Atom   5C    basis set group =>   2
Atom   6N    basis set group =>   1
Atom   7O    basis set group =>   3
Atom   8N    basis set group =>   1
Atom   9N    basis set group =>   1
Atom  10C    basis set group =>   2
Atom  11C    basis set group =>   2
Atom  12C    basis set group =>   2
Atom  13C    basis set group =>   2
Atom  14H    basis set group =>   4
Atom  15H    basis set group =>   4
Atom  16H    basis set group =>   4
Atom  17H    basis set group =>   4
Atom  18H    basis set group =>   4
Atom  19H    basis set group =>   4
Atom  20H    basis set group =>   4
Atom  21H    basis set group =>   4
Atom  22H    basis set group =>   4
Atom  23H    basis set group =>   4
---------------------------------
AUXILIARY/C BASIS SET INFORMATION
---------------------------------
There are 4 groups of distinct atoms

 Group   1 Type N   : 9s7p6d4f2g contracted to 9s7p6d4f2g pattern {111111111/1111111/111111/1111/11}
 Group   2 Type C   : 9s7p6d4f2g contracted to 9s7p6d4f2g pattern {111111111/1111111/111111/1111/11}
 Group   3 Type O   : 9s7p6d4f2g contracted to 9s7p6d4f2g pattern {111111111/1111111/111111/1111/11}
 Group   4 Type H   : 4s3p2d1f contracted to 4s3p2d1f pattern {1111/111/11/1}

Atom   0N    basis set group =>   1
Atom   1C    basis set group =>   2
Atom   2C    basis set group =>   2
Atom   3C    basis set group =>   2
Atom   4C    basis set group =>   2
Atom   5C    basis set group =>   2
Atom   6N    basis set group =>   1
Atom   7O    basis set group =>   3
Atom   8N    basis set group =>   1
Atom   9N    basis set group =>   1
Atom  10C    basis set group =>   2
Atom  11C    basis set group =>   2
Atom  12C    basis set group =>   2
Atom  13C    basis set group =>   2
Atom  14H    basis set group =>   4
Atom  15H    basis set group =>   4
Atom  16H    basis set group =>   4
Atom  17H    basis set group =>   4
Atom  18H    basis set group =>   4
Atom  19H    basis set group =>   4
Atom  20H    basis set group =>   4
Atom  21H    basis set group =>   4
Atom  22H    basis set group =>   4
Atom  23H    basis set group =>   4


           ************************************************************
           *        Program running with 4 parallel MPI-processes     *
           *              working on a common directory               *
           ************************************************************
------------------------------------------------------------------------------
                           ORCA GTO INTEGRAL CALCULATION
                           -- RI-GTO INTEGRALS CHOSEN --
------------------------------------------------------------------------------
------------------------------------------------------------------------------
                   ___                                                        
                  /   \      - P O W E R E D   B Y -                         
                 /     \                                                     
                 |  |  |   _    _      __       _____    __    __             
                 |  |  |  | |  | |    /  \     |  _  \  |  |  /  |          
                  \  \/   | |  | |   /    \    | | | |  |  | /  /          
                 / \  \   | |__| |  /  /\  \   | |_| |  |  |/  /          
                |  |  |   |  __  | /  /__\  \  |    /   |      \           
                |  |  |   | |  | | |   __   |  |    \   |  |\   \          
                \     /   | |  | | |  |  |  |  | |\  \  |  | \   \       
                 \___/    |_|  |_| |__|  |__|  |_| \__\ |__|  \__/        
                                                                              
                      - O R C A' S   B I G   F R I E N D -                    
                                      &                                       
                       - I N T E G R A L  F E E D E R -                       
                                                                              
 v1 FN, 2020, v2 2021                                                         
------------------------------------------------------------------------------


Reading SHARK input file m062x-train-11.SHARKINP.tmp ... ok
----------------------
SHARK INTEGRAL PACKAGE
----------------------

Number of atoms                             ...     24
Number of basis functions                   ...    868
Number of shells                            ...    340
Maximum angular momentum                    ...      3
Integral batch strategy                     ... SHARK/LIBINT Hybrid
RI-J (if used) integral strategy            ... SPLIT-RIJ (Revised 2003 algorithm where possible)
Printlevel                                  ...      1
Contraction scheme used                     ... PARTIAL GENERAL contraction
Coulomb Range Separation                    ... NOT USED
Exchange Range Separation                   ... NOT USED
Finite Nucleus Model                        ... NOT USED
Auxiliary Coulomb fitting basis             ... AVAILABLE
   # of basis functions in Aux-J            ...   1406
   # of shells in Aux-J                     ...    450
   Maximum angular momentum in Aux-J        ...      4
Auxiliary J/K fitting basis                 ... NOT available
Auxiliary Correlation fitting basis         ... AVAILABLE
   # of basis functions in Aux-C            ...   1784
   # of shells in Aux-C                     ...    492
   Maximum angular momentum in Aux-C        ...      4
Auxiliary 'external' fitting basis          ... NOT available
Integral threshold                          ...     2.500000e-11
Primitive cut-off                           ...     2.500000e-12
Primitive pair pre-selection threshold      ...     2.500000e-12

Calculating pre-screening integrals         ... done (  0.2 sec) Dimension = 340
Calculating pre-screening integrals (ORCA)  ... done (  0.4 sec) Dimension = 256
Organizing shell pair data                  ... done (  0.5 sec)
Shell pair information
Total number of shell pairs                 ...     57970
Shell pairs after pre-screening             ...     44162
Total number of primitive shell pairs       ...     75538
Primitive shell pairs kept                  ...     52854
          la=0 lb=0:  10218 shell pairs
          la=1 lb=0:  11182 shell pairs
          la=1 lb=1:   2670 shell pairs
          la=2 lb=0:   7447 shell pairs
          la=2 lb=1:   3565 shell pairs
          la=2 lb=2:   1234 shell pairs
          la=3 lb=0:   4159 shell pairs
          la=3 lb=1:   1964 shell pairs
          la=3 lb=2:   1339 shell pairs
          la=3 lb=3:    384 shell pairs

Calculating one electron integrals          ... done (  0.1 sec)
Calculating RI/J V-Matrix + Cholesky decomp.... done (  0.2 sec)
Calculating RI/C V-Matrix + Cholesky decomp.... done (  0.3 sec)
Calculating Nuclear repulsion               ... done (  0.0 sec) ENN=    877.506055215617 Eh

SHARK setup successfully completed in   2.4 seconds

Maximum memory used throughout the entire GTOINT-calculation: 65.6 MB


           ************************************************************
           *        Program running with 4 parallel MPI-processes     *
           *              working on a common directory               *
           ************************************************************
-------------------------------------------------------------------------------
                                 ORCA SCF
-------------------------------------------------------------------------------

------------
SCF SETTINGS
------------
Hamiltonian:
 Density Functional     Method          .... DFT(GTOs)
 Exchange Functional    Exchange        .... M062X
 Correlation Functional Correlation     .... M062X
 Gradients option       PostSCFGGA      .... off
 Hybrid DFT is turned on
   Fraction HF Exchange ScalHFX         ....  0.540000
   Scaling of DF-GGA-X  ScalDFX         ....  0.460000
   Scaling of DF-GGA-C  ScalDFC         ....  1.000000
   Scaling of DF-LDA-C  ScalLDAC        ....  1.000000
   Perturbative correction              ....  0.000000
   Density functional embedding theory  .... OFF
 RI-approximation to the Coulomb term is turned on
   Number of AuxJ basis functions       .... 1406
   RIJ-COSX (HFX calculated with COS-X)).... on


General Settings:
 Integral files         IntName         .... m062x-train-11
 Hartree-Fock type      HFTyp           .... RHF
 Total Charge           Charge          ....    0
 Multiplicity           Mult            ....    1
 Number of Electrons    NEL             ....  100
 Basis Dimension        Dim             ....  784
 Nuclear Repulsion      ENuc            ....    877.5060552156 Eh

Convergence Acceleration:
 DIIS                   CNVDIIS         .... on
   Start iteration      DIISMaxIt       ....    12
   Startup error        DIISStart       ....  0.200000
   # of expansion vecs  DIISMaxEq       ....     5
   Bias factor          DIISBfac        ....   1.050
   Max. coefficient     DIISMaxC        ....  10.000
 Trust-Rad. Augm. Hess. CNVTRAH         .... auto
   Auto Start mean grad. ratio tolernc. ....  1.125000
   Auto Start start iteration           ....    20
   Auto Start num. interpolation iter.  ....    10
   Max. Number of Micro iterations      ....    16
   Max. Number of Macro iterations      .... Maxiter - #DIIS iter
   Number of Davidson start vectors     ....     2
   Converg. threshold I  (grad. norm)   ....   1.000e-05
   Converg. threshold II (energy diff.) ....   1.000e-08
   Grad. Scal. Fac. for Micro threshold ....   0.100
   Minimum threshold for Micro iter.    ....   0.010
   NR start threshold (gradient norm)   ....   0.001
   Initial trust radius                 ....   0.400
   Minimum AH scaling param. (alpha)    ....   1.000
   Maximum AH scaling param. (alpha)    .... 1000.000
   Orbital update algorithm             .... Taylor
   White noise on init. David. guess    .... on
   Maximum white noise                  ....   0.010
   Quad. conv. algorithm                .... NR
 SOSCF                  CNVSOSCF        .... on
   Start iteration      SOSCFMaxIt      ....   150
   Startup grad/error   SOSCFStart      ....  0.003300
 Level Shifting         CNVShift        .... on
   Level shift para.    LevelShift      ....    0.2500
   Turn off err/grad.   ShiftErr        ....    0.0010
 Zerner damping         CNVZerner       .... off
 Static damping         CNVDamp         .... on
   Fraction old density DampFac         ....    0.7000
   Max. Damping (<1)    DampMax         ....    0.9800
   Min. Damping (>=0)   DampMin         ....    0.0000
   Turn off err/grad.   DampErr         ....    0.1000
 Fernandez-Rico         CNVRico         .... off

SCF Procedure:
 Maximum # iterations   MaxIter         ....   125
 SCF integral mode      SCFMode         .... Direct
   Integral package                     .... SHARK and LIBINT hybrid scheme
 Reset frequency        DirectResetFreq ....    20
 Integral Threshold     Thresh          ....  2.500e-11 Eh
 Primitive CutOff       TCut            ....  2.500e-12 Eh

Convergence Tolerance:
 Convergence Check Mode ConvCheckMode   .... Total+1el-Energy
 Convergence forced     ConvForced      .... 0
 Energy Change          TolE            ....  1.000e-08 Eh
 1-El. energy change                    ....  1.000e-05 Eh
 Orbital Gradient       TolG            ....  1.000e-05
 Orbital Rotation angle TolX            ....  1.000e-05
 DIIS Error             TolErr          ....  5.000e-07


Diagonalization of the overlap matrix:
Smallest eigenvalue                        ... 2.237e-06
Time for diagonalization                   ...    0.209 sec
Threshold for overlap eigenvalues          ... 1.000e-08
Number of eigenvalues below threshold      ... 0
Time for construction of square roots      ...    0.399 sec
Total time needed                          ...    0.612 sec

Time for model grid setup =    0.422 sec

------------------------------
INITIAL GUESS: MODEL POTENTIAL
------------------------------
Loading Hartree-Fock densities                     ... done
Calculating cut-offs                               ... done
Initializing the effective Hamiltonian             ... done
Setting up the integral package (SHARK)            ... done
Starting the Coulomb interaction                   ... done (   1.3 sec)
Reading the grid                                   ... done
Mapping shells                                     ... done
Starting the XC term evaluation                    ... done (   1.4 sec)
  promolecular density results
     # of electrons  =     99.994489530
     EX              =    -83.313055704
     EC              =     -3.371210617
     EX+EC           =    -86.684266321
Transforming the Hamiltonian                       ... done (   0.1 sec)
Diagonalizing the Hamiltonian                      ... done (   0.2 sec)
Back transforming the eigenvectors                 ... done (   0.0 sec)
Now organizing SCF variables                       ... done
                      ------------------
                      INITIAL GUESS DONE (   3.6 sec)
                      ------------------
-------------------
DFT GRID GENERATION
-------------------

General Integration Accuracy     IntAcc      ... 4.959
Radial Grid Type                 RadialGrid  ... OptM3 with GC (2021)
Angular Grid (max. ang.)         AngularGrid ... 6 (Lebedev-590)
Angular grid pruning method      GridPruning ... 4 (adaptive)
Weight generation scheme         WeightScheme... Becke
Basis function cutoff            BFCut       ... 1.0000e-11
Integration weight cutoff        WCut        ... 1.0000e-14
Angular grids for H and He will be reduced by one unit
Partially contracted basis set               ... off
Rotationally invariant grid construction     ... off

Total number of grid points                  ...   291254
Total number of batches                      ...     4564
Average number of points per batch           ...       63
Average number of grid points per atom       ...    12136
Time for grid setup =    5.500 sec

--------------------
COSX GRID GENERATION
--------------------

GRIDX 1
-------
General Integration Accuracy     IntAcc      ... 4.020
Radial Grid Type                 RadialGrid  ... OptM3 with GC (2021)
Angular Grid (max. ang.)         AngularGrid ... 2 (Lebedev-110)
Angular grid pruning method      GridPruning ... 4 (adaptive)
Weight generation scheme         WeightScheme... Becke
Basis function cutoff            BFCut       ... 1.0000e-11
Integration weight cutoff        WCut        ... 1.0000e-14
Angular grids for H and He will be reduced by one unit
Partially contracted basis set               ... on
Rotationally invariant grid construction     ... off

Total number of grid points                  ...    36140
Total number of batches                      ...      578
Average number of points per batch           ...       62
Average number of grid points per atom       ...     1506
UseSFitting                                  ... on

GRIDX 2
-------
General Integration Accuracy     IntAcc      ... 4.338
Radial Grid Type                 RadialGrid  ... OptM3 with GC (2021)
Angular Grid (max. ang.)         AngularGrid ... 3 (Lebedev-194)
Angular grid pruning method      GridPruning ... 4 (adaptive)
Weight generation scheme         WeightScheme... Becke
Basis function cutoff            BFCut       ... 1.0000e-11
Integration weight cutoff        WCut        ... 1.0000e-14
Angular grids for H and He will be reduced by one unit
Partially contracted basis set               ... on
Rotationally invariant grid construction     ... off

Total number of grid points                  ...    77948
Total number of batches                      ...     1231
Average number of points per batch           ...       63
Average number of grid points per atom       ...     3248
UseSFitting                                  ... on

GRIDX 3
-------
General Integration Accuracy     IntAcc      ... 4.871
Radial Grid Type                 RadialGrid  ... OptM3 with GC (2021)
Angular Grid (max. ang.)         AngularGrid ... 4 (Lebedev-302)
Angular grid pruning method      GridPruning ... 4 (adaptive)
Weight generation scheme         WeightScheme... Becke
Basis function cutoff            BFCut       ... 1.0000e-11
Integration weight cutoff        WCut        ... 1.0000e-14
Angular grids for H and He will be reduced by one unit
Partially contracted basis set               ... on
Rotationally invariant grid construction     ... off

Total number of grid points                  ...   143546
Total number of batches                      ...     2255
Average number of points per batch           ...       63
Average number of grid points per atom       ...     5981
UseSFitting                                  ... on

Time for X-Grid setup             =    7.148 sec


--------------------
CPCM SOLVATION MODEL
--------------------
CPCM parameters:
  Epsilon                                         ...      24.8520
  Refrac                                          ...       1.3611
  Rsolv                                           ...       1.3000
  Surface type                                    ... GAUSSIAN VDW
  Epsilon function type                           ...         CPCM
Solvent:                                     ... ETHANOL
SMD-CDS solvent descriptors:
  Soln                                       ...    1.3611
  Soln25                                     ...    1.3593
  Sola                                       ...    0.3700
  Solb                                       ...    0.4800
  Solg                                       ...   31.6200
  Solc                                       ...    0.0000
  Solh                                       ...    0.0000
Radii:
 Radius for N  used is    3.5716 Bohr (=   1.8900 Ang.)
 Radius for C  used is    3.4960 Bohr (=   1.8500 Ang.)
 Radius for O  used is    3.0765 Bohr (=   1.6280 Ang.)
 Radius for H  used is    2.2677 Bohr (=   1.2000 Ang.)
Calculating surface                               ...        done! (  0.0s)
GEPOL surface points                              ...         1386
GEPOL Volume                                      ...    1319.5210
GEPOL Surface-area                                ...     760.5854
Calculating surface distance matrix               ...        done! (  0.0s)
Performing Cholesky decomposition & store         ...        done! (  0.1s)
Overall time for CPCM initialization              ...                 0.1s
 re-compute Schwartz prescreening matrix in partically contracted basis (1) ...done (   0.189 sec)
--------------
SCF ITERATIONS
--------------
ITER       Energy         Delta-E        Max-DP      RMS-DP      [F,P]     Damp
               ***  Starting incremental Fock matrix formation  ***
  0   -642.7990029473   0.000000000000 0.30876654  0.00138368  0.3117687 0.7000
  1   -642.9549781551  -0.155975207770 0.25155601  0.00107013  0.1512910 0.7000
                               ***Turning on DIIS***
  2   -643.0277091317  -0.072730976627 0.46732314  0.00225196  0.0598912 0.0000
  3   -643.1462493983  -0.118540266610 0.18343362  0.00060398  0.0697678 0.0000
  4   -643.1653205376  -0.019071139298 0.06532265  0.00019637  0.0143925 0.0000
  5   -643.1662149590  -0.000894421431 0.01602070  0.00006382  0.0044059 0.0000
                      *** Initiating the SOSCF procedure ***
                           *** Shutting down DIIS ***
                      *** Re-Reading the Fockian *** 
                      *** Removing any level shift *** 
ITER      Energy       Delta-E        Grad      Rot      Max-DP    RMS-DP
  6   -643.16631748  -0.0001025181  0.001061  0.001061  0.006292  0.000030
               *** Restarting incremental Fock matrix formation ***
  7   -643.16634295  -0.0000254731  0.000739  0.003137  0.008896  0.000047
  8   -643.16635509  -0.0000121394  0.000265  0.003076  0.004265  0.000030
  9   -643.16635759  -0.0000025025  0.000113  0.000530  0.002877  0.000020
 10   -643.16635910  -0.0000015091  0.000032  0.000183  0.001871  0.000009
 11   -643.16635910  -0.0000000009  0.000025  0.000159  0.000701  0.000005
 12   -643.16635920  -0.0000000938  0.000006  0.000043  0.001822  0.000008
 13   -643.16635921  -0.0000000146  0.000004  0.000009  0.001332  0.000006
                  ***Gradient check signals convergence***
              ***Rediagonalizing the Fockian in SOSCF/NRSCF***

               *****************************************************
               *                     SUCCESS                       *
               *           SCF CONVERGED AFTER  14 CYCLES          *
               *****************************************************

Old exchange energy                            =    -45.864860771 Eh
New exchange energy                            =    -45.864859978 Eh
Exchange energy change after final integration =      0.000000794 Eh
Total energy after final integration           =   -643.166358409 Eh
Final COS-X integration done in                =   122.457 sec

SMD CDS free energy correction energy :                 2.44712     Kcal/mol
Total Energy after SMD CDS correction =              -643.162458683 Eh

----------------
TOTAL SCF ENERGY
----------------

Total Energy       :         -643.16245868 Eh          -17501.34025 eV

Components:
Nuclear Repulsion  :          877.50605522 Eh           23878.15370 eV
Electronic Energy  :        -1520.66851390 Eh          -41379.49396 eV
One Electron Energy:        -2612.10890107 Eh          -71079.09679 eV
Two Electron Energy:         1091.44038717 Eh           29699.60283 eV
Max COSX asymmetry :            0.00001195 Eh               0.00033 eV
CPCM Dielectric    :           -0.03511285 Eh              -0.95547 eV
SMD CDS (Gcds)     :            0.00389973 Eh               0.10612 eV

Virial components:
Potential Energy   :        -1283.05633602 Eh          -34913.73788 eV
Kinetic Energy     :          639.89387734 Eh           17412.39763 eV
Virial Ratio       :            2.00510801


DFT components:
N(Alpha)           :       50.000020024642 electrons
N(Beta)            :       50.000020024642 electrons
N(Total)           :      100.000040049283 electrons
E(XC)              :      -42.805474824053 Eh       
DFET-embed. en.    :        0.000000000000 Eh       
CPCM Solvation Model Properties:
Surface-charge          :           -0.04387713
Charge-correction       :            0.00017354 Eh               0.00472 eV
Free-energy (cav+disp)  :            0.00389973 Eh               0.10612 eV

---------------
SCF CONVERGENCE
---------------

  Last Energy change         ...    7.9800e-09  Tolerance :   1.0000e-08
  Last MAX-Density change    ...    5.1070e-15  Tolerance :   1.0000e-07
  Last RMS-Density change    ...    1.6449e-17  Tolerance :   5.0000e-09
  Last Orbital Gradient      ...    7.9024e-07  Tolerance :   1.0000e-05
  Last Orbital Rotation      ...    2.7284e-06  Tolerance :   1.0000e-05

             **** THE GBW FILE WAS UPDATED (m062x-train-11.gbw) ****
             **** DENSITY m062x-train-11.scfp WAS UPDATED ****
             **** ENERGY FILE WAS UPDATED (m062x-train-11.en.tmp) ****
             **** THE GBW FILE WAS UPDATED (m062x-train-11.gbw) ****
             **** DENSITY m062x-train-11.scfp WAS UPDATED ****
----------------
ORBITAL ENERGIES
----------------

  NO   OCC          E(Eh)            E(eV) 
   0   2.0000     -19.610030      -533.6160 
   1   2.0000     -14.801936      -402.7812 
   2   2.0000     -14.795170      -402.5970 
   3   2.0000     -14.762291      -401.7023 
   4   2.0000     -14.757587      -401.5744 
   5   2.0000     -10.653582      -289.8987 
   6   2.0000     -10.600343      -288.4500 
   7   2.0000     -10.590500      -288.1822 
   8   2.0000     -10.588575      -288.1298 
   9   2.0000     -10.587130      -288.0905 
  10   2.0000     -10.565489      -287.5016 
  11   2.0000     -10.554263      -287.1961 
  12   2.0000     -10.553965      -287.1880 
  13   2.0000     -10.547700      -287.0175 
  14   2.0000      -1.185749       -32.2659 
  15   2.0000      -1.158901       -31.5353 
  16   2.0000      -1.035880       -28.1877 
  17   2.0000      -1.021518       -27.7969 
  18   2.0000      -0.994208       -27.0538 
  19   2.0000      -0.929841       -25.3023 
  20   2.0000      -0.880791       -23.9676 
  21   2.0000      -0.852057       -23.1857 
  22   2.0000      -0.755355       -20.5542 
  23   2.0000      -0.737218       -20.0607 
  24   2.0000      -0.726556       -19.7706 
  25   2.0000      -0.667536       -18.1646 
  26   2.0000      -0.637461       -17.3462 
  27   2.0000      -0.610979       -16.6256 
  28   2.0000      -0.598016       -16.2728 
  29   2.0000      -0.587887       -15.9972 
  30   2.0000      -0.569300       -15.4914 
  31   2.0000      -0.563552       -15.3350 
  32   2.0000      -0.537743       -14.6327 
  33   2.0000      -0.524016       -14.2592 
  34   2.0000      -0.515908       -14.0386 
  35   2.0000      -0.496631       -13.5140 
  36   2.0000      -0.482092       -13.1184 
  37   2.0000      -0.470543       -12.8041 
  38   2.0000      -0.467491       -12.7211 
  39   2.0000      -0.460315       -12.5258 
  40   2.0000      -0.444745       -12.1021 
  41   2.0000      -0.434999       -11.8369 
  42   2.0000      -0.422052       -11.4846 
  43   2.0000      -0.401574       -10.9274 
  44   2.0000      -0.397020       -10.8035 
  45   2.0000      -0.377386       -10.2692 
  46   2.0000      -0.353314        -9.6142 
  47   2.0000      -0.348182        -9.4745 
  48   2.0000      -0.338028        -9.1982 
  49   2.0000      -0.252767        -6.8781 
  50   0.0000      -0.017073        -0.4646 
  51   0.0000       0.001194         0.0325 
  52   0.0000       0.012508         0.3404 
  53   0.0000       0.014016         0.3814 
  54   0.0000       0.015478         0.4212 
  55   0.0000       0.031310         0.8520 
  56   0.0000       0.032518         0.8848 
  57   0.0000       0.034374         0.9354 
  58   0.0000       0.036921         1.0047 
  59   0.0000       0.042579         1.1586 
  60   0.0000       0.050034         1.3615 
  61   0.0000       0.056190         1.5290 
  62   0.0000       0.056560         1.5391 
  63   0.0000       0.057686         1.5697 
  64   0.0000       0.065461         1.7813 
  65   0.0000       0.067596         1.8394 
  66   0.0000       0.069512         1.8915 
  67   0.0000       0.070785         1.9261 
  68   0.0000       0.073205         1.9920 
  69   0.0000       0.076995         2.0951 
  70   0.0000       0.087561         2.3827 
  71   0.0000       0.093453         2.5430 
  72   0.0000       0.095539         2.5997 
  73   0.0000       0.103096         2.8054 
  74   0.0000       0.109851         2.9892 
  75   0.0000       0.112791         3.0692 
  76   0.0000       0.116106         3.1594 
  77   0.0000       0.119993         3.2652 
  78   0.0000       0.122229         3.3260 
  79   0.0000       0.125201         3.4069 
  80   0.0000       0.126321         3.4374 
  81   0.0000       0.131765         3.5855 
  82   0.0000       0.136664         3.7188 
  83   0.0000       0.139521         3.7965 
  84   0.0000       0.142248         3.8708 
  85   0.0000       0.143005         3.8914 
  86   0.0000       0.148595         4.0435 
  87   0.0000       0.153308         4.1717 
  88   0.0000       0.155469         4.2305 
  89   0.0000       0.156709         4.2643 
  90   0.0000       0.161890         4.4052 
  91   0.0000       0.168131         4.5751 
  92   0.0000       0.169256         4.6057 
  93   0.0000       0.173037         4.7086 
  94   0.0000       0.178502         4.8573 
  95   0.0000       0.180253         4.9049 
  96   0.0000       0.183838         5.0025 
  97   0.0000       0.187011         5.0888 
  98   0.0000       0.191959         5.2235 
  99   0.0000       0.195313         5.3147 
 100   0.0000       0.198333         5.3969 
 101   0.0000       0.203650         5.5416 
 102   0.0000       0.209828         5.7097 
 103   0.0000       0.212162         5.7732 
 104   0.0000       0.218712         5.9515 
 105   0.0000       0.220036         5.9875 
 106   0.0000       0.224614         6.1121 
 107   0.0000       0.226978         6.1764 
 108   0.0000       0.232968         6.3394 
 109   0.0000       0.237762         6.4698 
 110   0.0000       0.245378         6.6771 
 111   0.0000       0.246355         6.7037 
 112   0.0000       0.254257         6.9187 
 113   0.0000       0.257148         6.9973 
 114   0.0000       0.260331         7.0840 
 115   0.0000       0.267523         7.2797 
 116   0.0000       0.272958         7.4276 
 117   0.0000       0.279091         7.5944 
 118   0.0000       0.284456         7.7404 
 119   0.0000       0.285423         7.7668 
 120   0.0000       0.292842         7.9686 
 121   0.0000       0.294741         8.0203 
 122   0.0000       0.300915         8.1883 
 123   0.0000       0.303265         8.2523 
 124   0.0000       0.307639         8.3713 
 125   0.0000       0.317446         8.6382 
 126   0.0000       0.318798         8.6749 
 127   0.0000       0.327287         8.9059 
 128   0.0000       0.328293         8.9333 
 129   0.0000       0.332245         9.0408 
 130   0.0000       0.335495         9.1293 
 131   0.0000       0.338163         9.2019 
 132   0.0000       0.344428         9.3723 
 133   0.0000       0.350037         9.5250 
 134   0.0000       0.350908         9.5487 
 135   0.0000       0.361942         9.8489 
 136   0.0000       0.369134        10.0446 
 137   0.0000       0.370487        10.0815 
 138   0.0000       0.374544        10.1919 
 139   0.0000       0.377787        10.2801 
 140   0.0000       0.383161        10.4263 
 141   0.0000       0.390568        10.6279 
 142   0.0000       0.391501        10.6533 
 143   0.0000       0.399961        10.8835 
 144   0.0000       0.402490        10.9523 
 145   0.0000       0.405115        11.0238 
 146   0.0000       0.410265        11.1639 
 147   0.0000       0.414157        11.2698 
 148   0.0000       0.419930        11.4269 
 149   0.0000       0.428440        11.6585 
 150   0.0000       0.431873        11.7519 
 151   0.0000       0.432681        11.7739 
 152   0.0000       0.435906        11.8616 
 153   0.0000       0.441157        12.0045 
 154   0.0000       0.446562        12.1516 
 155   0.0000       0.455889        12.4054 
 156   0.0000       0.460794        12.5388 
 157   0.0000       0.461924        12.5696 
 158   0.0000       0.465694        12.6722 
 159   0.0000       0.467420        12.7191 
 160   0.0000       0.470420        12.8008 
 161   0.0000       0.476639        12.9700 
 162   0.0000       0.478417        13.0184 
 163   0.0000       0.482057        13.1174 
 164   0.0000       0.484900        13.1948 
 165   0.0000       0.491522        13.3750 
 166   0.0000       0.498929        13.5765 
 167   0.0000       0.503834        13.7100 
 168   0.0000       0.508720        13.8430 
 169   0.0000       0.513719        13.9790 
 170   0.0000       0.520134        14.1536 
 171   0.0000       0.523920        14.2566 
 172   0.0000       0.525464        14.2986 
 173   0.0000       0.529645        14.4124 
 174   0.0000       0.536808        14.6073 
 175   0.0000       0.548072        14.9138 
 176   0.0000       0.556131        15.1331 
 177   0.0000       0.561380        15.2759 
 178   0.0000       0.563628        15.3371 
 179   0.0000       0.568936        15.4815 
 180   0.0000       0.577678        15.7194 
 181   0.0000       0.581722        15.8295 
 182   0.0000       0.585403        15.9296 
 183   0.0000       0.589067        16.0293 
 184   0.0000       0.592656        16.1270 
 185   0.0000       0.596533        16.2325 
 186   0.0000       0.602936        16.4067 
 187   0.0000       0.610107        16.6018 
 188   0.0000       0.611867        16.6498 
 189   0.0000       0.620530        16.8855 
 190   0.0000       0.628887        17.1129 
 191   0.0000       0.635507        17.2930 
 192   0.0000       0.641830        17.4651 
 193   0.0000       0.646887        17.6027 
 194   0.0000       0.653516        17.7831 
 195   0.0000       0.658400        17.9160 
 196   0.0000       0.661713        18.0061 
 197   0.0000       0.665722        18.1152 
 198   0.0000       0.670824        18.2540 
 199   0.0000       0.677462        18.4347 
 200   0.0000       0.680744        18.5240 
 201   0.0000       0.686799        18.6888 
 202   0.0000       0.689543        18.7634 
 203   0.0000       0.698518        19.0076 
 204   0.0000       0.698703        19.0127 
 205   0.0000       0.701490        19.0885 
 206   0.0000       0.711167        19.3518 
 207   0.0000       0.718275        19.5453 
 208   0.0000       0.721160        19.6238 
 209   0.0000       0.728215        19.8157 
 210   0.0000       0.731556        19.9067 
 211   0.0000       0.741394        20.1744 
 212   0.0000       0.747098        20.3296 
 213   0.0000       0.752145        20.4669 
 214   0.0000       0.759399        20.6643 
 215   0.0000       0.762541        20.7498 
 216   0.0000       0.765347        20.8261 
 217   0.0000       0.769235        20.9320 
 218   0.0000       0.779211        21.2034 
 219   0.0000       0.783192        21.3117 
 220   0.0000       0.790204        21.5025 
 221   0.0000       0.798577        21.7304 
 222   0.0000       0.800166        21.7736 
 223   0.0000       0.805978        21.9318 
 224   0.0000       0.807905        21.9842 
 225   0.0000       0.811210        22.0741 
 226   0.0000       0.822508        22.3816 
 227   0.0000       0.830244        22.5921 
 228   0.0000       0.834151        22.6984 
 229   0.0000       0.847202        23.0535 
 230   0.0000       0.850580        23.1455 
 231   0.0000       0.853979        23.2379 
 232   0.0000       0.860939        23.4273 
 233   0.0000       0.864656        23.5285 
 234   0.0000       0.883152        24.0318 
 235   0.0000       0.886346        24.1187 
 236   0.0000       0.893098        24.3024 
 237   0.0000       0.897298        24.4167 
 238   0.0000       0.900220        24.4962 
 239   0.0000       0.913749        24.8644 
 240   0.0000       0.921618        25.0785 
 241   0.0000       0.925533        25.1850 
 242   0.0000       0.926538        25.2124 
 243   0.0000       0.932536        25.3756 
 244   0.0000       0.945723        25.7344 
 245   0.0000       0.950921        25.8759 
 246   0.0000       0.961368        26.1601 
 247   0.0000       0.967332        26.3225 
 248   0.0000       0.975224        26.5372 
 249   0.0000       0.983402        26.7597 
 250   0.0000       0.991640        26.9839 
 251   0.0000       0.996397        27.1133 
 252   0.0000       1.001633        27.2558 
 253   0.0000       1.006159        27.3790 
 254   0.0000       1.010015        27.4839 
 255   0.0000       1.015957        27.6456 
 256   0.0000       1.025780        27.9129 
 257   0.0000       1.031386        28.0654 
 258   0.0000       1.036008        28.1912 
 259   0.0000       1.042150        28.3583 
 260   0.0000       1.047069        28.4922 
 261   0.0000       1.058545        28.8045 
 262   0.0000       1.062368        28.9085 
 263   0.0000       1.069772        29.1100 
 264   0.0000       1.073041        29.1989 
 265   0.0000       1.081666        29.4336 
 266   0.0000       1.091960        29.7138 
 267   0.0000       1.100221        29.9385 
 268   0.0000       1.108668        30.1684 
 269   0.0000       1.109773        30.1985 
 270   0.0000       1.121898        30.5284 
 271   0.0000       1.131041        30.7772 
 272   0.0000       1.140832        31.0436 
 273   0.0000       1.148451        31.2509 
 274   0.0000       1.156054        31.4578 
 275   0.0000       1.163211        31.6526 
 276   0.0000       1.169643        31.8276 
 277   0.0000       1.172642        31.9092 
 278   0.0000       1.175651        31.9911 
[...]

------------------------
DAVIDSON-DIAGONALIZATION
------------------------

Dimension of the eigenvalue problem            ...  26424
Number of roots to be determined               ...     10
Maximum size of the expansion space            ...     70
Maximum number of iterations                   ...    100
Convergence tolerance for the residual         ...    1.000e-06
Convergence tolerance for the energies         ...    1.000e-06
Orthogonality tolerance                        ...    1.000e-14
Level Shift                                    ...    0.000e+00
Constructing the preconditioner                ... o.k.
Building the initial guess                     ... o.k.
Number of trial vectors determined             ...     70


                       ****Iteration    0****

   Memory handling for direct AO based CIS:
   Memory per vector needed      ...    28 MB
   Memory needed                 ...   844 MB
   Memory available              ...  4000 MB
   Number of vectors per batch   ...   142
   Number of batches             ...     1
   Time for densities:            0.286
   Time for RI-J (Direct):        9.872
   Time for K (COSX):           121.342
   Time for XC-Integration:     153.154
   Time for LR-CPCM terms:       12.213
   Time for Sigma-Completion:     0.234
   Size of expansion space: 30
   Lowest Energy          :     0.185848986441
   Maximum Energy change  :     0.258104862780 (vector 9)
   Maximum residual norm  :     0.026719634764

                       ****Iteration    1****
   Time for densities:            0.099
   Time for RI-J (Direct):        5.726
   Time for K (COSX):            45.380
   Time for XC-Integration:      54.284
   Time for LR-CPCM terms:        5.689
   Time for Sigma-Completion:     0.079
   Size of expansion space: 40
   Lowest Energy          :     0.163161112540
   Maximum Energy change  :     0.022687873901 (vector 0)
   Maximum residual norm  :     0.001310237021

                       ****Iteration    2****
   Time for densities:            0.098
   Time for RI-J (Direct):        5.749
   Time for K (COSX):            45.170
   Time for XC-Integration:      54.843
   Time for LR-CPCM terms:        5.710
   Time for Sigma-Completion:     0.079
   Size of expansion space: 50
   Lowest Energy          :     0.162032844177
   Maximum Energy change  :     0.003752968189 (vector 6)
   Maximum residual norm  :     0.001602586216

                       ****Iteration    3****
   Time for densities:            0.099
   Time for RI-J (Direct):        5.771
   Time for K (COSX):            45.541
   Time for XC-Integration:      55.033
   Time for LR-CPCM terms:        5.698
   Time for Sigma-Completion:     0.079
   Size of expansion space: 60
   Lowest Energy          :     0.161957496550
   Maximum Energy change  :     0.004518713075 (vector 8)
   Maximum residual norm  :     0.000517269533

                       ****Iteration    4****
   Time for densities:            0.101
   Time for RI-J (Direct):        5.805
   Time for K (COSX):            45.470
   Time for XC-Integration:      54.873
   Time for LR-CPCM terms:        5.720
   Time for Sigma-Completion:     0.079
   Size of expansion space: 70
   Lowest Energy          :     0.161952487616
   Maximum Energy change  :     0.001129895133 (vector 3)
   Maximum residual norm  :     0.000083386035
   Rebuilding the expansion space

                       ****Iteration    5****
   Time for densities:            0.196
   Time for RI-J (Direct):        7.684
   Time for K (COSX):            84.896
   Time for XC-Integration:     108.415
   Time for LR-CPCM terms:        9.077
   Time for Sigma-Completion:     0.167
   Size of expansion space: 20
   Lowest Energy          :     0.161952097416
   Maximum Energy change  :     0.000107438615 (vector 3)
   Maximum residual norm  :     0.000015922661

                       ****Iteration    6****
   Time for densities:            0.104
   Time for RI-J (Direct):        5.808
   Time for K (COSX):            46.487
   Time for XC-Integration:      55.728
   Time for LR-CPCM terms:        5.622
   Time for Sigma-Completion:     0.078
   Size of expansion space: 30
   Lowest Energy          :     0.161952042437
   Maximum Energy change  :     0.000035967050 (vector 8)
   Maximum residual norm  :     0.000005404948

                       ****Iteration    7****
   Time for densities:            0.098
   Time for RI-J (Direct):        5.657
   Time for K (COSX):            46.354
   Time for XC-Integration:      55.003
   Time for LR-CPCM terms:        5.600
   Time for Sigma-Completion:     0.081
   Size of expansion space: 40
   Lowest Energy          :     0.161952036759
   Maximum Energy change  :     0.000013986965 (vector 9)
   Maximum residual norm  :     0.000005829391

                       ****Iteration    8****
   Time for densities:            0.099
   Time for RI-J (Direct):        5.687
   Time for K (COSX):            46.649
   Time for XC-Integration:      55.587
   Time for LR-CPCM terms:        5.646
   Time for Sigma-Completion:     0.080
   Size of expansion space: 50
   Lowest Energy          :     0.161952036253
   Maximum Energy change  :     0.000014157621 (vector 9)
   Maximum residual norm  :     0.000002439027

                       ****Iteration    9****
   Time for densities:            0.101
   Time for RI-J (Direct):        5.659
   Time for K (COSX):            46.251
   Time for XC-Integration:      55.781
   Time for LR-CPCM terms:        5.615
   Time for Sigma-Completion:     0.081
   Size of expansion space: 60
   Lowest Energy          :     0.161952036218
   Maximum Energy change  :     0.000009643815 (vector 9)
   Maximum residual norm  :     0.000001842614

                       ****Iteration   10****
   Time for densities:            0.102
   Time for RI-J (Direct):        5.696
   Time for K (COSX):            46.799
   Time for XC-Integration:      56.435
   Time for LR-CPCM terms:        5.696
   Time for Sigma-Completion:     0.081
   Size of expansion space: 70
   Lowest Energy          :     0.161952036215
   Maximum Energy change  :     0.000007146618 (vector 9)
   Maximum residual norm  :     0.000001052275
   Rebuilding the expansion space

                       ****Iteration   11****
   Time for densities:            0.201
   Time for RI-J (Direct):        7.619
   Time for K (COSX):            86.270
   Time for XC-Integration:     107.300
   Time for LR-CPCM terms:        8.894
   Time for Sigma-Completion:     0.158
   Size of expansion space: 20
   Lowest Energy          :     0.161952036294
   Maximum Energy change  :     0.000001960966 (vector 9)
   Maximum residual norm  :     0.000000389957

      *** CONVERGENCE OF RESIDUAL NORM REACHED ***

Storing the converged CI vectors               ... m062x-train-11_job2.cis1

                 *** DAVIDSON DONE ***

Total time for solving the CIS problem:  1736.262sec

------------------------------------
TD-DFT/TDA EXCITED STATES (SINGLETS)
------------------------------------

the weight of the individual excitations are printed if larger than 1.0e-02

STATE  1:  E=   0.161952 au      4.407 eV    35544.4 cm**-1 <S**2> =   0.000000
    49a ->  50a  :     0.959254 (c=  0.97941526)

STATE  2:  E=   0.186661 au      5.079 eV    40967.4 cm**-1 <S**2> =   0.000000
    45a ->  50a  :     0.029267 (c=  0.17107556)
    46a ->  50a  :     0.167791 (c= -0.40962262)
    47a ->  50a  :     0.606802 (c= -0.77897517)
    47a ->  70a  :     0.011634 (c= -0.10786214)
    48a ->  50a  :     0.128503 (c= -0.35847260)

STATE  3:  E=   0.208833 au      5.683 eV    45833.6 cm**-1 <S**2> =   0.000000
    48a ->  60a  :     0.012116 (c= -0.11007381)
    49a ->  51a  :     0.782001 (c=  0.88430846)
    49a ->  52a  :     0.025634 (c= -0.16010639)
    49a ->  54a  :     0.053904 (c=  0.23217146)
    49a ->  61a  :     0.011082 (c=  0.10527216)
    49a ->  62a  :     0.011104 (c=  0.10537374)

STATE  4:  E=   0.214985 au      5.850 eV    47183.8 cm**-1 <S**2> =   0.000000
    45a ->  60a  :     0.032477 (c= -0.18021347)
    48a ->  52a  :     0.020491 (c= -0.14314668)
    48a ->  53a  :     0.030203 (c= -0.17378936)
    48a ->  55a  :     0.061850 (c= -0.24869646)
    48a ->  60a  :     0.180715 (c= -0.42510535)
    48a ->  61a  :     0.041050 (c=  0.20260706)
    48a ->  62a  :     0.020525 (c=  0.14326434)
    48a ->  66a  :     0.019120 (c= -0.13827501)
    48a ->  68a  :     0.025523 (c=  0.15975905)
    49a ->  51a  :     0.050581 (c= -0.22490201)
    49a ->  52a  :     0.072266 (c= -0.26882292)
    49a ->  53a  :     0.093393 (c= -0.30560243)
    49a ->  54a  :     0.031310 (c= -0.17694494)
    49a ->  55a  :     0.036127 (c= -0.19007144)
    49a ->  60a  :     0.086259 (c= -0.29369866)

STATE  5:  E=   0.224916 au      6.120 eV    49363.3 cm**-1 <S**2> =   0.000000
    45a ->  60a  :     0.014400 (c= -0.12000063)
    48a ->  53a  :     0.011109 (c= -0.10539931)
    48a ->  55a  :     0.014846 (c= -0.12184588)
    48a ->  60a  :     0.052864 (c= -0.22992111)
    48a ->  61a  :     0.011428 (c=  0.10689977)
    49a ->  52a  :     0.627499 (c=  0.79214857)
    49a ->  53a  :     0.060509 (c=  0.24598530)
    49a ->  54a  :     0.055729 (c=  0.23606954)
    49a ->  57a  :     0.011439 (c= -0.10695314)

STATE  6:  E=   0.230858 au      6.282 eV    50667.5 cm**-1 <S**2> =   0.000000
    48a ->  60a  :     0.018359 (c= -0.13549623)
    49a ->  52a  :     0.072598 (c= -0.26944027)
    49a ->  53a  :     0.713898 (c=  0.84492507)
    49a ->  54a  :     0.037995 (c= -0.19492355)
    49a ->  56a  :     0.024366 (c= -0.15609655)
    49a ->  57a  :     0.019154 (c=  0.13839858)
    49a ->  59a  :     0.029631 (c=  0.17213514)

STATE  7:  E=   0.233807 au      6.362 eV    51314.7 cm**-1 <S**2> =   0.000000
    49a ->  51a  :     0.061333 (c= -0.24765541)
    49a ->  52a  :     0.113304 (c= -0.33660587)
    49a ->  54a  :     0.667168 (c=  0.81680345)
    49a ->  55a  :     0.017857 (c=  0.13363185)
    49a ->  56a  :     0.019896 (c= -0.14105256)
    49a ->  59a  :     0.050055 (c= -0.22372922)

STATE  8:  E=   0.240701 au      6.550 eV    52827.8 cm**-1 <S**2> =   0.000000
    45a ->  50a  :     0.147323 (c= -0.38382683)
    47a ->  50a  :     0.081102 (c= -0.28478343)
    48a ->  50a  :     0.287222 (c=  0.53593133)
    48a ->  60a  :     0.012155 (c= -0.11024820)
    49a ->  55a  :     0.056187 (c=  0.23703785)
    49a ->  56a  :     0.024462 (c=  0.15640266)
    49a ->  57a  :     0.059309 (c=  0.24353374)
    49a ->  59a  :     0.010597 (c=  0.10293970)
    49a ->  60a  :     0.054878 (c=  0.23426116)
    49a ->  61a  :     0.066539 (c=  0.25795087)
    49a ->  62a  :     0.049086 (c=  0.22155456)
    49a ->  69a  :     0.012790 (c=  0.11309164)
    49a ->  70a  :     0.011700 (c= -0.10816697)

STATE  9:  E=   0.244841 au      6.662 eV    53736.3 cm**-1 <S**2> =   0.000000
    45a ->  50a  :     0.028085 (c= -0.16758704)
    47a ->  50a  :     0.034258 (c= -0.18509010)
    48a ->  50a  :     0.151967 (c=  0.38982930)
    48a ->  60a  :     0.010079 (c=  0.10039540)
    49a ->  55a  :     0.340017 (c= -0.58310957)
    49a ->  56a  :     0.066875 (c= -0.25860154)
    49a ->  57a  :     0.062809 (c= -0.25061682)
    49a ->  58a  :     0.031595 (c= -0.17775035)
    49a ->  60a  :     0.134371 (c= -0.36656621)

STATE 10:  E=   0.249584 au      6.792 eV    54777.3 cm**-1 <S**2> =   0.000000
    47a ->  50a  :     0.011285 (c=  0.10623311)
    48a ->  50a  :     0.050089 (c= -0.22380589)
    49a ->  51a  :     0.030579 (c= -0.17486831)
    49a ->  55a  :     0.031200 (c= -0.17663512)
    49a ->  56a  :     0.160209 (c=  0.40026068)
    49a ->  57a  :     0.072403 (c=  0.26907891)
    49a ->  58a  :     0.331959 (c= -0.57615842)
    49a ->  59a  :     0.010572 (c=  0.10282053)
    49a ->  62a  :     0.139816 (c=  0.37391957)
    49a ->  63a  :     0.014505 (c= -0.12043680)
    49a ->  68a  :     0.015214 (c= -0.12334574)


-----------------------------
TD-DFT/TDA-EXCITATION SPECTRA
-----------------------------

Center of mass = (  0.1664, -0.2971, -0.0880)
Calculating the Dipole integrals                  ... done
Transforming integrals                            ... done
Calculating the Linear Momentum integrals         ... done
Transforming integrals                            ... done
Calculating angular momentum integrals            ... done
Transforming integrals                            ... done

-----------------------------------------------------------------------------
         ABSORPTION SPECTRUM VIA TRANSITION ELECTRIC DIPOLE MOMENTS
-----------------------------------------------------------------------------
State   Energy    Wavelength  fosc         T2        TX        TY        TZ  
        (cm-1)      (nm)                 (au**2)    (au)      (au)      (au) 
-----------------------------------------------------------------------------
   1   35544.4    281.3   0.095494171   0.88447   0.86518   0.11511  -0.35027
   2   40967.4    244.1   0.004027501   0.03236  -0.04497  -0.11295  -0.13261
   3   45833.6    218.2   0.001295592   0.00931   0.00320  -0.08513  -0.04526
   4   47183.8    211.9   0.000546208   0.00381   0.01024  -0.03137   0.05217
   5   49363.3    202.6   0.005847967   0.03900  -0.07843   0.06628  -0.16869
   6   50667.5    197.4   0.006717902   0.04365  -0.06617  -0.18357  -0.07465
   7   51314.7    194.9   0.026008136   0.16686  -0.09829   0.34498  -0.19540
   8   52827.8    189.3   0.028179153   0.17561   0.15973  -0.19041   0.33740
   9   53736.3    186.1   0.096870744   0.59347  -0.11458  -0.75911  -0.06402
  10   54777.3    182.6   0.049495409   0.29747  -0.14053   0.46813  -0.24203

-----------------------------------------------------------------------------
         ABSORPTION SPECTRUM VIA TRANSITION VELOCITY DIPOLE MOMENTS
-----------------------------------------------------------------------------
State   Energy    Wavelength   fosc        P2         PX        PY        PZ  
        (cm-1)      (nm)                 (au**2)     (au)      (au)      (au) 
-----------------------------------------------------------------------------
   1   35544.4    281.3   0.017586949   0.00427  -0.00005   0.06273   0.01838
   2   40967.4    244.1   0.001176532   0.00033  -0.01096  -0.01000  -0.01046
   3   45833.6    218.2   0.001596127   0.00050   0.00775   0.01779   0.01110
   4   47183.8    211.9   0.000801415   0.00026  -0.00836  -0.01373  -0.00003
   5   49363.3    202.6   0.005111569   0.00172  -0.00195  -0.02201   0.03516
   6   50667.5    197.4   0.005019498   0.00174   0.01595   0.03235   0.02091
   7   51314.7    194.9   0.016156621   0.00567   0.01952  -0.05742   0.04459
   8   52827.8    189.3   0.003949096   0.00143  -0.03423  -0.00910  -0.01310
   9   53736.3    186.1   0.039494606   0.01450   0.02248   0.10111   0.06146
  10   54777.3    182.6   0.009960956   0.00373   0.02397  -0.05127   0.02293

-------------------------------------------------------------------
                             CD SPECTRUM
-------------------------------------------------------------------
State  Energy     Wavelength     R         MX        MY        MZ   
       (cm-1)       (nm)     (1e40*cgs)   (au)      (au)      (au)  
-------------------------------------------------------------------
   1   35544.4    281.3    -40.17653  -0.34003  -0.23931  -0.67522
   2   40967.4    244.1     -6.59344  -0.23628   0.21413   0.00320
   3   45833.6    218.2      4.16520  -0.00016  -0.09176  -0.02262
   4   47183.8    211.9     -3.98529  -0.22025   0.36294   0.09943
   5   49363.3    202.6      0.44747  -0.33375   0.05567   0.17143
   6   50667.5    197.4     -3.58045  -0.06942   0.03509   0.07699
   7   51314.7    194.9     -8.62855   0.07589  -0.03573  -0.00759
   8   52827.8    189.3     43.09560   0.15853   0.15896   0.28558
   9   53736.3    186.1     -7.37605   0.06009  -0.01099   0.26720
  10   54777.3    182.6    -10.83199   0.02614  -0.14011  -0.19124

-------------------------------------------------------------------
         CD SPECTRUM VIA TRANSITION VELOCITY DIPOLE MOMENTS        
-------------------------------------------------------------------
State  Energy     Wavelength     R         MX        MY        MZ   
       (cm-1)       (nm)     (1e40*cgs)   (au)      (au)      (au)  
-------------------------------------------------------------------
   1   35544.4    281.3    -79.77064  -0.34003  -0.23931  -0.67522
   2   40967.4    244.1      1.04758  -0.23628   0.21413   0.00320
   3   45833.6    218.2     -4.25589  -0.00016  -0.09176  -0.02262
   4   47183.8    211.9     -6.89925  -0.22025   0.36294   0.09943
   5   49363.3    202.6     11.43052  -0.33375   0.05567   0.17143
   6   50667.5    197.4      3.34443  -0.06942   0.03509   0.07699
   7   51314.7    194.9      6.44199   0.07589  -0.03573  -0.00759
   8   52827.8    189.3    -20.78879   0.15853   0.15896   0.28558
   9   53736.3    186.1     32.08002   0.06009  -0.01099   0.26720
  10   54777.3    182.6      6.46979   0.02614  -0.14011  -0.19124

Total run time:     1742.971 sec

           *** ORCA-CIS/TD-DFT FINISHED WITHOUT ERROR ***

Maximum memory used throughout the entire CIS-calculation: 821.4 MB

-----------------------
CIS/TD-DFT TOTAL ENERGY
-----------------------

    E(SCF)  =   -643.171049801 Eh
    DE(CIS) =      0.161952036 Eh (Root  1)
    ----------------------------- ---------
    E(tot)  =   -643.009097765 Eh


-------------------------   --------------------
FINAL SINGLE POINT ENERGY      -643.009097764839
-------------------------   --------------------


                            ***************************************
                            *     ORCA property calculations      *
                            ***************************************

                                    ---------------------
                                    Active property flags
                                    ---------------------
   (+) Dipole Moment


------------------------------------------------------------------------------
                       ORCA ELECTRIC PROPERTIES CALCULATION
------------------------------------------------------------------------------

Dipole Moment Calculation                       ... on
Quadrupole Moment Calculation                   ... off
Polarizability Calculation                      ... off
GBWName                                         ... m062x-train-11_job2.gbw
Electron density                                ... m062x-train-11_job2.scfp
The origin for moment calculation is the CENTER OF MASS  = ( 0.166383, -0.297143 -0.087975)

-------------
DIPOLE MOMENT
-------------
                                X             Y             Z
Electronic contribution:     -0.18743      -1.06355       0.04505
Nuclear contribution   :     -0.92512       3.54965       1.04003
                        -----------------------------------------
Total Dipole Moment    :     -1.11254       2.48610       1.08508
                        -----------------------------------------
Magnitude (a.u.)       :      2.93186
Magnitude (Debye)      :      7.45221



--------------------
Rotational spectrum 
--------------------
 
Rotational constants in cm-1:     0.029633     0.022573     0.015172 
Rotational constants in MHz :   888.383786   676.720250   454.835469 

 Dipole components along the rotational axes: 
x,y,z [a.u.] :    -1.405571     2.484511     0.668885 
x,y,z [Debye]:    -3.572677     6.315125     1.700171 

 

Timings for individual modules:

Sum of individual times         ...     2063.651 sec (=  34.394 min)
GTO integral calculation        ...        2.779 sec (=   0.046 min)   0.1 %
SCF iterations                  ...      317.421 sec (=   5.290 min)  15.4 %
CIS module                      ...     1743.451 sec (=  29.058 min)  84.5 %



                             ****ORCA TERMINATED NORMALLY****
TOTAL RUN TIME: 0 days 9 hours 50 minutes 25 seconds 623 msec
