
                                 *****************
                                 * O   R   C   A *
                                 *****************

                                            #,                                       
                                            ###                                      
                                            ####                                     
                                            #####                                    
                                            ######                                   
                                           ########,                                 
                                     ,,################,,,,,                         
                               ,,#################################,,                 
                          ,,##########################################,,             
                       ,#########################################, ''#####,          
                    ,#############################################,,   '####,        
                  ,##################################################,,,,####,       
                ,###########''''           ''''###############################       
              ,#####''   ,,,,##########,,,,          '''####'''          '####       
            ,##' ,,,,###########################,,,                        '##       
           ' ,,###''''                  '''############,,,                           
         ,,##''                                '''############,,,,        ,,,,,,###''
      ,#''                                            '''#######################'''  
     '                                                          ''''####''''         
             ,#######,   #######,   ,#######,      ##                                
            ,#'     '#,  ##    ##  ,#'     '#,    #''#        ######   ,####,        
            ##       ##  ##   ,#'  ##            #'  '#       #        #'  '#        
            ##       ##  #######   ##           ,######,      #####,   #    #        
            '#,     ,#'  ##    ##  '#,     ,#' ,#      #,         ##   #,  ,#        
             '#######'   ##     ##  '#######'  #'      '#     #####' # '####'        



                  #######################################################
                  #                        -***-                        #
                  #          Department of theory and spectroscopy      #
                  #    Directorship and core code : Frank Neese         #
                  #        Max Planck Institute fuer Kohlenforschung    #
                  #                Kaiser Wilhelm Platz 1               #
                  #                 D-45470 Muelheim/Ruhr               #
                  #                      Germany                        #
                  #                                                     #
                  #                  All rights reserved                #
                  #                        -***-                        #
                  #######################################################


                         Program Version 5.0.2 -  RELEASE  -


 With contributions from (in alphabetic order):
   Daniel Aravena         : Magnetic Suceptibility
   Michael Atanasov       : Ab Initio Ligand Field Theory (pilot matlab implementation)
   Alexander A. Auer      : GIAO ZORA, VPT2 properties, NMR spectrum
   Ute Becker             : Parallelization
   Giovanni Bistoni       : ED, misc. LED, open-shell LED, HFLD
   Martin Brehm           : Molecular dynamics
   Dmytro Bykov           : SCF Hessian
   Vijay G. Chilkuri      : MRCI spin determinant printing, contributions to CSF-ICE
   Dipayan Datta          : RHF DLPNO-CCSD density
   Achintya Kumar Dutta   : EOM-CC, STEOM-CC
   Dmitry Ganyushin       : Spin-Orbit,Spin-Spin,Magnetic field MRCI
   Miquel Garcia          : C-PCM and meta-GGA Hessian, CC/C-PCM, Gaussian charge scheme
   Yang Guo               : DLPNO-NEVPT2, F12-NEVPT2, CIM, IAO-localization
   Andreas Hansen         : Spin unrestricted coupled pair/coupled cluster methods
   Benjamin Helmich-Paris : MC-RPA, TRAH-SCF, COSX integrals
   Lee Huntington         : MR-EOM, pCC
   Robert Izsak           : Overlap fitted RIJCOSX, COSX-SCS-MP3, EOM
   Marcus Kettner         : VPT2
   Christian Kollmar      : KDIIS, OOCD, Brueckner-CCSD(T), CCSD density, CASPT2, CASPT2-K
   Simone Kossmann        : Meta GGA functionals, TD-DFT gradient, OOMP2, MP2 Hessian
   Martin Krupicka        : Initial AUTO-CI
   Lucas Lang             : DCDCAS
   Marvin Lechner         : AUTO-CI (C++ implementation), FIC-MRCC
   Dagmar Lenk            : GEPOL surface, SMD
   Dimitrios Liakos       : Extrapolation schemes; Compound Job, initial MDCI parallelization
   Dimitrios Manganas     : Further ROCIS development; embedding schemes
   Dimitrios Pantazis     : SARC Basis sets
   Anastasios Papadopoulos: AUTO-CI, single reference methods and gradients
   Taras Petrenko         : DFT Hessian,TD-DFT gradient, ASA, ECA, R-Raman, ABS, FL, XAS/XES, NRVS
   Peter Pinski           : DLPNO-MP2, DLPNO-MP2 Gradient
   Christoph Reimann      : Effective Core Potentials
   Marius Retegan         : Local ZFS, SOC
   Christoph Riplinger    : Optimizer, TS searches, QM/MM, DLPNO-CCSD(T), (RO)-DLPNO pert. Triples
   Tobias Risthaus        : Range-separated hybrids, TD-DFT gradient, RPA, STAB
   Michael Roemelt        : Original ROCIS implementation
   Masaaki Saitow         : Open-shell DLPNO-CCSD energy and density
   Barbara Sandhoefer     : DKH picture change effects
   Avijit Sen             : IP-ROCIS
   Kantharuban Sivalingam : CASSCF convergence, NEVPT2, FIC-MRCI
   Bernardo de Souza      : ESD, SOC TD-DFT
   Georgi Stoychev        : AutoAux, RI-MP2 NMR, DLPNO-MP2 response
   Willem Van den Heuvel  : Paramagnetic NMR
   Boris Wezisla          : Elementary symmetry handling
   Frank Wennmohs         : Technical directorship


 We gratefully acknowledge several colleagues who have allowed us to
 interface, adapt or use parts of their codes:
   Stefan Grimme, W. Hujo, H. Kruse, P. Pracht,  : VdW corrections, initial TS optimization,
                  C. Bannwarth, S. Ehlert          DFT functionals, gCP, sTDA/sTD-DF
   Ed Valeev, F. Pavosevic, A. Kumar             : LibInt (2-el integral package), F12 methods
   Garnet Chan, S. Sharma, J. Yang, R. Olivares  : DMRG
   Ulf Ekstrom                                   : XCFun DFT Library
   Mihaly Kallay                                 : mrcc  (arbitrary order and MRCC methods)
   Jiri Pittner, Ondrej Demel                    : Mk-CCSD
   Frank Weinhold                                : gennbo (NPA and NBO analysis)
   Christopher J. Cramer and Donald G. Truhlar   : smd solvation model
   Lars Goerigk                                  : TD-DFT with DH, B97 family of functionals
   V. Asgeirsson, H. Jonsson                     : NEB implementation
   FAccTs GmbH                                   : IRC, NEB, NEB-TS, DLPNO-Multilevel, CI-OPT
                                                   MM, QMMM, 2- and 3-layer-ONIOM, Crystal-QMMM,
                                                   LR-CPCM, SF, NACMEs, symmetry and pop. for TD-DFT,
                                                   nearIR, NL-DFT gradient (VV10), updates on ESD,
                                                   ML-optimized integration grids
   S Lehtola, MJT Oliveira, MAL Marques          : LibXC Library
   Liviu Ungur et al                             : ANISO software


 Your calculation uses the libint2 library for the computation of 2-el integrals
 For citations please refer to: http://libint.valeyev.net

 Your ORCA version has been built with support for libXC version: 5.1.0
 For citations please refer to: https://tddft.org/programs/libxc/

 This ORCA versions uses:
   CBLAS   interface :  Fast vector & matrix operations
   LAPACKE interface :  Fast linear algebra routines
   SCALAPACK package :  Parallel linear algebra routines
   Shared memory     :  Shared parallel matrices
   BLAS/LAPACK       :  OpenBLAS 0.3.15  USE64BITINT DYNAMIC_ARCH NO_AFFINITY Haswell SINGLE_THREADED
        Core in use  :  Haswell
   Copyright (c) 2011-2014, The OpenBLAS Project


Your calculation utilizes the atom-pairwise dispersion correction
with the Becke-Johnson damping scheme (D3BJ)
Cite in your paper:
S.Grimme, S.Ehrlich, L.Goerigk, J Comput Chem, (2011), 32, 1456–1465 
S.Grimme, J.Antony, S.Ehrlich and H.Krieg, J.Chem.Phys., 132, (2010), 154104 
   

Your calculation utilizes the SMD solvation module
Please cite in your paper:
A.V. Marenich, C.J. Cramer, D.G. Truhlar J. Phys. Chem. B, 113, (2009), 6378 

================================================================================

----- Orbital basis set information -----
Your calculation utilizes the basis: aug-cc-pVTZ 
    H, B-Ne : Obtained from the ccRepo (grant-hill.group.shef.ac.uk/ccrepo) Feb. 2017
              R. A. Kendall, T. H. Dunning, Jr., R. J. Harrison, J. Chem. Phys. 96, 6796 (1992)
         He : Obtained from the ccRepo (grant-hill.group.shef.ac.uk/ccrepo) Feb. 2017
              D. E. Woon, T. H. Dunning, Jr., J. Chem. Phys. 100, 2975 (1994)
  Li-Be, Na : Obtained from the ccRepo (grant-hill.group.shef.ac.uk/ccrepo) Feb. 2017
              B. P. Prascher, D. E. Woon, K. A. Peterson, T. H. Dunning, Jr., A. K. Wilson, Theor. Chem. Acc. 128, 69 (2011)
         Mg : Obtained from the Peterson Research Group Website (tyr0.chem.wsu.edu/~kipeters) Feb. 2017
              B. P. Prascher, D. E. Woon, K. A. Peterson, T. H. Dunning, Jr., A. K. Wilson, Theor. Chem. Acc. 128, 69 (2011)
      Al-Ar : Obtained from the ccRepo (grant-hill.group.shef.ac.uk/ccrepo) Feb. 2017
              D. E. Woon, T. H. Dunning, Jr., J. Chem. Phys. 98, 1358 (1993)
      Sc-Zn : Obtained from the ccRepo (grant-hill.group.shef.ac.uk/ccrepo) Feb. 2017
              N. B. Balabanov, K. A. Peterson, J. Chem. Phys. 123, 064107 (2005)
              N. B. Balabanov, K. A. Peterson, J. Chem. Phys. 125, 074110 (2006)
      Ga-Kr : Obtained from the ccRepo (grant-hill.group.shef.ac.uk/ccrepo) Feb. 2017
              A. K. Wilson, D. E. Woon, K. A. Peterson, T. H. Dunning, Jr., J. Chem. Phys. 110, 7667 (1999)
     Ag, Au : Obtained from the Peterson Research Group Website (tyr0.chem.wsu.edu/~kipeters) Feb. 2017
              K. A. Peterson, C. Puzzarini, Theor. Chem. Acc. 114, 283 (2005)

The basis set includes element-specific modifications.

Your calculation utilizes the basis: cc-pVTZ 
       H, B-Ne : Obtained from the ccRepo (grant-hill.group.shef.ac.uk/ccrepo) Feb. 2017
                 T. H. Dunning, Jr., J. Chem. Phys. 90, 1007 (1989)
            He : Obtained from the ccRepo (grant-hill.group.shef.ac.uk/ccrepo) Feb. 2017
                 D. E. Woon, T. H. Dunning, Jr., J. Chem. Phys. 100, 2975 (1994)
  Li-Be, Na-Mg : Obtained from the ccRepo (grant-hill.group.shef.ac.uk/ccrepo) Feb. 2017
                 B. P. Prascher, D. E. Woon, K. A. Peterson, T. H. Dunning, Jr., A. K. Wilson, Theor. Chem. Acc. 128, 69 (2011)
         Al-Ar : Obtained from the ccRepo (grant-hill.group.shef.ac.uk/ccrepo) Feb. 2017
                 D. E. Woon, T. H. Dunning, Jr., J. Chem. Phys. 98, 1358 (1993)
            Ca : Obtained from the Peterson Research Group Website (tyr0.chem.wsu.edu/~kipeters) Feb. 2017
                 J. Koput, K. A. Peterson, J. Phys. Chem. 106, 9595 (2002)
         Sc-Zn : Obtained from the ccRepo (grant-hill.group.shef.ac.uk/ccrepo) Feb. 2017
                 N. B. Balabanov, K. A. Peterson, J. Chem. Phys. 123, 064107 (2005)
                 N. B. Balabanov, K. A. Peterson, J. Chem. Phys. 125, 074110 (2006)
         Ga-Kr : Obtained from the ccRepo (grant-hill.group.shef.ac.uk/ccrepo) Feb. 2017
                 A. K. Wilson, D. E. Woon, K. A. Peterson, T. H. Dunning, Jr., J. Chem. Phys. 110, 7667 (1999)
             Y : Obtained from the ccRepo (grant-hill.group.shef.ac.uk/ccrepo) Feb. 2017
                 K. A. Peterson, D. Figgen, M. Dolg, H. Stoll, J. Chem. Phys. 126, 124101 (2007)
        Ag, Au : Obtained from the Peterson Research Group Website (tyr0.chem.wsu.edu/~kipeters) Feb. 2017
                 K. A. Peterson, C. Puzzarini, Theor. Chem. Acc. 114, 283 (2005)

----- AuxJ basis set information -----
Your calculation utilizes the auxiliary basis: aug-cc-pVTZ/JK 
  H, B-F, Al-Cl, Ga-Br : Obtained from the TURBOMOLE 7.0 basis set library

The basis set includes element-specific modifications.

Your calculation utilizes the auxiliary basis: cc-pVTZ/JK 
  H, B-F, Al-Cl, Ga-Br : Obtained from the TURBOMOLE 7.0 basis set library

----- AuxC basis set information -----
Your calculation utilizes the auxiliary basis: aug-cc-pVTZ/C 
  H-He, B-F, Al-Ar, Ga-Kr : Obtained from the EMSL Basis Set Exchange (bse.pnl.gov) Feb. 2017
                            F. Weigend, A. Kohn, C. Hattig, J. Chem. Phys. 116, 3175 (2002)
                   Be, Mg : Obtained from the TURBOMOLE 7.0 basis set library
                            C. Haettig, Phys. Chem. Chem. Phys. 7, 59 (2005)
                       Ne : Obtained from the EMSL Basis Set Exchange (bse.pnl.gov) Feb. 2017
                            C. Haettig, Phys. Chem. Chem. Phys. 7, 59 (2005)
                            F. Weigend, A. Kohn, C. Hattig, J. Chem. Phys. 116, 3175 (2002)
                    Sc-Zn : Obtained from the EMSL Basis Set Exchange (bse.pnl.gov) Feb. 2017
                            J. G. Hill, J. A. Platts, J. Chem. Phys. 128, 044104 (2008)

The basis set includes element-specific modifications.

Your calculation utilizes the auxiliary basis: cc-pVTZ/C 
  Obtained from the EMSL Basis Set Exchange (bse.pnl.gov) Feb. 2017
  H-He, B-F, Al-Ar, Ga-Kr : F. Weigend, A. Kohn, C. Hattig, J. Chem. Phys. 116, 3175 (2002)
             Li-Be, Na-Mg : C. Haettig, Phys. Chem. Chem. Phys. 7, 59 (2005)
                       Ne : C. Haettig, Phys. Chem. Chem. Phys. 7, 59 (2005)
                            F. Weigend, A. Kohn, C. Hattig, J. Chem. Phys. 116, 3175 (2002)
                    Sc-Zn : J. G. Hill, J. A. Platts, J. Chem. Phys. 128, 044104 (2008)

================================================================================
                                        WARNINGS
                       Please study these warnings very carefully!
================================================================================


WARNING: Geometry Optimization
  ===> : Switching off AutoStart
         For restart on a previous wavefunction, please use MOREAD

INFO   : the flag for use of the SHARK integral package has been found!



***************************************
The coordinates will be read from file: 
***************************************


Your calculation utilizes the atom-pairwise dispersion correction
with the Becke-Johnson damping scheme (D3BJ)
Cite in your paper:
S.Grimme, S.Ehrlich, L.Goerigk, J Comput Chem, (2011), 32, 1456–1465 
S.Grimme, J.Antony, S.Ehrlich and H.Krieg, J.Chem.Phys., 132, (2010), 154104 
   

Your calculation utilizes the SMD solvation module
Please cite in your paper:
A.V. Marenich, C.J. Cramer, D.G. Truhlar J. Phys. Chem. B, 113, (2009), 6378 

================================================================================

----- Orbital basis set information -----
Your calculation utilizes the basis: aug-cc-pVTZ 
    H, B-Ne : Obtained from the ccRepo (grant-hill.group.shef.ac.uk/ccrepo) Feb. 2017
              R. A. Kendall, T. H. Dunning, Jr., R. J. Harrison, J. Chem. Phys. 96, 6796 (1992)
         He : Obtained from the ccRepo (grant-hill.group.shef.ac.uk/ccrepo) Feb. 2017
              D. E. Woon, T. H. Dunning, Jr., J. Chem. Phys. 100, 2975 (1994)
  Li-Be, Na : Obtained from the ccRepo (grant-hill.group.shef.ac.uk/ccrepo) Feb. 2017
              B. P. Prascher, D. E. Woon, K. A. Peterson, T. H. Dunning, Jr., A. K. Wilson, Theor. Chem. Acc. 128, 69 (2011)
         Mg : Obtained from the Peterson Research Group Website (tyr0.chem.wsu.edu/~kipeters) Feb. 2017
              B. P. Prascher, D. E. Woon, K. A. Peterson, T. H. Dunning, Jr., A. K. Wilson, Theor. Chem. Acc. 128, 69 (2011)
      Al-Ar : Obtained from the ccRepo (grant-hill.group.shef.ac.uk/ccrepo) Feb. 2017
              D. E. Woon, T. H. Dunning, Jr., J. Chem. Phys. 98, 1358 (1993)
      Sc-Zn : Obtained from the ccRepo (grant-hill.group.shef.ac.uk/ccrepo) Feb. 2017
              N. B. Balabanov, K. A. Peterson, J. Chem. Phys. 123, 064107 (2005)
              N. B. Balabanov, K. A. Peterson, J. Chem. Phys. 125, 074110 (2006)
      Ga-Kr : Obtained from the ccRepo (grant-hill.group.shef.ac.uk/ccrepo) Feb. 2017
              A. K. Wilson, D. E. Woon, K. A. Peterson, T. H. Dunning, Jr., J. Chem. Phys. 110, 7667 (1999)
     Ag, Au : Obtained from the Peterson Research Group Website (tyr0.chem.wsu.edu/~kipeters) Feb. 2017
              K. A. Peterson, C. Puzzarini, Theor. Chem. Acc. 114, 283 (2005)

The basis set includes element-specific modifications.

Your calculation utilizes the basis: cc-pVTZ 
       H, B-Ne : Obtained from the ccRepo (grant-hill.group.shef.ac.uk/ccrepo) Feb. 2017
                 T. H. Dunning, Jr., J. Chem. Phys. 90, 1007 (1989)
            He : Obtained from the ccRepo (grant-hill.group.shef.ac.uk/ccrepo) Feb. 2017
                 D. E. Woon, T. H. Dunning, Jr., J. Chem. Phys. 100, 2975 (1994)
  Li-Be, Na-Mg : Obtained from the ccRepo (grant-hill.group.shef.ac.uk/ccrepo) Feb. 2017
                 B. P. Prascher, D. E. Woon, K. A. Peterson, T. H. Dunning, Jr., A. K. Wilson, Theor. Chem. Acc. 128, 69 (2011)
         Al-Ar : Obtained from the ccRepo (grant-hill.group.shef.ac.uk/ccrepo) Feb. 2017
                 D. E. Woon, T. H. Dunning, Jr., J. Chem. Phys. 98, 1358 (1993)
            Ca : Obtained from the Peterson Research Group Website (tyr0.chem.wsu.edu/~kipeters) Feb. 2017
                 J. Koput, K. A. Peterson, J. Phys. Chem. 106, 9595 (2002)
         Sc-Zn : Obtained from the ccRepo (grant-hill.group.shef.ac.uk/ccrepo) Feb. 2017
                 N. B. Balabanov, K. A. Peterson, J. Chem. Phys. 123, 064107 (2005)
                 N. B. Balabanov, K. A. Peterson, J. Chem. Phys. 125, 074110 (2006)
         Ga-Kr : Obtained from the ccRepo (grant-hill.group.shef.ac.uk/ccrepo) Feb. 2017
                 A. K. Wilson, D. E. Woon, K. A. Peterson, T. H. Dunning, Jr., J. Chem. Phys. 110, 7667 (1999)
             Y : Obtained from the ccRepo (grant-hill.group.shef.ac.uk/ccrepo) Feb. 2017
                 K. A. Peterson, D. Figgen, M. Dolg, H. Stoll, J. Chem. Phys. 126, 124101 (2007)
        Ag, Au : Obtained from the Peterson Research Group Website (tyr0.chem.wsu.edu/~kipeters) Feb. 2017
                 K. A. Peterson, C. Puzzarini, Theor. Chem. Acc. 114, 283 (2005)

----- AuxJ basis set information -----
Your calculation utilizes the auxiliary basis: aug-cc-pVTZ/JK 
  H, B-F, Al-Cl, Ga-Br : Obtained from the TURBOMOLE 7.0 basis set library

The basis set includes element-specific modifications.

Your calculation utilizes the auxiliary basis: cc-pVTZ/JK 
  H, B-F, Al-Cl, Ga-Br : Obtained from the TURBOMOLE 7.0 basis set library

----- AuxC basis set information -----
Your calculation utilizes the auxiliary basis: aug-cc-pVTZ/C 
  H-He, B-F, Al-Ar, Ga-Kr : Obtained from the EMSL Basis Set Exchange (bse.pnl.gov) Feb. 2017
                            F. Weigend, A. Kohn, C. Hattig, J. Chem. Phys. 116, 3175 (2002)
                   Be, Mg : Obtained from the TURBOMOLE 7.0 basis set library
                            C. Haettig, Phys. Chem. Chem. Phys. 7, 59 (2005)
                       Ne : Obtained from the EMSL Basis Set Exchange (bse.pnl.gov) Feb. 2017
                            C. Haettig, Phys. Chem. Chem. Phys. 7, 59 (2005)
                            F. Weigend, A. Kohn, C. Hattig, J. Chem. Phys. 116, 3175 (2002)
                    Sc-Zn : Obtained from the EMSL Basis Set Exchange (bse.pnl.gov) Feb. 2017
                            J. G. Hill, J. A. Platts, J. Chem. Phys. 128, 044104 (2008)

The basis set includes element-specific modifications.

Your calculation utilizes the auxiliary basis: cc-pVTZ/C 
  Obtained from the EMSL Basis Set Exchange (bse.pnl.gov) Feb. 2017
  H-He, B-F, Al-Ar, Ga-Kr : F. Weigend, A. Kohn, C. Hattig, J. Chem. Phys. 116, 3175 (2002)
             Li-Be, Na-Mg : C. Haettig, Phys. Chem. Chem. Phys. 7, 59 (2005)
                       Ne : C. Haettig, Phys. Chem. Chem. Phys. 7, 59 (2005)
                            F. Weigend, A. Kohn, C. Hattig, J. Chem. Phys. 116, 3175 (2002)
                    Sc-Zn : J. G. Hill, J. A. Platts, J. Chem. Phys. 128, 044104 (2008)

================================================================================
                                        WARNINGS
                       Please study these warnings very carefully!
================================================================================

INFO   : Checking CIS options ...
  ===> : (D) CORRECTION FOUND - SETTING MODE=3
  ===> : JK MODE FOUND - ACTIVATING RI-MP2 CODE
  ===> : MP2 AND CIS FOUND - CHECKING
WARNING: CIS(D) and MP2 runs must have the same orbital window
  ===> : adjusting orbital windows

WARNING: No MP2 level density has been requested!
         To caclulate MP2 level properties use
         %mp2 Density relaxed end
         or
         %mp2 Density unrelaxed end
         Otherwise for double-hybrid DFT only the energy is correct!

WARNING: The frozen-core approximation is turned on by default for 
         the MP2 part of double-hybrid DFT.

WARNING:  You are using a Range-Separated Double Hybrid functional with Doubles Correction 
          Changing Mode to AOINTS 


INFO   : the flag for use of the SHARK integral package has been found!

================================================================================
                                       INPUT FILE
================================================================================
NAME = optpbed3-wb2plyp-train-11.inp
|  1> ! pbe0 d3bj aug-cc-PVTZ RIJCOSX Opt
|  2> %maxcore 4000
|  3> %basis
|  4>  AuxJ "aug-cc-PVTZ/JK"
|  5>  AuxC "aug-cc-PVTZ/C"
|  6>  newGTO H "cc-PVTZ" end
|  7>  newAuxJGTO H "cc-PVTZ/JK" end
|  8>  newAuxCGTO H "cc-PVTZ/C" end
|  9> end
| 10> %cpcm
| 11>  SMD true
| 12>  SMDsolvent "ethanol"
| 13> end
| 14> %pal nprocs 4 end
| 15> * xyz 0 1
| 16> N         -2.13160       -3.53150       -0.43250
| 17> C         -1.57570       -2.55260       -0.63200
| 18> C         -0.89460       -1.30680       -0.85160
| 19> C          0.62070       -1.46820       -1.05290
| 20> C          1.21490       -0.12200       -0.62600
| 21> C          2.51050       -0.27790        0.19930
| 22> N          2.91190        0.89490        0.72050
| 23> O          3.09230       -1.32760        0.33320
| 24> N          0.18610        0.51360        0.17560
| 25> N          0.17690        1.82820        0.27800
| 26> C         -0.90910        2.43540        0.60720
| 27> C         -2.17820        1.75380        0.67270
| 28> C         -2.22420        0.42980        0.50170
| 29> C         -0.96120       -0.36810        0.38090
| 30> H         -1.34710       -0.80480       -1.71590
| 31> H          1.01430       -2.25180       -0.40120
| 32> H          0.87550       -1.71890       -2.08030
| 33> H          1.45630        0.51580       -1.48700
| 34> H          3.70900        0.91340        1.33490
| 35> H          2.30520        1.70030        0.66600
| 36> H         -0.83820        3.50140        0.74460
| 37> H         -3.07550        2.34250        0.77660
| 38> H         -3.14950       -0.12280        0.43620
| 39> H         -0.78870       -0.97630        1.28840
| 40> *
| 41> 
| 42> 
| 43> $new_job
| 44> ! wb2plyp aug-cc-PVTZ RIJCOSX SP
| 45> %maxcore 4000
| 46> %basis
| 47>  AuxJ "aug-cc-PVTZ/JK"
| 48>  AuxC "aug-cc-PVTZ/C"
| 49>  newGTO H "cc-PVTZ" end
| 50>  newAuxJGTO H "cc-PVTZ/JK" end
| 51>  newAuxCGTO H "cc-PVTZ/C" end
| 52> end
| 53> %cpcm
| 54>  SMD true
| 55>  SMDsolvent "ethanol"
| 56> end
| 57> %pal nprocs 4 end
| 58> %tddft
| 59>  nroots 10
| 60>  maxdim 7
| 61> end
| 62> * xyzfile 0 1
| 63> 
| 64>                          ****END OF INPUT****
================================================================================


                 $$$$$$$$$$$$$$$$$$$$$$$$$$$$$$$$$$$$$$$$$$$$$$ 
                 $ THERE ARE  2 JOBS TO BE PROCESSED THIS RUN $
                 $$$$$$$$$$$$$$$$$$$$$$$$$$$$$$$$$$$$$$$$$$$$$$ 




                 $$$$$$$$$$$$$$$$  JOB NUMBER  1 $$$$$$$$$$$$$$


                       *****************************
                       * Geometry Optimization Run *
                       *****************************

Geometry optimization settings:
Update method            Update   .... BFGS
Choice of coordinates    CoordSys .... Z-matrix Internals
Initial Hessian          InHess   .... Almoef's Model

Convergence Tolerances:
Energy Change            TolE     ....  5.0000e-06 Eh
Max. Gradient            TolMAXG  ....  3.0000e-04 Eh/bohr
RMS Gradient             TolRMSG  ....  1.0000e-04 Eh/bohr
Max. Displacement        TolMAXD  ....  4.0000e-03 bohr
RMS Displacement         TolRMSD  ....  2.0000e-03 bohr
Strict Convergence                ....  False
------------------------------------------------------------------------------
                        ORCA OPTIMIZATION COORDINATE SETUP
------------------------------------------------------------------------------

The optimization will be done in new redundant internal coordinates
Making redundant internal coordinates   ...  (new redundants) done
Evaluating the initial hessian          ...  (Almloef) done
Evaluating the coordinates              ...  done
Calculating the B-matrix                .... done
Calculating the G-matrix                .... done
Diagonalizing the G-matrix              .... done
Small eigenvalue found = 2.354e-02
The first mode is                       ....   71
The number of degrees of freedom        ....   66

    -----------------------------------------------------------------
                    Redundant Internal Coordinates


    -----------------------------------------------------------------
         Definition                    Initial Value    Approx d2E/dq
    -----------------------------------------------------------------
      1. B(C   1,N   0)                  1.1433         1.385207   
      2. B(C   2,C   1)                  1.4367         0.526276   
      3. B(C   3,C   2)                  1.5371         0.363944   
      4. B(C   4,C   3)                  1.5322         0.370597   
      5. B(C   5,C   4)                  1.5440         0.354818   
      6. B(N   6,C   5)                  1.3447         0.660908   
      7. B(O   7,C   5)                  1.2076         1.093674   
      8. B(N   8,C   4)                  1.4509         0.447492   
      9. B(N   9,N   8)                  1.3186         0.651484   
     10. B(C  10,N   9)                  1.2870         0.816862   
     11. B(C  11,C  10)                  1.4420         0.516071   
     12. B(C  12,C  11)                  1.3358         0.762480   
     13. B(C  13,C  12)                  1.4988         0.418941   
     14. B(C  13,N   8)                  1.4615         0.430407   
     15. B(C  13,C   2)                  1.5507         0.346228   
     16. B(H  14,C   2)                  1.0972         0.350743   
     17. B(H  15,C   3)                  1.0925         0.356744   
     18. B(H  16,C   3)                  1.0878         0.363013   
     19. B(H  17,C   4)                  1.0984         0.349215   
     20. B(H  18,N   6)                  1.0066         0.438183   
     21. B(H  19,N   6)                  1.0098         0.433004   
     22. B(H  20,C  10)                  1.0772         0.377500   
     23. B(H  21,C  11)                  1.0782         0.376056   
     24. B(H  22,C  12)                  1.0797         0.373933   
     25. B(H  23,C  13)                  1.1060         0.339553   
     26. L(N   0,C   1,C   2,C  13, 2) 180.6772         0.484570   
     27. L(N   0,C   1,C   2,C  13, 1) 178.4979         0.484570   
     28. A(C   1,C   2,C   3)          113.3477         0.383732   
     29. A(C  13,C   2,H  14)          109.3556         0.318930   
     30. A(C   3,C   2,C  13)          102.1217         0.357082   
     31. A(C   3,C   2,H  14)          110.5762         0.321542   
     32. A(C   1,C   2,H  14)          108.7617         0.341788   
     33. A(C   1,C   2,C  13)          112.5232         0.380422   
     34. A(C   2,C   3,H  16)          112.2591         0.323359   
     35. A(C   2,C   3,H  15)          110.6305         0.322437   
     36. A(C   4,C   3,H  16)          112.0120         0.324322   
     37. A(C   2,C   3,C   4)          104.6886         0.361241   
     38. A(H  15,C   3,H  16)          108.2819         0.290780   
     39. A(C   4,C   3,H  15)          108.9204         0.323396   
     40. A(C   3,C   4,H  17)          112.1495         0.322267   
     41. A(C   5,C   4,N   8)          110.1162         0.369157   
     42. A(C   3,C   4,C   5)          112.6829         0.359681   
     43. A(C   3,C   4,N   8)          105.2988         0.371930   
     44. A(N   8,C   4,H  17)          109.5460         0.330434   
     45. A(C   5,C   4,H  17)          107.0505         0.319981   
     46. A(C   4,C   5,O   7)          123.4565         0.431961   
     47. A(C   4,C   5,N   6)          111.6903         0.395009   
     48. A(N   6,C   5,O   7)          124.8432         0.480559   
     49. A(C   5,N   6,H  19)          119.6929         0.362639   
     50. A(H  18,N   6,H  19)          119.6075         0.303901   
     51. A(C   5,N   6,H  18)          119.2745         0.363377   
     52. A(C   4,N   8,N   9)          118.9867         0.405143   
     53. A(N   9,N   8,C  13)          125.8087         0.402369   
     54. A(C   4,N   8,C  13)          111.7148         0.379267   
     55. A(N   8,N   9,C  10)          119.7421         0.451276   
     56. A(N   9,C  10,C  11)          122.0885         0.438449   
     57. A(C  11,C  10,H  20)          121.3257         0.344893   
     58. A(N   9,C  10,H  20)          116.3583         0.370585   
     59. A(C  10,C  11,C  12)          119.5369         0.435897   
     60. A(C  12,C  11,H  21)          121.6590         0.368286   
     61. A(C  10,C  11,H  21)          118.6016         0.344671   
     62. A(C  13,C  12,H  22)          116.4104         0.332572   
     63. A(C  11,C  12,H  22)          122.9939         0.367928   
     64. A(C  11,C  12,C  13)          120.5945         0.419906   
     65. A(N   8,C  13,H  23)          108.9407         0.326801   
     66. A(N   8,C  13,C  12)          110.5902         0.377340   
     67. A(C   2,C  13,H  23)          108.2146         0.317249   
     68. A(C   2,C  13,C  12)          114.9932         0.365758   
     69. A(C  12,C  13,H  23)          110.9804         0.327313   
     70. A(C   2,C  13,N   8)          102.6995         0.365164   
     71. D(H  15,C   3,C   2,H  14)   -159.8993         0.010611   
     72. D(H  16,C   3,C   2,C  13)   -155.0941         0.010611   
     73. D(H  15,C   3,C   2,C   1)    -37.4717         0.010611   
     74. D(C   4,C   3,C   2,C  13)    -33.3617         0.010611   
     75. D(H  16,C   3,C   2,C   1)     83.6108         0.010611   
     76. D(H  15,C   3,C   2,C  13)     83.8234         0.010611   
     77. D(C   4,C   3,C   2,C   1)   -154.6568         0.010611   
     78. D(H  16,C   3,C   2,H  14)    -38.8168         0.010611   
     79. D(C   4,C   3,C   2,H  14)     82.9156         0.010611   
     80. D(N   8,C   4,C   3,C   2)     18.6015         0.010977   
     81. D(N   8,C   4,C   3,H  15)    -99.7514         0.010977   
     82. D(C   5,C   4,C   3,H  16)    -99.4524         0.010977   
     83. D(C   5,C   4,C   3,H  15)     20.3003         0.010977   
     84. D(N   8,C   4,C   3,H  16)    140.4959         0.010977   
     85. D(C   5,C   4,C   3,C   2)    138.6532         0.010977   
     86. D(H  17,C   4,C   3,H  16)     21.4283         0.010977   
     87. D(H  17,C   4,C   3,H  15)    141.1810         0.010977   
     88. D(H  17,C   4,C   3,C   2)   -100.4662         0.010977   
     89. D(O   7,C   5,C   4,H  17)   -113.9776         0.009490   
     90. D(O   7,C   5,C   4,N   8)    127.0092         0.009490   
     91. D(O   7,C   5,C   4,C   3)      9.7747         0.009490   
     92. D(N   6,C   5,C   4,H  17)     64.9176         0.009490   
     93. D(N   6,C   5,C   4,N   8)    -54.0957         0.009490   
     94. D(N   6,C   5,C   4,C   3)   -171.3302         0.009490   
     95. D(H  19,N   6,C   5,C   4)      9.2919         0.035752   
     96. D(H  19,N   6,C   5,O   7)   -171.8313         0.035752   
     97. D(H  18,N   6,C   5,O   7)     -5.5030         0.035752   
     98. D(H  18,N   6,C   5,C   4)    175.6202         0.035752   
     99. D(N   9,N   8,C   4,C   3)   -155.3766         0.017080   
    100. D(N   9,N   8,C   4,C   5)     82.8904         0.017080   
    101. D(N   9,N   8,C   4,H  17)    -34.5866         0.017080   
    102. D(C  13,N   8,C   4,H  17)    125.5643         0.017080   
    103. D(C  13,N   8,C   4,C   5)   -116.9587         0.017080   
    104. D(C  13,N   8,C   4,C   3)      4.7744         0.017080   
    105. D(C  10,N   9,N   8,C  13)      1.2417         0.036925   
    106. D(C  10,N   9,N   8,C   4)    158.3510         0.036925   
    107. D(H  20,C  10,N   9,N   8)    175.7116         0.051687   
    108. D(C  11,C  10,N   9,N   8)     -9.7034         0.051687   
    109. D(H  21,C  11,C  10,H  20)      5.3234         0.018158   
    110. D(H  21,C  11,C  10,N   9)   -168.9957         0.018158   
    111. D(C  12,C  11,C  10,H  20)   -179.7613         0.018158   
    112. D(C  12,C  11,C  10,N   9)      5.9196         0.018158   
    113. D(H  22,C  12,C  11,H  21)      1.3573         0.041595   
    114. D(H  22,C  12,C  11,C  10)   -173.3975         0.041595   
    115. D(C  13,C  12,C  11,H  21)   -179.0560         0.041595   
    116. D(C  13,C  12,C  11,C  10)      6.1891         0.041595   
    117. D(C   2,C  13,C  12,C  11)   -128.4578         0.012980   
    118. D(H  23,C  13,N   8,N   9)   -112.6742         0.015794   
    119. D(H  23,C  13,N   8,C   4)     88.8096         0.015794   
    120. D(C  12,C  13,N   8,C   4)   -148.9618         0.015794   
    121. D(C   2,C  13,N   8,N   9)    132.7377         0.015794   
    122. D(C   2,C  13,N   8,C   4)    -25.7785         0.015794   
    123. D(H  23,C  13,C   2,H  14)    163.3690         0.009675   
    124. D(H  23,C  13,C   2,C   3)    -79.4727         0.009675   
    125. D(H  23,C  13,C   2,C   1)     42.3899         0.009675   
    126. D(C  12,C  13,C   2,H  14)     38.6691         0.009675   
    127. D(C  12,C  13,C   2,C   3)    155.8273         0.009675   
    128. D(C  12,C  13,N   8,N   9)      9.5544         0.015794   
    129. D(C  12,C  13,C   2,C   1)    -82.3100         0.009675   
    130. D(N   8,C  13,C   2,H  14)    -81.5161         0.009675   
    131. D(N   8,C  13,C   2,C   3)     35.6422         0.009675   
    132. D(C   2,C  13,C  12,H  22)     51.1551         0.012980   
    133. D(N   8,C  13,C   2,C   1)    157.5049         0.009675   
    134. D(H  23,C  13,C  12,H  22)    -72.0830         0.012980   
    135. D(H  23,C  13,C  12,C  11)    108.3041         0.012980   
    136. D(N   8,C  13,C  12,H  22)    166.8914         0.012980   
    137. D(N   8,C  13,C  12,C  11)    -12.7215         0.012980   
    -----------------------------------------------------------------

Number of atoms                         .... 24
Number of degrees of freedom            .... 137

         *************************************************************
         *                GEOMETRY OPTIMIZATION CYCLE   1            *
         *************************************************************
---------------------------------
CARTESIAN COORDINATES (ANGSTROEM)
---------------------------------
  N     -2.131600   -3.531500   -0.432500
  C     -1.575700   -2.552600   -0.632000
  C     -0.894600   -1.306800   -0.851600
  C      0.620700   -1.468200   -1.052900
  C      1.214900   -0.122000   -0.626000
  C      2.510500   -0.277900    0.199300
  N      2.911900    0.894900    0.720500
  O      3.092300   -1.327600    0.333200
  N      0.186100    0.513600    0.175600
  N      0.176900    1.828200    0.278000
  C     -0.909100    2.435400    0.607200
  C     -2.178200    1.753800    0.672700
  C     -2.224200    0.429800    0.501700
  C     -0.961200   -0.368100    0.380900
  H     -1.347100   -0.804800   -1.715900
  H      1.014300   -2.251800   -0.401200
  H      0.875500   -1.718900   -2.080300
  H      1.456300    0.515800   -1.487000
  H      3.709000    0.913400    1.334900
  H      2.305200    1.700300    0.666000
  H     -0.838200    3.501400    0.744600
  H     -3.075500    2.342500    0.776600
  H     -3.149500   -0.122800    0.436200
  H     -0.788700   -0.976300    1.288400

----------------------------
CARTESIAN COORDINATES (A.U.)
----------------------------
  NO LB      ZA    FRAG     MASS         X           Y           Z
   0 N     7.0000    0    14.007   -4.028140   -6.673568   -0.817307
   1 C     6.0000    0    12.011   -2.977641   -4.823715   -1.194307
   2 C     6.0000    0    12.011   -1.690549   -2.469494   -1.609291
   3 C     6.0000    0    12.011    1.172953   -2.774496   -1.989693
   4 C     6.0000    0    12.011    2.295828   -0.230547   -1.182969
   5 C     6.0000    0    12.011    4.744157   -0.525155    0.376622
   6 N     7.0000    0    14.007    5.502694    1.691116    1.361548
   7 O     8.0000    0    15.999    5.843600   -2.508800    0.629657
   8 N     7.0000    0    14.007    0.351678    0.970563    0.331836
   9 N     7.0000    0    14.007    0.334293    3.454797    0.525344
  10 C     6.0000    0    12.011   -1.717950    4.602239    1.147442
  11 C     6.0000    0    12.011   -4.116201    3.314202    1.271219
  12 C     6.0000    0    12.011   -4.203129    0.812204    0.948076
  13 C     6.0000    0    12.011   -1.816405   -0.695608    0.719797
  14 H     1.0000    0     1.008   -2.545650   -1.520852   -3.242581
  15 H     1.0000    0     1.008    1.916749   -4.255285   -0.758158
  16 H     1.0000    0     1.008    1.654455   -3.248250   -3.931197
  17 H     1.0000    0     1.008    2.752008    0.974721   -2.810023
  18 H     1.0000    0     1.008    7.008994    1.726076    2.522595
  19 H     1.0000    0     1.008    4.356197    3.213101    1.258558
  20 H     1.0000    0     1.008   -1.583968    6.616687    1.407090
  21 H     1.0000    0     1.008   -5.811853    4.426683    1.467561
  22 H     1.0000    0     1.008   -5.951692   -0.232058    0.824299
  23 H     1.0000    0     1.008   -1.490427   -1.844940    2.434723

--------------------------------
INTERNAL COORDINATES (ANGSTROEM)
--------------------------------
 N      0   0   0     0.000000000000     0.00000000     0.00000000
 C      1   0   0     1.143271739352     0.00000000     0.00000000
 C      2   1   0     1.436711178351   178.44617550     0.00000000
 C      3   2   1     1.537109540664   113.34770437   130.35166312
 C      4   3   2     1.532178739573   104.68862019   205.34320223
 C      5   4   3     1.544022104764   112.68290263   138.65315362
 N      6   5   4     1.344704889558   111.69027248   188.66981177
 O      6   5   4     1.207597010596   123.45646494     9.77469348
 N      5   4   3     1.450854699824   105.29875111    18.60145888
 N      9   5   4     1.318614257469   118.98667030   204.62343772
 C     10   9   5     1.287035539525   119.74205503   158.35098435
 C     11  10   9     1.442041476519   122.08848126   350.29655202
 C     12  11  10     1.335789279789   119.53687988     5.91961133
 C      9   5   4     1.461451425809   111.71478375     4.77436528
 H      3   2   1     1.097166687427   108.76172160   253.78075429
 H      4   3   2     1.092548767790   110.63049577   322.52831671
 H      4   3   2     1.087807101466   112.25913614    83.61075005
 H      5   4   3     1.098355042780   112.14948605   259.53384786
 H      7   6   5     1.006577379042   119.27450213   175.62017245
 H      7   6   5     1.009813992773   119.69291382     9.29188625
 H     11  10   9     1.077154385406   116.35830241   175.71156159
 H     12  11  10     1.078197658131   118.60159958   191.00430300
 H     13  12  11     1.079739366699   122.99391327   186.60245147
 H     14   9   5     1.105992649162   108.94065924    88.80958397

---------------------------
INTERNAL COORDINATES (A.U.)
---------------------------
 N      0   0   0     0.000000000000     0.00000000     0.00000000
 C      1   0   0     2.160470484026     0.00000000     0.00000000
 C      2   1   0     2.714990660628   178.44617550     0.00000000
 C      3   2   1     2.904716069692   113.34770437   130.35166312
 C      4   3   2     2.895398206010   104.68862019   205.34320223
 C      5   4   3     2.917778922725   112.68290263   138.65315362
 N      6   5   4     2.541123972209   111.69027248   188.66981177
 O      6   5   4     2.282027630168   123.45646494     9.77469348
 N      5   4   3     2.741718042779   105.29875111    18.60145888
 N      9   5   4     2.491819822900   118.98667030   204.62343772
 C     10   9   5     2.432144694326   119.74205503   158.35098435
 C     11  10   9     2.725063464376   122.08848126   350.29655202
 C     12  11  10     2.524275911430   119.53687988     5.91961133
 C      9   5   4     2.761742952808   111.71478375     4.77436528
 H      3   2   1     2.073344562499   108.76172160   253.78075429
 H      4   3   2     2.064617959077   110.63049577   322.52831671
 H      4   3   2     2.055657508306   112.25913614    83.61075005
 H      5   4   3     2.075590228665   112.14948605   259.53384786
 H      7   6   5     1.902155578991   119.27450213   175.62017245
 H      7   6   5     1.908271892542   119.69291382     9.29188625
 H     11  10   9     2.035526792370   116.35830241   175.71156159
 H     12  11  10     2.037498292104   118.60159958   191.00430300
 H     13  12  11     2.040411699075   122.99391327   186.60245147
 H     14   9   5     2.090023213046   108.94065924    88.80958397

---------------------
BASIS SET INFORMATION
---------------------
There are 4 groups of distinct atoms

 Group   1 Type N   : 19s6p3d2f contracted to 5s4p3d2f pattern {88111/3111/111/11}
 Group   2 Type C   : 19s6p3d2f contracted to 5s4p3d2f pattern {88111/3111/111/11}
 Group   3 Type O   : 19s6p3d2f contracted to 5s4p3d2f pattern {88111/3111/111/11}
 Group   4 Type H   : 5s2p1d contracted to 3s2p1d pattern {311/11/1}

Atom   0N    basis set group =>   1
Atom   1C    basis set group =>   2
Atom   2C    basis set group =>   2
Atom   3C    basis set group =>   2
Atom   4C    basis set group =>   2
Atom   5C    basis set group =>   2
Atom   6N    basis set group =>   1
Atom   7O    basis set group =>   3
Atom   8N    basis set group =>   1
Atom   9N    basis set group =>   1
Atom  10C    basis set group =>   2
Atom  11C    basis set group =>   2
Atom  12C    basis set group =>   2
Atom  13C    basis set group =>   2
Atom  14H    basis set group =>   4
Atom  15H    basis set group =>   4
Atom  16H    basis set group =>   4
Atom  17H    basis set group =>   4
Atom  18H    basis set group =>   4
Atom  19H    basis set group =>   4
Atom  20H    basis set group =>   4
Atom  21H    basis set group =>   4
Atom  22H    basis set group =>   4
Atom  23H    basis set group =>   4
---------------------------------
AUXILIARY/J BASIS SET INFORMATION
---------------------------------
There are 4 groups of distinct atoms

 Group   1 Type N   : 10s7p5d2f1g contracted to 10s7p5d2f1g pattern {1111111111/1111111/11111/11/1}
 Group   2 Type C   : 10s7p5d2f1g contracted to 10s7p5d2f1g pattern {1111111111/1111111/11111/11/1}
 Group   3 Type O   : 10s7p5d2f1g contracted to 10s7p5d2f1g pattern {1111111111/1111111/11111/11/1}
 Group   4 Type H   : 4s3p2d1f contracted to 4s3p2d1f pattern {1111/111/11/1}

Atom   0N    basis set group =>   1
Atom   1C    basis set group =>   2
Atom   2C    basis set group =>   2
Atom   3C    basis set group =>   2
Atom   4C    basis set group =>   2
Atom   5C    basis set group =>   2
Atom   6N    basis set group =>   1
Atom   7O    basis set group =>   3
Atom   8N    basis set group =>   1
Atom   9N    basis set group =>   1
Atom  10C    basis set group =>   2
Atom  11C    basis set group =>   2
Atom  12C    basis set group =>   2
Atom  13C    basis set group =>   2
Atom  14H    basis set group =>   4
Atom  15H    basis set group =>   4
Atom  16H    basis set group =>   4
Atom  17H    basis set group =>   4
Atom  18H    basis set group =>   4
Atom  19H    basis set group =>   4
Atom  20H    basis set group =>   4
Atom  21H    basis set group =>   4
Atom  22H    basis set group =>   4
Atom  23H    basis set group =>   4
---------------------------------
AUXILIARY/C BASIS SET INFORMATION
---------------------------------
There are 4 groups of distinct atoms

 Group   1 Type N   : 9s7p6d4f2g contracted to 9s7p6d4f2g pattern {111111111/1111111/111111/1111/11}
 Group   2 Type C   : 9s7p6d4f2g contracted to 9s7p6d4f2g pattern {111111111/1111111/111111/1111/11}
 Group   3 Type O   : 9s7p6d4f2g contracted to 9s7p6d4f2g pattern {111111111/1111111/111111/1111/11}
 Group   4 Type H   : 4s3p2d1f contracted to 4s3p2d1f pattern {1111/111/11/1}

Atom   0N    basis set group =>   1
Atom   1C    basis set group =>   2
Atom   2C    basis set group =>   2
Atom   3C    basis set group =>   2
Atom   4C    basis set group =>   2
Atom   5C    basis set group =>   2
Atom   6N    basis set group =>   1
Atom   7O    basis set group =>   3
Atom   8N    basis set group =>   1
Atom   9N    basis set group =>   1
Atom  10C    basis set group =>   2
Atom  11C    basis set group =>   2
Atom  12C    basis set group =>   2
Atom  13C    basis set group =>   2
Atom  14H    basis set group =>   4
Atom  15H    basis set group =>   4
Atom  16H    basis set group =>   4
Atom  17H    basis set group =>   4
Atom  18H    basis set group =>   4
Atom  19H    basis set group =>   4
Atom  20H    basis set group =>   4
Atom  21H    basis set group =>   4
Atom  22H    basis set group =>   4
Atom  23H    basis set group =>   4


           ************************************************************
           *        Program running with 4 parallel MPI-processes     *
           *              working on a common directory               *
           ************************************************************
------------------------------------------------------------------------------
                           ORCA GTO INTEGRAL CALCULATION
                           -- RI-GTO INTEGRALS CHOSEN --
------------------------------------------------------------------------------
------------------------------------------------------------------------------
                   ___                                                        
                  /   \      - P O W E R E D   B Y -                         
                 /     \                                                     
                 |  |  |   _    _      __       _____    __    __             
                 |  |  |  | |  | |    /  \     |  _  \  |  |  /  |          
                  \  \/   | |  | |   /    \    | | | |  |  | /  /          
                 / \  \   | |__| |  /  /\  \   | |_| |  |  |/  /          
                |  |  |   |  __  | /  /__\  \  |    /   |      \           
                |  |  |   | |  | | |   __   |  |    \   |  |\   \          
                \     /   | |  | | |  |  |  |  | |\  \  |  | \   \       
                 \___/    |_|  |_| |__|  |__|  |_| \__\ |__|  \__/        
                                                                              
                      - O R C A' S   B I G   F R I E N D -                    
                                      &                                       
                       - I N T E G R A L  F E E D E R -                       
                                                                              
 v1 FN, 2020, v2 2021                                                         
------------------------------------------------------------------------------


Reading SHARK input file optpbed3-wb2plyp-train-11.SHARKINP.tmp ... ok
----------------------
SHARK INTEGRAL PACKAGE
----------------------

Number of atoms                             ...     24
Number of basis functions                   ...    868
Number of shells                            ...    340
Maximum angular momentum                    ...      3
Integral batch strategy                     ... SHARK/LIBINT Hybrid
RI-J (if used) integral strategy            ... SPLIT-RIJ (Revised 2003 algorithm where possible)
Printlevel                                  ...      1
Contraction scheme used                     ... PARTIAL GENERAL contraction
Coulomb Range Separation                    ... NOT USED
Exchange Range Separation                   ... NOT USED
Finite Nucleus Model                        ... NOT USED
Auxiliary Coulomb fitting basis             ... AVAILABLE
   # of basis functions in Aux-J            ...   1406
   # of shells in Aux-J                     ...    450
   Maximum angular momentum in Aux-J        ...      4
Auxiliary J/K fitting basis                 ... NOT available
Auxiliary Correlation fitting basis         ... AVAILABLE
   # of basis functions in Aux-C            ...   1784
   # of shells in Aux-C                     ...    492
   Maximum angular momentum in Aux-C        ...      4
Auxiliary 'external' fitting basis          ... NOT available
Integral threshold                          ...     2.500000e-11
Primitive cut-off                           ...     2.500000e-12
Primitive pair pre-selection threshold      ...     2.500000e-12

Calculating pre-screening integrals         ... done (  0.2 sec) Dimension = 340
Calculating pre-screening integrals (ORCA)  ... done (  0.4 sec) Dimension = 256
Organizing shell pair data                  ... done (  0.8 sec)
Shell pair information
Total number of shell pairs                 ...     57970
Shell pairs after pre-screening             ...     44162
Total number of primitive shell pairs       ...     75538
Primitive shell pairs kept                  ...     52854
          la=0 lb=0:  10218 shell pairs
          la=1 lb=0:  11182 shell pairs
          la=1 lb=1:   2670 shell pairs
          la=2 lb=0:   7447 shell pairs
          la=2 lb=1:   3565 shell pairs
          la=2 lb=2:   1234 shell pairs
          la=3 lb=0:   4159 shell pairs
          la=3 lb=1:   1964 shell pairs
          la=3 lb=2:   1339 shell pairs
          la=3 lb=3:    384 shell pairs

Calculating one electron integrals          ... done (  0.2 sec)
Calculating RI/J V-Matrix + Cholesky decomp.... done (  0.2 sec)
Calculating RI/C V-Matrix + Cholesky decomp.... done (  0.4 sec)
Calculating Nuclear repulsion               ... done (  0.0 sec) ENN=    877.506055215617 Eh

SHARK setup successfully completed in   3.1 seconds

Maximum memory used throughout the entire GTOINT-calculation: 65.6 MB


           ************************************************************
           *        Program running with 4 parallel MPI-processes     *
           *              working on a common directory               *
           ************************************************************
-------------------------------------------------------------------------------
                                 ORCA SCF
-------------------------------------------------------------------------------

------------
SCF SETTINGS
------------
Hamiltonian:
 Density Functional     Method          .... DFT(GTOs)
 Exchange Functional    Exchange        .... PBE
   PBE kappa parameter   XKappa         ....  0.804000
   PBE mue parameter    XMuePBE         ....  0.219520
 Correlation Functional Correlation     .... PBE
   PBE beta parameter  CBetaPBE         ....  0.066725
 LDA part of GGA corr.  LDAOpt          .... PW91-LDA
 Gradients option       PostSCFGGA      .... off
 Hybrid DFT is turned on
   Fraction HF Exchange ScalHFX         ....  0.250000
   Scaling of DF-GGA-X  ScalDFX         ....  0.750000
   Scaling of DF-GGA-C  ScalDFC         ....  1.000000
   Scaling of DF-LDA-C  ScalLDAC        ....  1.000000
   Perturbative correction              ....  0.000000
   Density functional embedding theory  .... OFF
   NL short-range parameter             ....  6.900000
 RI-approximation to the Coulomb term is turned on
   Number of AuxJ basis functions       .... 1406
   RIJ-COSX (HFX calculated with COS-X)).... on


General Settings:
 Integral files         IntName         .... optpbed3-wb2plyp-train-11
 Hartree-Fock type      HFTyp           .... RHF
 Total Charge           Charge          ....    0
 Multiplicity           Mult            ....    1
 Number of Electrons    NEL             ....  100
 Basis Dimension        Dim             ....  784
 Nuclear Repulsion      ENuc            ....    877.5060552156 Eh

Convergence Acceleration:
 DIIS                   CNVDIIS         .... on
   Start iteration      DIISMaxIt       ....    12
   Startup error        DIISStart       ....  0.200000
   # of expansion vecs  DIISMaxEq       ....     5
   Bias factor          DIISBfac        ....   1.050
   Max. coefficient     DIISMaxC        ....  10.000
 Trust-Rad. Augm. Hess. CNVTRAH         .... auto
   Auto Start mean grad. ratio tolernc. ....  1.125000
   Auto Start start iteration           ....    20
   Auto Start num. interpolation iter.  ....    10
   Max. Number of Micro iterations      ....    16
   Max. Number of Macro iterations      .... Maxiter - #DIIS iter
   Number of Davidson start vectors     ....     2
   Converg. threshold I  (grad. norm)   ....   1.000e-05
   Converg. threshold II (energy diff.) ....   1.000e-08
   Grad. Scal. Fac. for Micro threshold ....   0.100
   Minimum threshold for Micro iter.    ....   0.010
   NR start threshold (gradient norm)   ....   0.001
   Initial trust radius                 ....   0.400
   Minimum AH scaling param. (alpha)    ....   1.000
   Maximum AH scaling param. (alpha)    .... 1000.000
   Orbital update algorithm             .... Taylor
   White noise on init. David. guess    .... on
   Maximum white noise                  ....   0.010
   Quad. conv. algorithm                .... NR
 SOSCF                  CNVSOSCF        .... on
   Start iteration      SOSCFMaxIt      ....   150
   Startup grad/error   SOSCFStart      ....  0.003300
 Level Shifting         CNVShift        .... on
   Level shift para.    LevelShift      ....    0.2500
   Turn off err/grad.   ShiftErr        ....    0.0010
 Zerner damping         CNVZerner       .... off
 Static damping         CNVDamp         .... on
   Fraction old density DampFac         ....    0.7000
   Max. Damping (<1)    DampMax         ....    0.9800
   Min. Damping (>=0)   DampMin         ....    0.0000
   Turn off err/grad.   DampErr         ....    0.1000
 Fernandez-Rico         CNVRico         .... off

SCF Procedure:
 Maximum # iterations   MaxIter         ....   125
 SCF integral mode      SCFMode         .... Direct
   Integral package                     .... SHARK and LIBINT hybrid scheme
 Reset frequency        DirectResetFreq ....    20
 Integral Threshold     Thresh          ....  2.500e-11 Eh
 Primitive CutOff       TCut            ....  2.500e-12 Eh

Convergence Tolerance:
 Convergence Check Mode ConvCheckMode   .... Total+1el-Energy
 Convergence forced     ConvForced      .... 0
 Energy Change          TolE            ....  1.000e-08 Eh
 1-El. energy change                    ....  1.000e-05 Eh
 Orbital Gradient       TolG            ....  1.000e-05
 Orbital Rotation angle TolX            ....  1.000e-05
 DIIS Error             TolErr          ....  5.000e-07


Diagonalization of the overlap matrix:
Smallest eigenvalue                        ... 2.237e-06
Time for diagonalization                   ...    0.213 sec
Threshold for overlap eigenvalues          ... 1.000e-08
Number of eigenvalues below threshold      ... 0
Time for construction of square roots      ...    0.117 sec
Total time needed                          ...    0.334 sec

Time for model grid setup =    0.671 sec

------------------------------
INITIAL GUESS: MODEL POTENTIAL
------------------------------
Loading Hartree-Fock densities                     ... done
Calculating cut-offs                               ... done
Initializing the effective Hamiltonian             ... done
Setting up the integral package (SHARK)            ... done
Starting the Coulomb interaction                   ... done (   1.4 sec)
Reading the grid                                   ... done
Mapping shells                                     ... done
Starting the XC term evaluation                    ... done (   2.1 sec)
  promolecular density results
     # of electrons  =     99.994489530
     EX              =    -83.313055704
     EC              =     -3.371210617
     EX+EC           =    -86.684266321
Transforming the Hamiltonian                       ... done (   0.1 sec)
Diagonalizing the Hamiltonian                      ... done (   0.2 sec)
Back transforming the eigenvectors                 ... done (   0.0 sec)
Now organizing SCF variables                       ... done
                      ------------------
                      INITIAL GUESS DONE (   4.6 sec)
                      ------------------
-------------------
DFT GRID GENERATION
-------------------

General Integration Accuracy     IntAcc      ... 4.388
Radial Grid Type                 RadialGrid  ... OptM3 with GC (2021)
Angular Grid (max. ang.)         AngularGrid ... 4 (Lebedev-302)
Angular grid pruning method      GridPruning ... 4 (adaptive)
Weight generation scheme         WeightScheme... Becke
Basis function cutoff            BFCut       ... 1.0000e-11
Integration weight cutoff        WCut        ... 1.0000e-14
Angular grids for H and He will be reduced by one unit
Partially contracted basis set               ... off
Rotationally invariant grid construction     ... off

Total number of grid points                  ...   119168
Total number of batches                      ...     1874
Average number of points per batch           ...       63
Average number of grid points per atom       ...     4965
Time for grid setup =    2.459 sec

--------------------
COSX GRID GENERATION
--------------------

GRIDX 1
-------
General Integration Accuracy     IntAcc      ... 3.816
Radial Grid Type                 RadialGrid  ... OptM3 with GC (2021)
Angular Grid (max. ang.)         AngularGrid ... 1 (Lebedev-50)
Angular grid pruning method      GridPruning ... 4 (adaptive)
Weight generation scheme         WeightScheme... Becke
Basis function cutoff            BFCut       ... 1.0000e-11
Integration weight cutoff        WCut        ... 1.0000e-14
Angular grids for H and He will be reduced by one unit
Partially contracted basis set               ... on
Rotationally invariant grid construction     ... off

Total number of grid points                  ...    15163
Total number of batches                      ...      248
Average number of points per batch           ...       61
Average number of grid points per atom       ...      632
UseSFitting                                  ... on

GRIDX 2
-------
General Integration Accuracy     IntAcc      ... 4.020
Radial Grid Type                 RadialGrid  ... OptM3 with GC (2021)
Angular Grid (max. ang.)         AngularGrid ... 2 (Lebedev-110)
Angular grid pruning method      GridPruning ... 4 (adaptive)
Weight generation scheme         WeightScheme... Becke
Basis function cutoff            BFCut       ... 1.0000e-11
Integration weight cutoff        WCut        ... 1.0000e-14
Angular grids for H and He will be reduced by one unit
Partially contracted basis set               ... on
Rotationally invariant grid construction     ... off

Total number of grid points                  ...    36140
Total number of batches                      ...      578
Average number of points per batch           ...       62
Average number of grid points per atom       ...     1506
UseSFitting                                  ... on

GRIDX 3
-------
General Integration Accuracy     IntAcc      ... 4.338
Radial Grid Type                 RadialGrid  ... OptM3 with GC (2021)
Angular Grid (max. ang.)         AngularGrid ... 3 (Lebedev-194)
Angular grid pruning method      GridPruning ... 4 (adaptive)
Weight generation scheme         WeightScheme... Becke
Basis function cutoff            BFCut       ... 1.0000e-11
Integration weight cutoff        WCut        ... 1.0000e-14
Angular grids for H and He will be reduced by one unit
Partially contracted basis set               ... on
Rotationally invariant grid construction     ... off

Total number of grid points                  ...    77948
Total number of batches                      ...     1231
Average number of points per batch           ...       63
Average number of grid points per atom       ...     3248
UseSFitting                                  ... on

Time for X-Grid setup             =    5.570 sec


--------------------
CPCM SOLVATION MODEL
--------------------
CPCM parameters:
  Epsilon                                         ...      24.8520
  Refrac                                          ...       1.3611
  Rsolv                                           ...       1.3000
  Surface type                                    ... GAUSSIAN VDW
  Epsilon function type                           ...         CPCM
Solvent:                                     ... ETHANOL
SMD-CDS solvent descriptors:
  Soln                                       ...    1.3611
  Soln25                                     ...    1.3593
  Sola                                       ...    0.3700
  Solb                                       ...    0.4800
  Solg                                       ...   31.6200
  Solc                                       ...    0.0000
  Solh                                       ...    0.0000
Radii:
 Radius for N  used is    3.5716 Bohr (=   1.8900 Ang.)
 Radius for C  used is    3.4960 Bohr (=   1.8500 Ang.)
 Radius for O  used is    3.0765 Bohr (=   1.6280 Ang.)
 Radius for H  used is    2.2677 Bohr (=   1.2000 Ang.)
Calculating surface                               ...        done! (  0.0s)
GEPOL surface points                              ...         1386
GEPOL Volume                                      ...    1319.5210
GEPOL Surface-area                                ...     760.5854
Calculating surface distance matrix               ...        done! (  0.0s)
Performing Cholesky decomposition & store         ...        done! (  0.2s)
Overall time for CPCM initialization              ...                 0.2s
 re-compute Schwartz prescreening matrix in partically contracted basis (1) ...done (   0.191 sec)
--------------
SCF ITERATIONS
--------------
ITER       Energy         Delta-E        Max-DP      RMS-DP      [F,P]     Damp
               ***  Starting incremental Fock matrix formation  ***
  0   -642.3407470936   0.000000000000 0.10188634  0.00078180  0.2994002 0.7000
  1   -642.4921963616  -0.151449267964 0.08187969  0.00061056  0.1273676 0.7000
                               ***Turning on DIIS***
  2   -642.5535074938  -0.061311132238 0.18692652  0.00128509  0.0463560 0.0000
  3   -642.6527306903  -0.099223196432 0.03725579  0.00031557  0.0620622 0.0000
  4   -642.6714617797  -0.018731089445 0.01079637  0.00011279  0.0180533 0.0000
  5   -642.6728166086  -0.001354828945 0.00299376  0.00004005  0.0045020 0.0000
                      *** Initiating the SOSCF procedure ***
                           *** Shutting down DIIS ***
                      *** Re-Reading the Fockian *** 
                      *** Removing any level shift *** 
ITER      Energy       Delta-E        Grad      Rot      Max-DP    RMS-DP
  6   -642.67289081  -0.0000741965  0.000445  0.000445  0.002874  0.000016
               *** Restarting incremental Fock matrix formation ***
  7   -642.67288737   0.0000034377  0.000293  0.001791  0.007061  0.000050
  8   -642.67288956  -0.0000021904  0.000150  0.000796  0.001678  0.000019
  9   -642.67289067  -0.0000011154  0.000050  0.000162  0.001526  0.000016
 10   -642.67289084  -0.0000001684  0.000039  0.000142  0.001293  0.000008
 11   -642.67289092  -0.0000000747  0.000016  0.000103  0.002030  0.000010
 12   -642.67289095  -0.0000000354  0.000008  0.000029  0.001157  0.000006
 13   -642.67289097  -0.0000000190  0.000007  0.000035  0.002618  0.000011
                  ***Gradient check signals convergence***
              ***Rediagonalizing the Fockian in SOSCF/NRSCF***

               *****************************************************
               *                     SUCCESS                       *
               *           SCF CONVERGED AFTER  14 CYCLES          *
               *****************************************************

Old exchange energy                            =    -21.227349872 Eh
New exchange energy                            =    -21.227315481 Eh
Exchange energy change after final integration =      0.000034390 Eh
Total energy after final integration           =   -642.672856560 Eh
Final COS-X integration done in                =    81.970 sec

SMD CDS free energy correction energy :                 2.44712     Kcal/mol
Total Energy after SMD CDS correction =              -642.668956835 Eh

----------------
TOTAL SCF ENERGY
----------------

Total Energy       :         -642.66895683 Eh          -17487.91138 eV

Components:
Nuclear Repulsion  :          877.50605522 Eh           23878.15370 eV
Electronic Energy  :        -1520.17501205 Eh          -41366.06509 eV
One Electron Energy:        -2612.54077714 Eh          -71090.84874 eV
Two Electron Energy:         1092.36576509 Eh           29724.78365 eV
Max COSX asymmetry :            0.00002626 Eh               0.00071 eV
CPCM Dielectric    :           -0.03466076 Eh              -0.94317 eV
SMD CDS (Gcds)     :            0.00389973 Eh               0.10612 eV

Virial components:
Potential Energy   :        -1281.75533101 Eh          -34878.33574 eV
Kinetic Energy     :          639.08637417 Eh           17390.42435 eV
Virial Ratio       :            2.00560579


DFT components:
N(Alpha)           :       49.999969212351 electrons
N(Beta)            :       49.999969212351 electrons
N(Total)           :       99.999938424703 electrons
E(X)               :      -63.561722403998 Eh       
E(C)               :       -3.373819867998 Eh       
E(XC)              :      -66.935542271996 Eh       
DFET-embed. en.    :        0.000000000000 Eh       
CPCM Solvation Model Properties:
Surface-charge          :           -0.04463611
Charge-correction       :            0.00019164 Eh               0.00521 eV
Free-energy (cav+disp)  :            0.00389973 Eh               0.10612 eV

---------------
SCF CONVERGENCE
---------------

  Last Energy change         ...    1.9926e-08  Tolerance :   1.0000e-08
  Last MAX-Density change    ...    2.4425e-15  Tolerance :   1.0000e-07
  Last RMS-Density change    ...    1.3755e-17  Tolerance :   5.0000e-09
  Last Orbital Gradient      ...    1.9983e-06  Tolerance :   1.0000e-05
  Last Orbital Rotation      ...    1.8191e-06  Tolerance :   1.0000e-05

             **** THE GBW FILE WAS UPDATED (optpbed3-wb2plyp-train-11.gbw) ****
             **** DENSITY optpbed3-wb2plyp-train-11.scfp WAS UPDATED ****
             **** ENERGY FILE WAS UPDATED (optpbed3-wb2plyp-train-11.en.tmp) ****
             **** THE GBW FILE WAS UPDATED (optpbed3-wb2plyp-train-11.gbw) ****
             **** DENSITY optpbed3-wb2plyp-train-11.scfp WAS UPDATED ****
----------------
ORBITAL ENERGIES
----------------

  NO   OCC          E(Eh)            E(eV) 
   0   2.0000     -19.191412      -522.2249 
   1   2.0000     -14.443492      -393.0274 
   2   2.0000     -14.428663      -392.6239 
   3   2.0000     -14.400441      -391.8559 
   4   2.0000     -14.388621      -391.5343 
   5   2.0000     -10.333234      -281.1816 
   6   2.0000     -10.286510      -279.9102 
   7   2.0000     -10.276450      -279.6364 
   8   2.0000     -10.275257      -279.6040 
   9   2.0000     -10.273316      -279.5511 
  10   2.0000     -10.249161      -278.8938 
  11   2.0000     -10.240642      -278.6620 
  12   2.0000     -10.239615      -278.6341 
  13   2.0000     -10.233694      -278.4730 
  14   2.0000      -1.090695       -29.6793 
  15   2.0000      -1.072161       -29.1750 
  16   2.0000      -0.952383       -25.9157 
  17   2.0000      -0.939101       -25.5542 
  18   2.0000      -0.915648       -24.9160 
  19   2.0000      -0.853171       -23.2160 
  20   2.0000      -0.806935       -21.9578 
  21   2.0000      -0.778970       -21.1969 
  22   2.0000      -0.690174       -18.7806 
  23   2.0000      -0.669817       -18.2266 
  24   2.0000      -0.660035       -17.9605 
  25   2.0000      -0.603144       -16.4124 
  26   2.0000      -0.574421       -15.6308 
  27   2.0000      -0.550189       -14.9714 
  28   2.0000      -0.538756       -14.6603 
  29   2.0000      -0.530178       -14.4269 
  30   2.0000      -0.510308       -13.8862 
  31   2.0000      -0.501527       -13.6472 
  32   2.0000      -0.480594       -13.0776 
  33   2.0000      -0.463723       -12.6186 
  34   2.0000      -0.456222       -12.4144 
  35   2.0000      -0.437708       -11.9106 
  36   2.0000      -0.426068       -11.5939 
  37   2.0000      -0.414579       -11.2813 
  38   2.0000      -0.412312       -11.2196 
  39   2.0000      -0.399620       -10.8742 
  40   2.0000      -0.390922       -10.6375 
  41   2.0000      -0.383009       -10.4222 
  42   2.0000      -0.369751       -10.0614 
  43   2.0000      -0.350785        -9.5453 
  44   2.0000      -0.347173        -9.4471 
  45   2.0000      -0.324041        -8.8176 
  46   2.0000      -0.298607        -8.1255 
  47   2.0000      -0.295350        -8.0369 
  48   2.0000      -0.284764        -7.7488 
  49   2.0000      -0.210046        -5.7156 
  50   0.0000      -0.046675        -1.2701 
  51   0.0000       0.000480         0.0131 
  52   0.0000       0.013128         0.3572 
  53   0.0000       0.015210         0.4139 
  54   0.0000       0.016556         0.4505 
  55   0.0000       0.023191         0.6311 
  56   0.0000       0.025777         0.7014 
  57   0.0000       0.030274         0.8238 
  58   0.0000       0.037885         1.0309 
  59   0.0000       0.039525         1.0755 
  60   0.0000       0.044033         1.1982 
  61   0.0000       0.049654         1.3511 
  62   0.0000       0.051277         1.3953 
  63   0.0000       0.064066         1.7433 
  64   0.0000       0.066258         1.8030 
  65   0.0000       0.067534         1.8377 
  66   0.0000       0.073359         1.9962 
  67   0.0000       0.078230         2.1288 
  68   0.0000       0.080147         2.1809 
  69   0.0000       0.084493         2.2992 
  70   0.0000       0.085310         2.3214 
  71   0.0000       0.096548         2.6272 
  72   0.0000       0.102321         2.7843 
  73   0.0000       0.105290         2.8651 
  74   0.0000       0.112547         3.0626 
  75   0.0000       0.116762         3.1773 
  76   0.0000       0.118460         3.2235 
  77   0.0000       0.125333         3.4105 
  78   0.0000       0.126448         3.4408 
  79   0.0000       0.128213         3.4889 
  80   0.0000       0.131813         3.5868 
  81   0.0000       0.133791         3.6406 
  82   0.0000       0.136594         3.7169 
  83   0.0000       0.141882         3.8608 
  84   0.0000       0.142647         3.8816 
  85   0.0000       0.146249         3.9796 
  86   0.0000       0.149721         4.0741 
  87   0.0000       0.151352         4.1185 
  88   0.0000       0.155927         4.2430 
  89   0.0000       0.159147         4.3306 
  90   0.0000       0.162101         4.4110 
  91   0.0000       0.166764         4.5379 
  92   0.0000       0.170252         4.6328 
  93   0.0000       0.174404         4.7458 
  94   0.0000       0.175668         4.7802 
  95   0.0000       0.178896         4.8680 
  96   0.0000       0.184001         5.0069 
  97   0.0000       0.186049         5.0626 
  98   0.0000       0.193924         5.2769 
  99   0.0000       0.196704         5.3526 
 100   0.0000       0.198695         5.4068 
 101   0.0000       0.201663         5.4875 
 102   0.0000       0.204158         5.5554 
 103   0.0000       0.211474         5.7545 
 104   0.0000       0.214520         5.8374 
 105   0.0000       0.217286         5.9127 
 106   0.0000       0.220598         6.0028 
 107   0.0000       0.226281         6.1574 
 108   0.0000       0.229731         6.2513 
 109   0.0000       0.232705         6.3322 
 110   0.0000       0.236982         6.4486 
 111   0.0000       0.241023         6.5586 
 112   0.0000       0.245797         6.6885 
 113   0.0000       0.249004         6.7757 
 114   0.0000       0.256797         6.9878 
 115   0.0000       0.259180         7.0527 
 116   0.0000       0.262025         7.1301 
 117   0.0000       0.268101         7.2954 
 118   0.0000       0.274046         7.4572 
 119   0.0000       0.274871         7.4796 
 120   0.0000       0.281038         7.6474 
 121   0.0000       0.287849         7.8328 
 122   0.0000       0.291205         7.9241 
 123   0.0000       0.296369         8.0646 
 124   0.0000       0.298772         8.1300 
 125   0.0000       0.305381         8.3098 
 126   0.0000       0.312919         8.5150 
 127   0.0000       0.315360         8.5814 
 128   0.0000       0.319353         8.6900 
 129   0.0000       0.323189         8.7944 
 130   0.0000       0.326904         8.8955 
 131   0.0000       0.330631         8.9969 
 132   0.0000       0.334157         9.0929 
 133   0.0000       0.340435         9.2637 
 134   0.0000       0.346370         9.4252 
 135   0.0000       0.354946         9.6586 
 136   0.0000       0.355816         9.6823 
 137   0.0000       0.361723         9.8430 
 138   0.0000       0.365239         9.9387 
 139   0.0000       0.367205         9.9922 
 140   0.0000       0.373282        10.1575 
 141   0.0000       0.378400        10.2968 
 142   0.0000       0.386279        10.5112 
 143   0.0000       0.388313        10.5665 
 144   0.0000       0.394018        10.7218 
 145   0.0000       0.395919        10.7735 
 146   0.0000       0.398045        10.8313 
 147   0.0000       0.406719        11.0674 
 148   0.0000       0.413384        11.2488 
 149   0.0000       0.417799        11.3689 
 150   0.0000       0.422124        11.4866 
 151   0.0000       0.426811        11.6141 
 152   0.0000       0.429417        11.6850 
 153   0.0000       0.432341        11.7646 
 154   0.0000       0.438634        11.9358 
 155   0.0000       0.449650        12.2356 
 156   0.0000       0.450739        12.2652 
 157   0.0000       0.454064        12.3557 
 158   0.0000       0.456192        12.4136 
 159   0.0000       0.460637        12.5346 
 160   0.0000       0.463417        12.6102 
 161   0.0000       0.469359        12.7719 
 162   0.0000       0.470605        12.8058 
 163   0.0000       0.476512        12.9666 
 164   0.0000       0.477310        12.9883 
 165   0.0000       0.482624        13.1329 
 166   0.0000       0.489154        13.3106 
 167   0.0000       0.495413        13.4809 
 168   0.0000       0.498152        13.5554 
 169   0.0000       0.504585        13.7305 
 170   0.0000       0.508608        13.8399 
 171   0.0000       0.512721        13.9518 
 172   0.0000       0.518204        14.1010 
 173   0.0000       0.522362        14.2142 
 174   0.0000       0.529859        14.4182 
 175   0.0000       0.538059        14.6413 
 176   0.0000       0.545251        14.8370 
 177   0.0000       0.551341        15.0027 
 178   0.0000       0.558136        15.1877 
 179   0.0000       0.561490        15.2789 
 180   0.0000       0.566514        15.4156 
 181   0.0000       0.572450        15.5772 
 182   0.0000       0.573955        15.6181 
 183   0.0000       0.579105        15.7582 
 184   0.0000       0.582869        15.8607 
 185   0.0000       0.588486        16.0135 
 186   0.0000       0.594606        16.1801 
 187   0.0000       0.601232        16.3604 
 188   0.0000       0.603196        16.4138 
 189   0.0000       0.610092        16.6014 
 190   0.0000       0.620599        16.8874 
 191   0.0000       0.625202        17.0126 
 192   0.0000       0.629552        17.1310 
 193   0.0000       0.635563        17.2945 
 194   0.0000       0.642028        17.4705 
 195   0.0000       0.649000        17.6602 
 196   0.0000       0.655626        17.8405 
 197   0.0000       0.659328        17.9412 
 198   0.0000       0.661178        17.9916 
 199   0.0000       0.665703        18.1147 
 200   0.0000       0.673188        18.3184 
 201   0.0000       0.676597        18.4112 
 202   0.0000       0.680365        18.5137 
 203   0.0000       0.688512        18.7354 
 204   0.0000       0.689117        18.7518 
 205   0.0000       0.692029        18.8311 
 206   0.0000       0.705122        19.1873 
 207   0.0000       0.708581        19.2815 
 208   0.0000       0.713069        19.4036 
 209   0.0000       0.721942        19.6450 
 210   0.0000       0.726293        19.7634 
 211   0.0000       0.733151        19.9500 
 212   0.0000       0.736181        20.0325 
 213   0.0000       0.744860        20.2687 
 214   0.0000       0.751929        20.4610 
 215   0.0000       0.753847        20.5132 
 216   0.0000       0.756248        20.5785 
 217   0.0000       0.759859        20.6768 
 218   0.0000       0.769940        20.9511 
 219   0.0000       0.772503        21.0209 
 220   0.0000       0.782135        21.2830 
 221   0.0000       0.785234        21.3673 
 222   0.0000       0.792227        21.5576 
 223   0.0000       0.796127        21.6637 
 224   0.0000       0.799005        21.7420 
 225   0.0000       0.803175        21.8555 
 226   0.0000       0.810544        22.0560 
 227   0.0000       0.823456        22.4074 
 228   0.0000       0.826367        22.4866 
 229   0.0000       0.835515        22.7355 
 230   0.0000       0.839341        22.8396 
 231   0.0000       0.845754        23.0141 
 232   0.0000       0.847722        23.0677 
 233   0.0000       0.854694        23.2574 
 234   0.0000       0.867925        23.6175 
 235   0.0000       0.876735        23.8572 
 236   0.0000       0.883316        24.0362 
 237   0.0000       0.887632        24.1537 
 238   0.0000       0.889296        24.1990 
 239   0.0000       0.899790        24.4845 
 240   0.0000       0.911621        24.8065 
 241   0.0000       0.913576        24.8597 
 242   0.0000       0.915443        24.9105 
 243   0.0000       0.922394        25.0996 
 244   0.0000       0.928881        25.2761 
 245   0.0000       0.938354        25.5339 
 246   0.0000       0.954101        25.9624 
 247   0.0000       0.955508        26.0007 
 248   0.0000       0.960467        26.1356 
 249   0.0000       0.973457        26.4891 
 250   0.0000       0.979656        26.6578 
 251   0.0000       0.982846        26.7446 
 252   0.0000       0.987116        26.8608 
 253   0.0000       0.992102        26.9965 
 254   0.0000       0.998556        27.1721 
 255   0.0000       1.002749        27.2862 
 256   0.0000       1.013715        27.5846 
 257   0.0000       1.018797        27.7229 
 258   0.0000       1.025434        27.9035 
 259   0.0000       1.028036        27.9743 
 260   0.0000       1.034570        28.1521 
 261   0.0000       1.043945        28.4072 
 262   0.0000       1.049598        28.5610 
[...]
   Time for Sigma-Completion:     0.157
   Size of expansion space: 70
   Lowest Energy          :     0.170130737853
   Maximum Energy change  :     0.011070202463 (vector 6)
   Maximum residual norm  :     0.007888666448
   Rebuilding the expansion space

                       ****Iteration    5****
   Time for densities:            0.455
   Time for RI-J (Direct):        9.522
   Time for K (COSX):            67.235
   Time for XC-Integration:      35.859
   Time for LR-CPCM terms:       10.920
   Time for Sigma-Completion:     0.382
   Size of expansion space: 20
   Lowest Energy          :     0.170124636171
   Maximum Energy change  :     0.008638387287 (vector 1)
   Maximum residual norm  :     0.002240672814

                       ****Iteration    6****
   Time for densities:            0.157
   Time for RI-J (Direct):        6.844
   Time for K (COSX):            37.702
   Time for XC-Integration:      17.639
   Time for LR-CPCM terms:        7.211
   Time for Sigma-Completion:     0.133
   Size of expansion space: 30
   Lowest Energy          :     0.170123820079
   Maximum Energy change  :     0.003966496903 (vector 1)
   Maximum residual norm  :     0.000462599509

                       ****Iteration    7****
   Time for densities:            0.226
   Time for RI-J (Direct):        6.986
   Time for K (COSX):            37.708
   Time for XC-Integration:      18.767
   Time for LR-CPCM terms:        7.041
   Time for Sigma-Completion:     0.152
   Size of expansion space: 40
   Lowest Energy          :     0.170123687257
   Maximum Energy change  :     0.000906212186 (vector 1)
   Maximum residual norm  :     0.000090827258

                       ****Iteration    8****
   Time for densities:            0.210
   Time for RI-J (Direct):        7.124
   Time for K (COSX):            37.715
   Time for XC-Integration:      19.194
   Time for LR-CPCM terms:        7.024
   Time for Sigma-Completion:     0.134
   Size of expansion space: 50
   Lowest Energy          :     0.170123674303
   Maximum Energy change  :     0.000285429712 (vector 8)
   Maximum residual norm  :     0.000034458250

                       ****Iteration    9****
   Time for densities:            0.206
   Time for RI-J (Direct):        6.963
   Time for K (COSX):            38.374
   Time for XC-Integration:      17.878
   Time for LR-CPCM terms:        7.184
   Time for Sigma-Completion:     0.134
   Size of expansion space: 60
   Lowest Energy          :     0.170123673011
   Maximum Energy change  :     0.000109822099 (vector 8)
   Maximum residual norm  :     0.000019131900

                       ****Iteration   10****
   Time for densities:            0.223
   Time for RI-J (Direct):        6.986
   Time for K (COSX):            36.317
   Time for XC-Integration:      17.729
   Time for LR-CPCM terms:        6.961
   Time for Sigma-Completion:     0.172
   Size of expansion space: 70
   Lowest Energy          :     0.170123672879
   Maximum Energy change  :     0.000054449108 (vector 9)
   Maximum residual norm  :     0.000011669446
   Rebuilding the expansion space

                       ****Iteration   11****
   Time for densities:            0.419
   Time for RI-J (Direct):        9.329
   Time for K (COSX):            64.907
   Time for XC-Integration:      35.580
   Time for LR-CPCM terms:       11.162
   Time for Sigma-Completion:     0.255
   Size of expansion space: 20
   Lowest Energy          :     0.170123665287
   Maximum Energy change  :     0.000023047064 (vector 9)
   Maximum residual norm  :     0.000007421057

                       ****Iteration   12****
   Time for densities:            0.209
   Time for RI-J (Direct):        7.050
   Time for K (COSX):            37.874
   Time for XC-Integration:      17.824
   Time for LR-CPCM terms:        7.137
   Time for Sigma-Completion:     0.138
   Size of expansion space: 30
   Lowest Energy          :     0.170123665285
   Maximum Energy change  :     0.000021042452 (vector 9)
   Maximum residual norm  :     0.000005118954

                       ****Iteration   13****
   Time for densities:            0.220
   Time for RI-J (Direct):        7.088
   Time for K (COSX):            37.006
   Time for XC-Integration:      18.198
   Time for LR-CPCM terms:        6.899
   Time for Sigma-Completion:     0.135
   Size of expansion space: 40
   Lowest Energy          :     0.170123665285
   Maximum Energy change  :     0.000014458043 (vector 9)
   Maximum residual norm  :     0.000003076901

                       ****Iteration   14****
   Time for densities:            0.212
   Time for RI-J (Direct):        6.979
   Time for K (COSX):            36.792
   Time for XC-Integration:      19.125
   Time for LR-CPCM terms:        6.962
   Time for Sigma-Completion:     0.123
   Size of expansion space: 50
   Lowest Energy          :     0.170123665285
   Maximum Energy change  :     0.000007325956 (vector 9)
   Maximum residual norm  :     0.000001644123

                       ****Iteration   15****
   Time for densities:            0.201
   Time for RI-J (Direct):        6.682
   Time for K (COSX):            34.499
   Time for XC-Integration:      16.571
   Time for LR-CPCM terms:        6.704
   Time for Sigma-Completion:     0.112
   Size of expansion space: 59
   Lowest Energy          :     0.170123665285
   Maximum Energy change  :     0.000003865782 (vector 9)
   Maximum residual norm  :     0.000000907746

      *** CONVERGENCE OF RESIDUAL NORM REACHED ***

Storing the converged CI vectors               ... optpbed3-wb2plyp-train-11_job2.cis1

                 *** DAVIDSON DONE ***

Total time for solving the CIS problem:  1335.791sec

------------------
DOUBLES CORRECTION (Double precision version)
------------------

The (D) correction will be scaled by  0.2700
Doing v(i,a)*T(i,a) terms (RI)                    ... ok
Doing u(i,j,a,b) terms for state   0              ... ok
Doing u(i,j,a,b) terms for state   1              ... ok
Doing u(i,j,a,b) terms for state   2              ... ok
Doing u(i,j,a,b) terms for state   3              ... ok
Doing u(i,j,a,b) terms for state   4              ... ok
Doing u(i,j,a,b) terms for state   5              ... ok
Doing u(i,j,a,b) terms for state   6              ... ok
Doing u(i,j,a,b) terms for state   7              ... ok
Doing u(i,j,a,b) terms for state   8              ... ok
Doing u(i,j,a,b) terms for state   9              ... ok

Contributions to the (D) correction(s) (in eV)

STATE  Final   Init.   Total   v(ext)   v(int)  v(3)    u
       omega   omega     (D)                             
-----------------------------------------------------------------------------
   0   4.346   4.629  -0.283   0.450   0.812  -0.063  -1.483
   1   5.430   5.701  -0.271   0.510   0.672  -0.030  -1.423
   2   5.804   6.072  -0.268   0.052   0.818  -0.002  -1.136
   3   6.011   6.464  -0.454   0.352   0.743  -0.017  -1.531
   4   6.319   6.648  -0.329   0.121   0.797  -0.007  -1.240
   5   6.562   6.827  -0.265   0.046   0.810  -0.003  -1.118
   6   6.625   7.000  -0.375   0.054   0.812  -0.002  -1.238
   7   6.758   7.226  -0.468   0.343   0.746  -0.035  -1.523
   8   6.999   7.336  -0.337   0.176   0.782  -0.027  -1.268
   9   7.038   7.430  -0.392   0.160   0.807  -0.006  -1.353

(D)-timings
 V(i,a)*T(i,a) terms           ...   147.818 sec
 U(i,j,a,b) 3-internal         ...     3.895 sec
 U(i,j,a,b) 3-external         ...   158.644 sec
 U(i,j,a,b) pair terms         ...    73.636 sec
 Total measured time           ...   774.970 sec

 Time for (ab|v) I/O           ...    42.634 sec


------------------------------------
TD-DFT/TDA EXCITED STATES (SINGLETS)
------------------------------------

the weight of the individual excitations are printed if larger than 1.0e-02

STATE  1:  E=   0.159709 au      4.346 eV    35052.0 cm**-1 <S**2> =   0.000000
    49a ->  50a  :     0.027625 (c= -0.16620737)
    49a ->  51a  :     0.811273 (c= -0.90070693)
    49a ->  52a  :     0.012899 (c= -0.11357427)
    49a ->  53a  :     0.052209 (c=  0.22849252)
    49a ->  54a  :     0.018076 (c=  0.13444841)
    49a ->  59a  :     0.011133 (c= -0.10551393)

STATE  2:  E=   0.199536 au      5.430 eV    43793.0 cm**-1 <S**2> =   0.000000
    45a ->  51a  :     0.053946 (c=  0.23226237)
    46a ->  50a  :     0.016677 (c= -0.12913788)
    46a ->  51a  :     0.643023 (c= -0.80188685)
    46a ->  52a  :     0.013408 (c= -0.11579316)
    46a ->  53a  :     0.043942 (c=  0.20962363)
    46a ->  54a  :     0.023277 (c=  0.15256879)
    46a ->  65a  :     0.010473 (c=  0.10233682)
    47a ->  51a  :     0.026382 (c=  0.16242440)
    48a ->  51a  :     0.015791 (c= -0.12566233)

STATE  3:  E=   0.213302 au      5.804 eV    46814.5 cm**-1 <S**2> =   0.000000
    49a ->  50a  :     0.646400 (c= -0.80399024)
    49a ->  52a  :     0.074315 (c=  0.27260856)
    49a ->  53a  :     0.033647 (c= -0.18343136)
    49a ->  54a  :     0.025025 (c=  0.15819183)
    49a ->  58a  :     0.026234 (c=  0.16196942)
    49a ->  61a  :     0.020581 (c= -0.14345911)
    49a ->  66a  :     0.012956 (c=  0.11382425)
    49a ->  67a  :     0.019720 (c= -0.14042864)
    49a ->  73a  :     0.024385 (c=  0.15615799)
    49a ->  79a  :     0.011668 (c= -0.10802069)

STATE  4:  E=   0.220882 au      6.011 eV    48478.0 cm**-1 <S**2> =   0.000000
    45a ->  67a  :     0.038559 (c= -0.19636469)
    45a ->  69a  :     0.017770 (c=  0.13330454)
    45a ->  70a  :     0.038397 (c= -0.19595275)
    48a ->  51a  :     0.013607 (c= -0.11664941)
    48a ->  62a  :     0.017733 (c= -0.13316520)
    48a ->  64a  :     0.017953 (c= -0.13398757)
    48a ->  65a  :     0.010878 (c= -0.10429787)
    48a ->  67a  :     0.103902 (c= -0.32233795)
    48a ->  69a  :     0.045811 (c=  0.21403452)
    48a ->  70a  :     0.096960 (c= -0.31138383)
    48a ->  74a  :     0.013418 (c= -0.11583511)
    48a ->  75a  :     0.013571 (c= -0.11649479)
    48a ->  79a  :     0.013006 (c=  0.11404589)
    49a ->  51a  :     0.011380 (c= -0.10667913)
    49a ->  53a  :     0.012045 (c= -0.10974960)
    49a ->  54a  :     0.164267 (c= -0.40529836)
    49a ->  61a  :     0.013667 (c=  0.11690736)
    49a ->  65a  :     0.011676 (c= -0.10805534)
    49a ->  67a  :     0.033765 (c= -0.18375339)
    49a ->  69a  :     0.011836 (c=  0.10879430)
    49a ->  70a  :     0.022840 (c= -0.15112897)

STATE  5:  E=   0.232209 au      6.319 eV    50964.1 cm**-1 <S**2> =   0.000000
    45a ->  67a  :     0.015153 (c= -0.12309714)
    45a ->  70a  :     0.012632 (c= -0.11239059)
    48a ->  67a  :     0.029516 (c= -0.17180296)
    48a ->  69a  :     0.011471 (c=  0.10710440)
    48a ->  70a  :     0.027948 (c= -0.16717790)
    49a ->  51a  :     0.013588 (c=  0.11656799)
    49a ->  52a  :     0.147269 (c= -0.38375696)
    49a ->  54a  :     0.448150 (c=  0.66943986)
    49a ->  57a  :     0.019011 (c= -0.13787912)
    49a ->  59a  :     0.042716 (c=  0.20667810)
    49a ->  76a  :     0.012789 (c= -0.11308779)
    49a ->  82a  :     0.013383 (c= -0.11568348)
    49a ->  83a  :     0.015626 (c=  0.12500290)

STATE  6:  E=   0.241150 au      6.562 eV    52926.3 cm**-1 <S**2> =   0.000000
    48a ->  50a  :     0.016724 (c= -0.12932314)
    49a ->  51a  :     0.054369 (c= -0.23317055)
    49a ->  52a  :     0.044911 (c= -0.21192225)
    49a ->  53a  :     0.543227 (c= -0.73703914)
    49a ->  54a  :     0.010047 (c= -0.10023333)
    49a ->  55a  :     0.079136 (c=  0.28131108)
    49a ->  56a  :     0.019581 (c= -0.13993103)
    49a ->  59a  :     0.078393 (c=  0.27998755)

STATE  7:  E=   0.243476 au      6.625 eV    53436.9 cm**-1 <S**2> =   0.000000
    49a ->  50a  :     0.050237 (c= -0.22413651)
    49a ->  51a  :     0.020347 (c=  0.14264346)
    49a ->  52a  :     0.432702 (c= -0.65780059)
    49a ->  53a  :     0.020522 (c=  0.14325410)
    49a ->  54a  :     0.083350 (c= -0.28870475)
    49a ->  56a  :     0.116702 (c= -0.34161669)
    49a ->  58a  :     0.017017 (c=  0.13044733)
    49a ->  59a  :     0.106672 (c= -0.32660699)
    49a ->  60a  :     0.012664 (c= -0.11253342)
    49a ->  67a  :     0.026604 (c= -0.16310849)

STATE  8:  E=   0.248364 au      6.758 eV    54509.5 cm**-1 <S**2> =   0.000000
    45a ->  51a  :     0.182419 (c=  0.42710552)
    46a ->  51a  :     0.036053 (c=  0.18987573)
    48a ->  51a  :     0.323301 (c= -0.56859592)
    48a ->  52a  :     0.010112 (c= -0.10055683)
    48a ->  53a  :     0.012515 (c=  0.11187174)
    49a ->  50a  :     0.016679 (c= -0.12914593)
    49a ->  57a  :     0.032108 (c= -0.17918614)
    49a ->  58a  :     0.086028 (c= -0.29330586)
    49a ->  61a  :     0.046344 (c=  0.21527634)
    49a ->  66a  :     0.022959 (c= -0.15152281)
    49a ->  68a  :     0.021285 (c= -0.14589392)
    49a ->  89a  :     0.011455 (c= -0.10702826)

STATE  9:  E=   0.257221 au      6.999 eV    56453.4 cm**-1 <S**2> =   0.000000
    45a ->  51a  :     0.061382 (c=  0.24775431)
    46a ->  51a  :     0.017447 (c=  0.13208677)
    48a ->  51a  :     0.129885 (c= -0.36039521)
    48a ->  53a  :     0.023534 (c=  0.15340755)
    48a ->  54a  :     0.016558 (c=  0.12867932)
    49a ->  50a  :     0.038773 (c=  0.19690925)
    49a ->  57a  :     0.086575 (c=  0.29423688)
    49a ->  58a  :     0.268034 (c=  0.51771990)
    49a ->  61a  :     0.087413 (c= -0.29565686)
    49a ->  65a  :     0.017159 (c= -0.13099190)
    49a ->  66a  :     0.048498 (c=  0.22022249)
    49a ->  68a  :     0.010400 (c=  0.10198238)

STATE 10:  E=   0.258648 au      7.038 eV    56766.6 cm**-1 <S**2> =   0.000000
    43a ->  68a  :     0.012706 (c= -0.11271890)
    49a ->  55a  :     0.316240 (c=  0.56235191)
    49a ->  57a  :     0.085635 (c=  0.29263493)
    49a ->  58a  :     0.088677 (c= -0.29778603)
    49a ->  59a  :     0.102238 (c= -0.31974602)
    49a ->  62a  :     0.013380 (c=  0.11567261)
    49a ->  64a  :     0.016158 (c=  0.12711367)
    49a ->  65a  :     0.087632 (c=  0.29602716)
    49a ->  68a  :     0.031185 (c=  0.17659191)
    49a ->  69a  :     0.013017 (c= -0.11409234)
    49a ->  70a  :     0.014858 (c=  0.12189266)
    49a ->  82a  :     0.013949 (c=  0.11810587)


-----------------------------
TD-DFT/TDA-EXCITATION SPECTRA
-----------------------------

Center of mass = (  0.1750, -0.2747, -0.1015)
Calculating the Dipole integrals                  ... done
Transforming integrals                            ... done
Calculating the Linear Momentum integrals         ... done
Transforming integrals                            ... done
Calculating angular momentum integrals            ... done
Transforming integrals                            ... done

-----------------------------------------------------------------------------
         ABSORPTION SPECTRUM VIA TRANSITION ELECTRIC DIPOLE MOMENTS
-----------------------------------------------------------------------------
State   Energy    Wavelength  fosc         T2        TX        TY        TZ  
        (cm-1)      (nm)                 (au**2)    (au)      (au)      (au) 
-----------------------------------------------------------------------------
   1   35052.0    285.3   0.114090242   1.07155  -0.93549  -0.22231   0.38340
   2   43793.0    228.3   0.005743066   0.04317  -0.01430  -0.08758  -0.18788
   3   46814.5    213.6   0.000711032   0.00500   0.00034  -0.00905  -0.07013
   4   48478.0    206.3   0.002145297   0.01457   0.02337  -0.03296   0.11374
   5   50964.1    196.2   0.009826953   0.06348  -0.08903   0.08330  -0.22049
   6   52926.3    188.9   0.028653881   0.17823   0.14577   0.35083   0.18412
   7   53436.9    187.1   0.035034263   0.21584   0.11615  -0.37326   0.25105
   8   54509.5    183.5   0.094030204   0.56790  -0.17370   0.69807  -0.22455
   9   56453.4    177.1   0.219239809   1.27851  -0.28519   1.05879  -0.27592
  10   56766.6    176.2   0.036055648   0.20910   0.17545   0.33472   0.25745

-----------------------------------------------------------------------------
         ABSORPTION SPECTRUM VIA TRANSITION VELOCITY DIPOLE MOMENTS
-----------------------------------------------------------------------------
State   Energy    Wavelength   fosc        P2         PX        PY        PZ  
        (cm-1)      (nm)                 (au**2)     (au)      (au)      (au) 
-----------------------------------------------------------------------------
   1   35052.0    285.3   0.013682235   0.00328   0.02036  -0.05089  -0.01655
   2   43793.0    228.3   0.000896263   0.00027  -0.01386  -0.00548  -0.00680
   3   46814.5    213.6   0.000675079   0.00022   0.00510   0.00856   0.01081
   4   48478.0    206.3   0.000789939   0.00026  -0.00573  -0.00892  -0.01222
   5   50964.1    196.2   0.008650849   0.00301   0.00095  -0.02980   0.04609
   6   52926.3    188.9   0.022341140   0.00808  -0.03360  -0.06755  -0.04888
   7   53436.9    187.1   0.026449440   0.00966  -0.02284   0.07356  -0.06105
   8   54509.5    183.5   0.024766408   0.00923   0.03496  -0.08913  -0.00779
   9   56453.4    177.1   0.075633752   0.02918   0.05496  -0.16166   0.00533
  10   56766.6    176.2   0.032980894   0.01280  -0.03947  -0.07163  -0.07814

-------------------------------------------------------------------
                             CD SPECTRUM
-------------------------------------------------------------------
State  Energy     Wavelength     R         MX        MY        MZ   
       (cm-1)       (nm)     (1e40*cgs)   (au)      (au)      (au)  
-------------------------------------------------------------------
   1   35052.0    285.3    -37.14325   0.36681   0.22567   0.82038
   2   43793.0    228.3     -3.26526  -0.28328   0.22001  -0.04414
   3   46814.5    213.6      2.77985   0.08059  -0.21654  -0.05574
   4   48478.0    206.3     -2.30659  -0.19859   0.29785   0.08411
   5   50964.1    196.2      0.09216  -0.38238   0.05976   0.17609
   6   52926.3    188.9     -0.24954   0.10973   0.05106  -0.18705
   7   53436.9    187.1     -3.91683  -0.03554   0.01044  -0.00113
   8   54509.5    183.5     26.05868  -0.21095  -0.08370  -0.34318
   9   56453.4    177.1    -27.80405  -0.01932  -0.13635  -0.28952
  10   56766.6    176.2     22.14930  -0.03473   0.21516  -0.07358

-------------------------------------------------------------------
         CD SPECTRUM VIA TRANSITION VELOCITY DIPOLE MOMENTS        
-------------------------------------------------------------------
State  Energy     Wavelength     R         MX        MY        MZ   
       (cm-1)       (nm)     (1e40*cgs)   (au)      (au)      (au)  
-------------------------------------------------------------------
   1   35052.0    285.3    -51.94592   0.36681   0.22567   0.82038
   2   43793.0    228.3      7.13173  -0.28328   0.22001  -0.04414
   3   46814.5    213.6     -4.51932   0.08059  -0.21654  -0.05574
   4   48478.0    206.3     -5.43383  -0.19859   0.29785   0.08411
   5   50964.1    196.2     12.12218  -0.38238   0.05976   0.17609
   6   52926.3    188.9      3.92193   0.10973   0.05106  -0.18705
   7   53436.9    187.1      3.19184  -0.03554   0.01044  -0.00113
   8   54509.5    183.5      5.23686  -0.21095  -0.08370  -0.34318
   9   56453.4    177.1     35.62685  -0.01932  -0.13635  -0.28952
  10   56766.6    176.2    -15.11504  -0.03473   0.21516  -0.07358

Total run time:     2115.724 sec

           *** ORCA-CIS/TD-DFT FINISHED WITHOUT ERROR ***

Maximum memory used throughout the entire CIS-calculation: 957.9 MB

-----------------------
CIS/TD-DFT TOTAL ENERGY
-----------------------

    E(SCF)  =   -641.497289414 Eh
    DE(CIS) =      0.159708629 Eh (Root  1)
    ----------------------------- ---------
    E(tot)  =   -641.337580785 Eh

  Warning: (DFTVDWD): Non-parameterized functional used for dispersion correction ! 

  Warning: (D3BJ): Non-parameterized functional used for dispersion correction !

Please define all necessary parameters (s6, s8, a1, and a2) in the %method block!
[file orca_tools/Tool-Misc/qcdftvdw.cpp, line 36127]: ERROR in DFT dispersion correction!

