
                                 *****************
                                 * O   R   C   A *
                                 *****************

                                            #,                                       
                                            ###                                      
                                            ####                                     
                                            #####                                    
                                            ######                                   
                                           ########,                                 
                                     ,,################,,,,,                         
                               ,,#################################,,                 
                          ,,##########################################,,             
                       ,#########################################, ''#####,          
                    ,#############################################,,   '####,        
                  ,##################################################,,,,####,       
                ,###########''''           ''''###############################       
              ,#####''   ,,,,##########,,,,          '''####'''          '####       
            ,##' ,,,,###########################,,,                        '##       
           ' ,,###''''                  '''############,,,                           
         ,,##''                                '''############,,,,        ,,,,,,###''
      ,#''                                            '''#######################'''  
     '                                                          ''''####''''         
             ,#######,   #######,   ,#######,      ##                                
            ,#'     '#,  ##    ##  ,#'     '#,    #''#        ######   ,####,        
            ##       ##  ##   ,#'  ##            #'  '#       #        #'  '#        
            ##       ##  #######   ##           ,######,      #####,   #    #        
            '#,     ,#'  ##    ##  '#,     ,#' ,#      #,         ##   #,  ,#        
             '#######'   ##     ##  '#######'  #'      '#     #####' # '####'        



                  #######################################################
                  #                        -***-                        #
                  #          Department of theory and spectroscopy      #
                  #    Directorship and core code : Frank Neese         #
                  #        Max Planck Institute fuer Kohlenforschung    #
                  #                Kaiser Wilhelm Platz 1               #
                  #                 D-45470 Muelheim/Ruhr               #
                  #                      Germany                        #
                  #                                                     #
                  #                  All rights reserved                #
                  #                        -***-                        #
                  #######################################################


                         Program Version 5.0.2 -  RELEASE  -


 With contributions from (in alphabetic order):
   Daniel Aravena         : Magnetic Suceptibility
   Michael Atanasov       : Ab Initio Ligand Field Theory (pilot matlab implementation)
   Alexander A. Auer      : GIAO ZORA, VPT2 properties, NMR spectrum
   Ute Becker             : Parallelization
   Giovanni Bistoni       : ED, misc. LED, open-shell LED, HFLD
   Martin Brehm           : Molecular dynamics
   Dmytro Bykov           : SCF Hessian
   Vijay G. Chilkuri      : MRCI spin determinant printing, contributions to CSF-ICE
   Dipayan Datta          : RHF DLPNO-CCSD density
   Achintya Kumar Dutta   : EOM-CC, STEOM-CC
   Dmitry Ganyushin       : Spin-Orbit,Spin-Spin,Magnetic field MRCI
   Miquel Garcia          : C-PCM and meta-GGA Hessian, CC/C-PCM, Gaussian charge scheme
   Yang Guo               : DLPNO-NEVPT2, F12-NEVPT2, CIM, IAO-localization
   Andreas Hansen         : Spin unrestricted coupled pair/coupled cluster methods
   Benjamin Helmich-Paris : MC-RPA, TRAH-SCF, COSX integrals
   Lee Huntington         : MR-EOM, pCC
   Robert Izsak           : Overlap fitted RIJCOSX, COSX-SCS-MP3, EOM
   Marcus Kettner         : VPT2
   Christian Kollmar      : KDIIS, OOCD, Brueckner-CCSD(T), CCSD density, CASPT2, CASPT2-K
   Simone Kossmann        : Meta GGA functionals, TD-DFT gradient, OOMP2, MP2 Hessian
   Martin Krupicka        : Initial AUTO-CI
   Lucas Lang             : DCDCAS
   Marvin Lechner         : AUTO-CI (C++ implementation), FIC-MRCC
   Dagmar Lenk            : GEPOL surface, SMD
   Dimitrios Liakos       : Extrapolation schemes; Compound Job, initial MDCI parallelization
   Dimitrios Manganas     : Further ROCIS development; embedding schemes
   Dimitrios Pantazis     : SARC Basis sets
   Anastasios Papadopoulos: AUTO-CI, single reference methods and gradients
   Taras Petrenko         : DFT Hessian,TD-DFT gradient, ASA, ECA, R-Raman, ABS, FL, XAS/XES, NRVS
   Peter Pinski           : DLPNO-MP2, DLPNO-MP2 Gradient
   Christoph Reimann      : Effective Core Potentials
   Marius Retegan         : Local ZFS, SOC
   Christoph Riplinger    : Optimizer, TS searches, QM/MM, DLPNO-CCSD(T), (RO)-DLPNO pert. Triples
   Tobias Risthaus        : Range-separated hybrids, TD-DFT gradient, RPA, STAB
   Michael Roemelt        : Original ROCIS implementation
   Masaaki Saitow         : Open-shell DLPNO-CCSD energy and density
   Barbara Sandhoefer     : DKH picture change effects
   Avijit Sen             : IP-ROCIS
   Kantharuban Sivalingam : CASSCF convergence, NEVPT2, FIC-MRCI
   Bernardo de Souza      : ESD, SOC TD-DFT
   Georgi Stoychev        : AutoAux, RI-MP2 NMR, DLPNO-MP2 response
   Willem Van den Heuvel  : Paramagnetic NMR
   Boris Wezisla          : Elementary symmetry handling
   Frank Wennmohs         : Technical directorship


 We gratefully acknowledge several colleagues who have allowed us to
 interface, adapt or use parts of their codes:
   Stefan Grimme, W. Hujo, H. Kruse, P. Pracht,  : VdW corrections, initial TS optimization,
                  C. Bannwarth, S. Ehlert          DFT functionals, gCP, sTDA/sTD-DF
   Ed Valeev, F. Pavosevic, A. Kumar             : LibInt (2-el integral package), F12 methods
   Garnet Chan, S. Sharma, J. Yang, R. Olivares  : DMRG
   Ulf Ekstrom                                   : XCFun DFT Library
   Mihaly Kallay                                 : mrcc  (arbitrary order and MRCC methods)
   Jiri Pittner, Ondrej Demel                    : Mk-CCSD
   Frank Weinhold                                : gennbo (NPA and NBO analysis)
   Christopher J. Cramer and Donald G. Truhlar   : smd solvation model
   Lars Goerigk                                  : TD-DFT with DH, B97 family of functionals
   V. Asgeirsson, H. Jonsson                     : NEB implementation
   FAccTs GmbH                                   : IRC, NEB, NEB-TS, DLPNO-Multilevel, CI-OPT
                                                   MM, QMMM, 2- and 3-layer-ONIOM, Crystal-QMMM,
                                                   LR-CPCM, SF, NACMEs, symmetry and pop. for TD-DFT,
                                                   nearIR, NL-DFT gradient (VV10), updates on ESD,
                                                   ML-optimized integration grids
   S Lehtola, MJT Oliveira, MAL Marques          : LibXC Library
   Liviu Ungur et al                             : ANISO software


 Your calculation uses the libint2 library for the computation of 2-el integrals
 For citations please refer to: http://libint.valeyev.net

 Your ORCA version has been built with support for libXC version: 5.1.0
 For citations please refer to: https://tddft.org/programs/libxc/

 This ORCA versions uses:
   CBLAS   interface :  Fast vector & matrix operations
   LAPACKE interface :  Fast linear algebra routines
   SCALAPACK package :  Parallel linear algebra routines
   Shared memory     :  Shared parallel matrices
   BLAS/LAPACK       :  OpenBLAS 0.3.15  USE64BITINT DYNAMIC_ARCH NO_AFFINITY Haswell SINGLE_THREADED
        Core in use  :  Haswell
   Copyright (c) 2011-2014, The OpenBLAS Project


Your calculation utilizes the atom-pairwise dispersion correction
with the zero-damping scheme (D30)
Cite in your paper:
S.Grimme, J.Antony, S.Ehrlich and H.Krieg, J.Chem.Phys., 132, (2010), 154104 
   

Your calculation utilizes the SMD solvation module
Please cite in your paper:
A.V. Marenich, C.J. Cramer, D.G. Truhlar J. Phys. Chem. B, 113, (2009), 6378 

XCFun DFT library Copyright 2009-2010 Ulf Ekstrom and contributors.
See http://admol.org/xcfun for more information.
This is free software; see the source code for copying conditions.
There is ABSOLUTELY NO WARRANTY; not even for MERCHANTABILITY or FITNESS FOR A PARTICULAR PURPOSE.
For details see the documentation.
Scientific users of this library should cite U. Ekstrom, L. Visscher, R. Bast, A. J. Thorvaldsen and K. Ruud;
J.Chem.Theor.Comp. 2010, DOI: 10.1021/ct100117s
XCFun Version 0.99 

================================================================================

----- Orbital basis set information -----
Your calculation utilizes the basis: aug-cc-pVTZ 
    H, B-Ne : Obtained from the ccRepo (grant-hill.group.shef.ac.uk/ccrepo) Feb. 2017
              R. A. Kendall, T. H. Dunning, Jr., R. J. Harrison, J. Chem. Phys. 96, 6796 (1992)
         He : Obtained from the ccRepo (grant-hill.group.shef.ac.uk/ccrepo) Feb. 2017
              D. E. Woon, T. H. Dunning, Jr., J. Chem. Phys. 100, 2975 (1994)
  Li-Be, Na : Obtained from the ccRepo (grant-hill.group.shef.ac.uk/ccrepo) Feb. 2017
              B. P. Prascher, D. E. Woon, K. A. Peterson, T. H. Dunning, Jr., A. K. Wilson, Theor. Chem. Acc. 128, 69 (2011)
         Mg : Obtained from the Peterson Research Group Website (tyr0.chem.wsu.edu/~kipeters) Feb. 2017
              B. P. Prascher, D. E. Woon, K. A. Peterson, T. H. Dunning, Jr., A. K. Wilson, Theor. Chem. Acc. 128, 69 (2011)
      Al-Ar : Obtained from the ccRepo (grant-hill.group.shef.ac.uk/ccrepo) Feb. 2017
              D. E. Woon, T. H. Dunning, Jr., J. Chem. Phys. 98, 1358 (1993)
      Sc-Zn : Obtained from the ccRepo (grant-hill.group.shef.ac.uk/ccrepo) Feb. 2017
              N. B. Balabanov, K. A. Peterson, J. Chem. Phys. 123, 064107 (2005)
              N. B. Balabanov, K. A. Peterson, J. Chem. Phys. 125, 074110 (2006)
      Ga-Kr : Obtained from the ccRepo (grant-hill.group.shef.ac.uk/ccrepo) Feb. 2017
              A. K. Wilson, D. E. Woon, K. A. Peterson, T. H. Dunning, Jr., J. Chem. Phys. 110, 7667 (1999)
     Ag, Au : Obtained from the Peterson Research Group Website (tyr0.chem.wsu.edu/~kipeters) Feb. 2017
              K. A. Peterson, C. Puzzarini, Theor. Chem. Acc. 114, 283 (2005)

The basis set includes element-specific modifications.

Your calculation utilizes the basis: cc-pVTZ 
       H, B-Ne : Obtained from the ccRepo (grant-hill.group.shef.ac.uk/ccrepo) Feb. 2017
                 T. H. Dunning, Jr., J. Chem. Phys. 90, 1007 (1989)
            He : Obtained from the ccRepo (grant-hill.group.shef.ac.uk/ccrepo) Feb. 2017
                 D. E. Woon, T. H. Dunning, Jr., J. Chem. Phys. 100, 2975 (1994)
  Li-Be, Na-Mg : Obtained from the ccRepo (grant-hill.group.shef.ac.uk/ccrepo) Feb. 2017
                 B. P. Prascher, D. E. Woon, K. A. Peterson, T. H. Dunning, Jr., A. K. Wilson, Theor. Chem. Acc. 128, 69 (2011)
         Al-Ar : Obtained from the ccRepo (grant-hill.group.shef.ac.uk/ccrepo) Feb. 2017
                 D. E. Woon, T. H. Dunning, Jr., J. Chem. Phys. 98, 1358 (1993)
            Ca : Obtained from the Peterson Research Group Website (tyr0.chem.wsu.edu/~kipeters) Feb. 2017
                 J. Koput, K. A. Peterson, J. Phys. Chem. 106, 9595 (2002)
         Sc-Zn : Obtained from the ccRepo (grant-hill.group.shef.ac.uk/ccrepo) Feb. 2017
                 N. B. Balabanov, K. A. Peterson, J. Chem. Phys. 123, 064107 (2005)
                 N. B. Balabanov, K. A. Peterson, J. Chem. Phys. 125, 074110 (2006)
         Ga-Kr : Obtained from the ccRepo (grant-hill.group.shef.ac.uk/ccrepo) Feb. 2017
                 A. K. Wilson, D. E. Woon, K. A. Peterson, T. H. Dunning, Jr., J. Chem. Phys. 110, 7667 (1999)
             Y : Obtained from the ccRepo (grant-hill.group.shef.ac.uk/ccrepo) Feb. 2017
                 K. A. Peterson, D. Figgen, M. Dolg, H. Stoll, J. Chem. Phys. 126, 124101 (2007)
        Ag, Au : Obtained from the Peterson Research Group Website (tyr0.chem.wsu.edu/~kipeters) Feb. 2017
                 K. A. Peterson, C. Puzzarini, Theor. Chem. Acc. 114, 283 (2005)

----- AuxJ basis set information -----
Your calculation utilizes the auxiliary basis: aug-cc-pVTZ/JK 
  H, B-F, Al-Cl, Ga-Br : Obtained from the TURBOMOLE 7.0 basis set library

The basis set includes element-specific modifications.

Your calculation utilizes the auxiliary basis: cc-pVTZ/JK 
  H, B-F, Al-Cl, Ga-Br : Obtained from the TURBOMOLE 7.0 basis set library

----- AuxC basis set information -----
Your calculation utilizes the auxiliary basis: aug-cc-pVTZ/C 
  H-He, B-F, Al-Ar, Ga-Kr : Obtained from the EMSL Basis Set Exchange (bse.pnl.gov) Feb. 2017
                            F. Weigend, A. Kohn, C. Hattig, J. Chem. Phys. 116, 3175 (2002)
                   Be, Mg : Obtained from the TURBOMOLE 7.0 basis set library
                            C. Haettig, Phys. Chem. Chem. Phys. 7, 59 (2005)
                       Ne : Obtained from the EMSL Basis Set Exchange (bse.pnl.gov) Feb. 2017
                            C. Haettig, Phys. Chem. Chem. Phys. 7, 59 (2005)
                            F. Weigend, A. Kohn, C. Hattig, J. Chem. Phys. 116, 3175 (2002)
                    Sc-Zn : Obtained from the EMSL Basis Set Exchange (bse.pnl.gov) Feb. 2017
                            J. G. Hill, J. A. Platts, J. Chem. Phys. 128, 044104 (2008)

The basis set includes element-specific modifications.

Your calculation utilizes the auxiliary basis: cc-pVTZ/C 
  Obtained from the EMSL Basis Set Exchange (bse.pnl.gov) Feb. 2017
  H-He, B-F, Al-Ar, Ga-Kr : F. Weigend, A. Kohn, C. Hattig, J. Chem. Phys. 116, 3175 (2002)
             Li-Be, Na-Mg : C. Haettig, Phys. Chem. Chem. Phys. 7, 59 (2005)
                       Ne : C. Haettig, Phys. Chem. Chem. Phys. 7, 59 (2005)
                            F. Weigend, A. Kohn, C. Hattig, J. Chem. Phys. 116, 3175 (2002)
                    Sc-Zn : J. G. Hill, J. A. Platts, J. Chem. Phys. 128, 044104 (2008)

================================================================================
                                        WARNINGS
                       Please study these warnings very carefully!
================================================================================


WARNING: Geometry Optimization
  ===> : Switching off AutoStart
         For restart on a previous wavefunction, please use MOREAD

INFO   : the flag for use of the SHARK integral package has been found!



***************************************
The coordinates will be read from file: 
***************************************


Your calculation utilizes the atom-pairwise dispersion correction
with the zero-damping scheme (D30)
Cite in your paper:
S.Grimme, J.Antony, S.Ehrlich and H.Krieg, J.Chem.Phys., 132, (2010), 154104 
   

Your calculation utilizes the SMD solvation module
Please cite in your paper:
A.V. Marenich, C.J. Cramer, D.G. Truhlar J. Phys. Chem. B, 113, (2009), 6378 

XCFun DFT library Copyright 2009-2010 Ulf Ekstrom and contributors.
See http://admol.org/xcfun for more information.
This is free software; see the source code for copying conditions.
There is ABSOLUTELY NO WARRANTY; not even for MERCHANTABILITY or FITNESS FOR A PARTICULAR PURPOSE.
For details see the documentation.
Scientific users of this library should cite U. Ekstrom, L. Visscher, R. Bast, A. J. Thorvaldsen and K. Ruud;
J.Chem.Theor.Comp. 2010, DOI: 10.1021/ct100117s
XCFun Version 0.99 

================================================================================

----- Orbital basis set information -----
Your calculation utilizes the basis: aug-cc-pVTZ 
    H, B-Ne : Obtained from the ccRepo (grant-hill.group.shef.ac.uk/ccrepo) Feb. 2017
              R. A. Kendall, T. H. Dunning, Jr., R. J. Harrison, J. Chem. Phys. 96, 6796 (1992)
         He : Obtained from the ccRepo (grant-hill.group.shef.ac.uk/ccrepo) Feb. 2017
              D. E. Woon, T. H. Dunning, Jr., J. Chem. Phys. 100, 2975 (1994)
  Li-Be, Na : Obtained from the ccRepo (grant-hill.group.shef.ac.uk/ccrepo) Feb. 2017
              B. P. Prascher, D. E. Woon, K. A. Peterson, T. H. Dunning, Jr., A. K. Wilson, Theor. Chem. Acc. 128, 69 (2011)
         Mg : Obtained from the Peterson Research Group Website (tyr0.chem.wsu.edu/~kipeters) Feb. 2017
              B. P. Prascher, D. E. Woon, K. A. Peterson, T. H. Dunning, Jr., A. K. Wilson, Theor. Chem. Acc. 128, 69 (2011)
      Al-Ar : Obtained from the ccRepo (grant-hill.group.shef.ac.uk/ccrepo) Feb. 2017
              D. E. Woon, T. H. Dunning, Jr., J. Chem. Phys. 98, 1358 (1993)
      Sc-Zn : Obtained from the ccRepo (grant-hill.group.shef.ac.uk/ccrepo) Feb. 2017
              N. B. Balabanov, K. A. Peterson, J. Chem. Phys. 123, 064107 (2005)
              N. B. Balabanov, K. A. Peterson, J. Chem. Phys. 125, 074110 (2006)
      Ga-Kr : Obtained from the ccRepo (grant-hill.group.shef.ac.uk/ccrepo) Feb. 2017
              A. K. Wilson, D. E. Woon, K. A. Peterson, T. H. Dunning, Jr., J. Chem. Phys. 110, 7667 (1999)
     Ag, Au : Obtained from the Peterson Research Group Website (tyr0.chem.wsu.edu/~kipeters) Feb. 2017
              K. A. Peterson, C. Puzzarini, Theor. Chem. Acc. 114, 283 (2005)

The basis set includes element-specific modifications.

Your calculation utilizes the basis: cc-pVTZ 
       H, B-Ne : Obtained from the ccRepo (grant-hill.group.shef.ac.uk/ccrepo) Feb. 2017
                 T. H. Dunning, Jr., J. Chem. Phys. 90, 1007 (1989)
            He : Obtained from the ccRepo (grant-hill.group.shef.ac.uk/ccrepo) Feb. 2017
                 D. E. Woon, T. H. Dunning, Jr., J. Chem. Phys. 100, 2975 (1994)
  Li-Be, Na-Mg : Obtained from the ccRepo (grant-hill.group.shef.ac.uk/ccrepo) Feb. 2017
                 B. P. Prascher, D. E. Woon, K. A. Peterson, T. H. Dunning, Jr., A. K. Wilson, Theor. Chem. Acc. 128, 69 (2011)
         Al-Ar : Obtained from the ccRepo (grant-hill.group.shef.ac.uk/ccrepo) Feb. 2017
                 D. E. Woon, T. H. Dunning, Jr., J. Chem. Phys. 98, 1358 (1993)
            Ca : Obtained from the Peterson Research Group Website (tyr0.chem.wsu.edu/~kipeters) Feb. 2017
                 J. Koput, K. A. Peterson, J. Phys. Chem. 106, 9595 (2002)
         Sc-Zn : Obtained from the ccRepo (grant-hill.group.shef.ac.uk/ccrepo) Feb. 2017
                 N. B. Balabanov, K. A. Peterson, J. Chem. Phys. 123, 064107 (2005)
                 N. B. Balabanov, K. A. Peterson, J. Chem. Phys. 125, 074110 (2006)
         Ga-Kr : Obtained from the ccRepo (grant-hill.group.shef.ac.uk/ccrepo) Feb. 2017
                 A. K. Wilson, D. E. Woon, K. A. Peterson, T. H. Dunning, Jr., J. Chem. Phys. 110, 7667 (1999)
             Y : Obtained from the ccRepo (grant-hill.group.shef.ac.uk/ccrepo) Feb. 2017
                 K. A. Peterson, D. Figgen, M. Dolg, H. Stoll, J. Chem. Phys. 126, 124101 (2007)
        Ag, Au : Obtained from the Peterson Research Group Website (tyr0.chem.wsu.edu/~kipeters) Feb. 2017
                 K. A. Peterson, C. Puzzarini, Theor. Chem. Acc. 114, 283 (2005)

----- AuxJ basis set information -----
Your calculation utilizes the auxiliary basis: aug-cc-pVTZ/JK 
  H, B-F, Al-Cl, Ga-Br : Obtained from the TURBOMOLE 7.0 basis set library

The basis set includes element-specific modifications.

Your calculation utilizes the auxiliary basis: cc-pVTZ/JK 
  H, B-F, Al-Cl, Ga-Br : Obtained from the TURBOMOLE 7.0 basis set library

----- AuxC basis set information -----
Your calculation utilizes the auxiliary basis: aug-cc-pVTZ/C 
  H-He, B-F, Al-Ar, Ga-Kr : Obtained from the EMSL Basis Set Exchange (bse.pnl.gov) Feb. 2017
                            F. Weigend, A. Kohn, C. Hattig, J. Chem. Phys. 116, 3175 (2002)
                   Be, Mg : Obtained from the TURBOMOLE 7.0 basis set library
                            C. Haettig, Phys. Chem. Chem. Phys. 7, 59 (2005)
                       Ne : Obtained from the EMSL Basis Set Exchange (bse.pnl.gov) Feb. 2017
                            C. Haettig, Phys. Chem. Chem. Phys. 7, 59 (2005)
                            F. Weigend, A. Kohn, C. Hattig, J. Chem. Phys. 116, 3175 (2002)
                    Sc-Zn : Obtained from the EMSL Basis Set Exchange (bse.pnl.gov) Feb. 2017
                            J. G. Hill, J. A. Platts, J. Chem. Phys. 128, 044104 (2008)

The basis set includes element-specific modifications.

Your calculation utilizes the auxiliary basis: cc-pVTZ/C 
  Obtained from the EMSL Basis Set Exchange (bse.pnl.gov) Feb. 2017
  H-He, B-F, Al-Ar, Ga-Kr : F. Weigend, A. Kohn, C. Hattig, J. Chem. Phys. 116, 3175 (2002)
             Li-Be, Na-Mg : C. Haettig, Phys. Chem. Chem. Phys. 7, 59 (2005)
                       Ne : C. Haettig, Phys. Chem. Chem. Phys. 7, 59 (2005)
                            F. Weigend, A. Kohn, C. Hattig, J. Chem. Phys. 116, 3175 (2002)
                    Sc-Zn : J. G. Hill, J. A. Platts, J. Chem. Phys. 128, 044104 (2008)

================================================================================
                                        WARNINGS
                       Please study these warnings very carefully!
================================================================================

INFO   : Checking CIS options ...

INFO   : the flag for use of the SHARK integral package has been found!

================================================================================
                                       INPUT FILE
================================================================================
NAME = wb97x-d3-train-11.inp
|  1> ! wb97x-d3 aug-cc-PVTZ RIJCOSX Opt
|  2> %maxcore 4000
|  3> %basis
|  4>  AuxJ "aug-cc-PVTZ/JK"
|  5>  AuxC "aug-cc-PVTZ/C"
|  6>  newGTO H "cc-PVTZ" end
|  7>  newAuxJGTO H "cc-PVTZ/JK" end
|  8>  newAuxCGTO H "cc-PVTZ/C" end
|  9> end
| 10> %cpcm
| 11>  SMD true
| 12>  SMDsolvent "ethanol"
| 13> end
| 14> %pal nprocs 4 end
| 15> * xyz 0 1
| 16> N         -2.13160       -3.53150       -0.43250
| 17> C         -1.57570       -2.55260       -0.63200
| 18> C         -0.89460       -1.30680       -0.85160
| 19> C          0.62070       -1.46820       -1.05290
| 20> C          1.21490       -0.12200       -0.62600
| 21> C          2.51050       -0.27790        0.19930
| 22> N          2.91190        0.89490        0.72050
| 23> O          3.09230       -1.32760        0.33320
| 24> N          0.18610        0.51360        0.17560
| 25> N          0.17690        1.82820        0.27800
| 26> C         -0.90910        2.43540        0.60720
| 27> C         -2.17820        1.75380        0.67270
| 28> C         -2.22420        0.42980        0.50170
| 29> C         -0.96120       -0.36810        0.38090
| 30> H         -1.34710       -0.80480       -1.71590
| 31> H          1.01430       -2.25180       -0.40120
| 32> H          0.87550       -1.71890       -2.08030
| 33> H          1.45630        0.51580       -1.48700
| 34> H          3.70900        0.91340        1.33490
| 35> H          2.30520        1.70030        0.66600
| 36> H         -0.83820        3.50140        0.74460
| 37> H         -3.07550        2.34250        0.77660
| 38> H         -3.14950       -0.12280        0.43620
| 39> H         -0.78870       -0.97630        1.28840
| 40> *
| 41> 
| 42> 
| 43> $new_job
| 44> ! wb97x-d3 aug-cc-PVTZ RIJCOSX SP
| 45> %maxcore 4000
| 46> %basis
| 47>  AuxJ "aug-cc-PVTZ/JK"
| 48>  AuxC "aug-cc-PVTZ/C"
| 49>  newGTO H "cc-PVTZ" end
| 50>  newAuxJGTO H "cc-PVTZ/JK" end
| 51>  newAuxCGTO H "cc-PVTZ/C" end
| 52> end
| 53> %cpcm
| 54>  SMD true
| 55>  SMDsolvent "ethanol"
| 56> end
| 57> %pal nprocs 4 end
| 58> %tddft
| 59>  nroots 10
| 60>  maxdim 7
| 61> end
| 62> * xyzfile 0 1
| 63> 
| 64>                          ****END OF INPUT****
================================================================================


                 $$$$$$$$$$$$$$$$$$$$$$$$$$$$$$$$$$$$$$$$$$$$$$ 
                 $ THERE ARE  2 JOBS TO BE PROCESSED THIS RUN $
                 $$$$$$$$$$$$$$$$$$$$$$$$$$$$$$$$$$$$$$$$$$$$$$ 




                 $$$$$$$$$$$$$$$$  JOB NUMBER  1 $$$$$$$$$$$$$$


                       *****************************
                       * Geometry Optimization Run *
                       *****************************

Geometry optimization settings:
Update method            Update   .... BFGS
Choice of coordinates    CoordSys .... Z-matrix Internals
Initial Hessian          InHess   .... Almoef's Model

Convergence Tolerances:
Energy Change            TolE     ....  5.0000e-06 Eh
Max. Gradient            TolMAXG  ....  3.0000e-04 Eh/bohr
RMS Gradient             TolRMSG  ....  1.0000e-04 Eh/bohr
Max. Displacement        TolMAXD  ....  4.0000e-03 bohr
RMS Displacement         TolRMSD  ....  2.0000e-03 bohr
Strict Convergence                ....  False
------------------------------------------------------------------------------
                        ORCA OPTIMIZATION COORDINATE SETUP
------------------------------------------------------------------------------

The optimization will be done in new redundant internal coordinates
Making redundant internal coordinates   ...  (new redundants) done
Evaluating the initial hessian          ...  (Almloef) done
Evaluating the coordinates              ...  done
Calculating the B-matrix                .... done
Calculating the G-matrix                .... done
Diagonalizing the G-matrix              .... done
Small eigenvalue found = 2.354e-02
The first mode is                       ....   71
The number of degrees of freedom        ....   66

    -----------------------------------------------------------------
                    Redundant Internal Coordinates


    -----------------------------------------------------------------
         Definition                    Initial Value    Approx d2E/dq
    -----------------------------------------------------------------
      1. B(C   1,N   0)                  1.1433         1.385207   
      2. B(C   2,C   1)                  1.4367         0.526276   
      3. B(C   3,C   2)                  1.5371         0.363944   
      4. B(C   4,C   3)                  1.5322         0.370597   
      5. B(C   5,C   4)                  1.5440         0.354818   
      6. B(N   6,C   5)                  1.3447         0.660908   
      7. B(O   7,C   5)                  1.2076         1.093674   
      8. B(N   8,C   4)                  1.4509         0.447492   
      9. B(N   9,N   8)                  1.3186         0.651484   
     10. B(C  10,N   9)                  1.2870         0.816862   
     11. B(C  11,C  10)                  1.4420         0.516071   
     12. B(C  12,C  11)                  1.3358         0.762480   
     13. B(C  13,C  12)                  1.4988         0.418941   
     14. B(C  13,N   8)                  1.4615         0.430407   
     15. B(C  13,C   2)                  1.5507         0.346228   
     16. B(H  14,C   2)                  1.0972         0.350743   
     17. B(H  15,C   3)                  1.0925         0.356744   
     18. B(H  16,C   3)                  1.0878         0.363013   
     19. B(H  17,C   4)                  1.0984         0.349215   
     20. B(H  18,N   6)                  1.0066         0.438183   
     21. B(H  19,N   6)                  1.0098         0.433004   
     22. B(H  20,C  10)                  1.0772         0.377500   
     23. B(H  21,C  11)                  1.0782         0.376056   
     24. B(H  22,C  12)                  1.0797         0.373933   
     25. B(H  23,C  13)                  1.1060         0.339553   
     26. L(N   0,C   1,C   2,C  13, 2) 180.6772         0.484570   
     27. L(N   0,C   1,C   2,C  13, 1) 178.4979         0.484570   
     28. A(C   1,C   2,C   3)          113.3477         0.383732   
     29. A(C  13,C   2,H  14)          109.3556         0.318930   
     30. A(C   3,C   2,C  13)          102.1217         0.357082   
     31. A(C   3,C   2,H  14)          110.5762         0.321542   
     32. A(C   1,C   2,H  14)          108.7617         0.341788   
     33. A(C   1,C   2,C  13)          112.5232         0.380422   
     34. A(C   2,C   3,H  16)          112.2591         0.323359   
     35. A(C   2,C   3,H  15)          110.6305         0.322437   
     36. A(C   4,C   3,H  16)          112.0120         0.324322   
     37. A(C   2,C   3,C   4)          104.6886         0.361241   
     38. A(H  15,C   3,H  16)          108.2819         0.290780   
     39. A(C   4,C   3,H  15)          108.9204         0.323396   
     40. A(C   3,C   4,H  17)          112.1495         0.322267   
     41. A(C   5,C   4,N   8)          110.1162         0.369157   
     42. A(C   3,C   4,C   5)          112.6829         0.359681   
     43. A(C   3,C   4,N   8)          105.2988         0.371930   
     44. A(N   8,C   4,H  17)          109.5460         0.330434   
     45. A(C   5,C   4,H  17)          107.0505         0.319981   
     46. A(C   4,C   5,O   7)          123.4565         0.431961   
     47. A(C   4,C   5,N   6)          111.6903         0.395009   
     48. A(N   6,C   5,O   7)          124.8432         0.480559   
     49. A(C   5,N   6,H  19)          119.6929         0.362639   
     50. A(H  18,N   6,H  19)          119.6075         0.303901   
     51. A(C   5,N   6,H  18)          119.2745         0.363377   
     52. A(C   4,N   8,N   9)          118.9867         0.405143   
     53. A(N   9,N   8,C  13)          125.8087         0.402369   
     54. A(C   4,N   8,C  13)          111.7148         0.379267   
     55. A(N   8,N   9,C  10)          119.7421         0.451276   
     56. A(N   9,C  10,C  11)          122.0885         0.438449   
     57. A(C  11,C  10,H  20)          121.3257         0.344893   
     58. A(N   9,C  10,H  20)          116.3583         0.370585   
     59. A(C  10,C  11,C  12)          119.5369         0.435897   
     60. A(C  12,C  11,H  21)          121.6590         0.368286   
     61. A(C  10,C  11,H  21)          118.6016         0.344671   
     62. A(C  13,C  12,H  22)          116.4104         0.332572   
     63. A(C  11,C  12,H  22)          122.9939         0.367928   
     64. A(C  11,C  12,C  13)          120.5945         0.419906   
     65. A(N   8,C  13,H  23)          108.9407         0.326801   
     66. A(N   8,C  13,C  12)          110.5902         0.377340   
     67. A(C   2,C  13,H  23)          108.2146         0.317249   
     68. A(C   2,C  13,C  12)          114.9932         0.365758   
     69. A(C  12,C  13,H  23)          110.9804         0.327313   
     70. A(C   2,C  13,N   8)          102.6995         0.365164   
     71. D(H  15,C   3,C   2,H  14)   -159.8993         0.010611   
     72. D(H  16,C   3,C   2,C  13)   -155.0941         0.010611   
     73. D(H  15,C   3,C   2,C   1)    -37.4717         0.010611   
     74. D(C   4,C   3,C   2,C  13)    -33.3617         0.010611   
     75. D(H  16,C   3,C   2,C   1)     83.6108         0.010611   
     76. D(H  15,C   3,C   2,C  13)     83.8234         0.010611   
     77. D(C   4,C   3,C   2,C   1)   -154.6568         0.010611   
     78. D(H  16,C   3,C   2,H  14)    -38.8168         0.010611   
     79. D(C   4,C   3,C   2,H  14)     82.9156         0.010611   
     80. D(N   8,C   4,C   3,C   2)     18.6015         0.010977   
     81. D(N   8,C   4,C   3,H  15)    -99.7514         0.010977   
     82. D(C   5,C   4,C   3,H  16)    -99.4524         0.010977   
     83. D(C   5,C   4,C   3,H  15)     20.3003         0.010977   
     84. D(N   8,C   4,C   3,H  16)    140.4959         0.010977   
     85. D(C   5,C   4,C   3,C   2)    138.6532         0.010977   
     86. D(H  17,C   4,C   3,H  16)     21.4283         0.010977   
     87. D(H  17,C   4,C   3,H  15)    141.1810         0.010977   
     88. D(H  17,C   4,C   3,C   2)   -100.4662         0.010977   
     89. D(O   7,C   5,C   4,H  17)   -113.9776         0.009490   
     90. D(O   7,C   5,C   4,N   8)    127.0092         0.009490   
     91. D(O   7,C   5,C   4,C   3)      9.7747         0.009490   
     92. D(N   6,C   5,C   4,H  17)     64.9176         0.009490   
     93. D(N   6,C   5,C   4,N   8)    -54.0957         0.009490   
     94. D(N   6,C   5,C   4,C   3)   -171.3302         0.009490   
     95. D(H  19,N   6,C   5,C   4)      9.2919         0.035752   
     96. D(H  19,N   6,C   5,O   7)   -171.8313         0.035752   
     97. D(H  18,N   6,C   5,O   7)     -5.5030         0.035752   
     98. D(H  18,N   6,C   5,C   4)    175.6202         0.035752   
     99. D(N   9,N   8,C   4,C   3)   -155.3766         0.017080   
    100. D(N   9,N   8,C   4,C   5)     82.8904         0.017080   
    101. D(N   9,N   8,C   4,H  17)    -34.5866         0.017080   
    102. D(C  13,N   8,C   4,H  17)    125.5643         0.017080   
    103. D(C  13,N   8,C   4,C   5)   -116.9587         0.017080   
    104. D(C  13,N   8,C   4,C   3)      4.7744         0.017080   
    105. D(C  10,N   9,N   8,C  13)      1.2417         0.036925   
    106. D(C  10,N   9,N   8,C   4)    158.3510         0.036925   
    107. D(H  20,C  10,N   9,N   8)    175.7116         0.051687   
    108. D(C  11,C  10,N   9,N   8)     -9.7034         0.051687   
    109. D(H  21,C  11,C  10,H  20)      5.3234         0.018158   
    110. D(H  21,C  11,C  10,N   9)   -168.9957         0.018158   
    111. D(C  12,C  11,C  10,H  20)   -179.7613         0.018158   
    112. D(C  12,C  11,C  10,N   9)      5.9196         0.018158   
    113. D(H  22,C  12,C  11,H  21)      1.3573         0.041595   
    114. D(H  22,C  12,C  11,C  10)   -173.3975         0.041595   
    115. D(C  13,C  12,C  11,H  21)   -179.0560         0.041595   
    116. D(C  13,C  12,C  11,C  10)      6.1891         0.041595   
    117. D(C   2,C  13,C  12,C  11)   -128.4578         0.012980   
    118. D(H  23,C  13,N   8,N   9)   -112.6742         0.015794   
    119. D(H  23,C  13,N   8,C   4)     88.8096         0.015794   
    120. D(C  12,C  13,N   8,C   4)   -148.9618         0.015794   
    121. D(C   2,C  13,N   8,N   9)    132.7377         0.015794   
    122. D(C   2,C  13,N   8,C   4)    -25.7785         0.015794   
    123. D(H  23,C  13,C   2,H  14)    163.3690         0.009675   
    124. D(H  23,C  13,C   2,C   3)    -79.4727         0.009675   
    125. D(H  23,C  13,C   2,C   1)     42.3899         0.009675   
    126. D(C  12,C  13,C   2,H  14)     38.6691         0.009675   
    127. D(C  12,C  13,C   2,C   3)    155.8273         0.009675   
    128. D(C  12,C  13,N   8,N   9)      9.5544         0.015794   
    129. D(C  12,C  13,C   2,C   1)    -82.3100         0.009675   
    130. D(N   8,C  13,C   2,H  14)    -81.5161         0.009675   
    131. D(N   8,C  13,C   2,C   3)     35.6422         0.009675   
    132. D(C   2,C  13,C  12,H  22)     51.1551         0.012980   
    133. D(N   8,C  13,C   2,C   1)    157.5049         0.009675   
    134. D(H  23,C  13,C  12,H  22)    -72.0830         0.012980   
    135. D(H  23,C  13,C  12,C  11)    108.3041         0.012980   
    136. D(N   8,C  13,C  12,H  22)    166.8914         0.012980   
    137. D(N   8,C  13,C  12,C  11)    -12.7215         0.012980   
    -----------------------------------------------------------------

Number of atoms                         .... 24
Number of degrees of freedom            .... 137

         *************************************************************
         *                GEOMETRY OPTIMIZATION CYCLE   1            *
         *************************************************************
---------------------------------
CARTESIAN COORDINATES (ANGSTROEM)
---------------------------------
  N     -2.131600   -3.531500   -0.432500
  C     -1.575700   -2.552600   -0.632000
  C     -0.894600   -1.306800   -0.851600
  C      0.620700   -1.468200   -1.052900
  C      1.214900   -0.122000   -0.626000
  C      2.510500   -0.277900    0.199300
  N      2.911900    0.894900    0.720500
  O      3.092300   -1.327600    0.333200
  N      0.186100    0.513600    0.175600
  N      0.176900    1.828200    0.278000
  C     -0.909100    2.435400    0.607200
  C     -2.178200    1.753800    0.672700
  C     -2.224200    0.429800    0.501700
  C     -0.961200   -0.368100    0.380900
  H     -1.347100   -0.804800   -1.715900
  H      1.014300   -2.251800   -0.401200
  H      0.875500   -1.718900   -2.080300
  H      1.456300    0.515800   -1.487000
  H      3.709000    0.913400    1.334900
  H      2.305200    1.700300    0.666000
  H     -0.838200    3.501400    0.744600
  H     -3.075500    2.342500    0.776600
  H     -3.149500   -0.122800    0.436200
  H     -0.788700   -0.976300    1.288400

----------------------------
CARTESIAN COORDINATES (A.U.)
----------------------------
  NO LB      ZA    FRAG     MASS         X           Y           Z
   0 N     7.0000    0    14.007   -4.028140   -6.673568   -0.817307
   1 C     6.0000    0    12.011   -2.977641   -4.823715   -1.194307
   2 C     6.0000    0    12.011   -1.690549   -2.469494   -1.609291
   3 C     6.0000    0    12.011    1.172953   -2.774496   -1.989693
   4 C     6.0000    0    12.011    2.295828   -0.230547   -1.182969
   5 C     6.0000    0    12.011    4.744157   -0.525155    0.376622
   6 N     7.0000    0    14.007    5.502694    1.691116    1.361548
   7 O     8.0000    0    15.999    5.843600   -2.508800    0.629657
   8 N     7.0000    0    14.007    0.351678    0.970563    0.331836
   9 N     7.0000    0    14.007    0.334293    3.454797    0.525344
  10 C     6.0000    0    12.011   -1.717950    4.602239    1.147442
  11 C     6.0000    0    12.011   -4.116201    3.314202    1.271219
  12 C     6.0000    0    12.011   -4.203129    0.812204    0.948076
  13 C     6.0000    0    12.011   -1.816405   -0.695608    0.719797
  14 H     1.0000    0     1.008   -2.545650   -1.520852   -3.242581
  15 H     1.0000    0     1.008    1.916749   -4.255285   -0.758158
  16 H     1.0000    0     1.008    1.654455   -3.248250   -3.931197
  17 H     1.0000    0     1.008    2.752008    0.974721   -2.810023
  18 H     1.0000    0     1.008    7.008994    1.726076    2.522595
  19 H     1.0000    0     1.008    4.356197    3.213101    1.258558
  20 H     1.0000    0     1.008   -1.583968    6.616687    1.407090
  21 H     1.0000    0     1.008   -5.811853    4.426683    1.467561
  22 H     1.0000    0     1.008   -5.951692   -0.232058    0.824299
  23 H     1.0000    0     1.008   -1.490427   -1.844940    2.434723

--------------------------------
INTERNAL COORDINATES (ANGSTROEM)
--------------------------------
 N      0   0   0     0.000000000000     0.00000000     0.00000000
 C      1   0   0     1.143271739352     0.00000000     0.00000000
 C      2   1   0     1.436711178351   178.44617550     0.00000000
 C      3   2   1     1.537109540664   113.34770437   130.35166312
 C      4   3   2     1.532178739573   104.68862019   205.34320223
 C      5   4   3     1.544022104764   112.68290263   138.65315362
 N      6   5   4     1.344704889558   111.69027248   188.66981177
 O      6   5   4     1.207597010596   123.45646494     9.77469348
 N      5   4   3     1.450854699824   105.29875111    18.60145888
 N      9   5   4     1.318614257469   118.98667030   204.62343772
 C     10   9   5     1.287035539525   119.74205503   158.35098435
 C     11  10   9     1.442041476519   122.08848126   350.29655202
 C     12  11  10     1.335789279789   119.53687988     5.91961133
 C      9   5   4     1.461451425809   111.71478375     4.77436528
 H      3   2   1     1.097166687427   108.76172160   253.78075429
 H      4   3   2     1.092548767790   110.63049577   322.52831671
 H      4   3   2     1.087807101466   112.25913614    83.61075005
 H      5   4   3     1.098355042780   112.14948605   259.53384786
 H      7   6   5     1.006577379042   119.27450213   175.62017245
 H      7   6   5     1.009813992773   119.69291382     9.29188625
 H     11  10   9     1.077154385406   116.35830241   175.71156159
 H     12  11  10     1.078197658131   118.60159958   191.00430300
 H     13  12  11     1.079739366699   122.99391327   186.60245147
 H     14   9   5     1.105992649162   108.94065924    88.80958397

---------------------------
INTERNAL COORDINATES (A.U.)
---------------------------
 N      0   0   0     0.000000000000     0.00000000     0.00000000
 C      1   0   0     2.160470484026     0.00000000     0.00000000
 C      2   1   0     2.714990660628   178.44617550     0.00000000
 C      3   2   1     2.904716069692   113.34770437   130.35166312
 C      4   3   2     2.895398206010   104.68862019   205.34320223
 C      5   4   3     2.917778922725   112.68290263   138.65315362
 N      6   5   4     2.541123972209   111.69027248   188.66981177
 O      6   5   4     2.282027630168   123.45646494     9.77469348
 N      5   4   3     2.741718042779   105.29875111    18.60145888
 N      9   5   4     2.491819822900   118.98667030   204.62343772
 C     10   9   5     2.432144694326   119.74205503   158.35098435
 C     11  10   9     2.725063464376   122.08848126   350.29655202
 C     12  11  10     2.524275911430   119.53687988     5.91961133
 C      9   5   4     2.761742952808   111.71478375     4.77436528
 H      3   2   1     2.073344562499   108.76172160   253.78075429
 H      4   3   2     2.064617959077   110.63049577   322.52831671
 H      4   3   2     2.055657508306   112.25913614    83.61075005
 H      5   4   3     2.075590228665   112.14948605   259.53384786
 H      7   6   5     1.902155578991   119.27450213   175.62017245
 H      7   6   5     1.908271892542   119.69291382     9.29188625
 H     11  10   9     2.035526792370   116.35830241   175.71156159
 H     12  11  10     2.037498292104   118.60159958   191.00430300
 H     13  12  11     2.040411699075   122.99391327   186.60245147
 H     14   9   5     2.090023213046   108.94065924    88.80958397

---------------------
BASIS SET INFORMATION
---------------------
There are 4 groups of distinct atoms

 Group   1 Type N   : 19s6p3d2f contracted to 5s4p3d2f pattern {88111/3111/111/11}
 Group   2 Type C   : 19s6p3d2f contracted to 5s4p3d2f pattern {88111/3111/111/11}
 Group   3 Type O   : 19s6p3d2f contracted to 5s4p3d2f pattern {88111/3111/111/11}
 Group   4 Type H   : 5s2p1d contracted to 3s2p1d pattern {311/11/1}

Atom   0N    basis set group =>   1
Atom   1C    basis set group =>   2
Atom   2C    basis set group =>   2
Atom   3C    basis set group =>   2
Atom   4C    basis set group =>   2
Atom   5C    basis set group =>   2
Atom   6N    basis set group =>   1
Atom   7O    basis set group =>   3
Atom   8N    basis set group =>   1
Atom   9N    basis set group =>   1
Atom  10C    basis set group =>   2
Atom  11C    basis set group =>   2
Atom  12C    basis set group =>   2
Atom  13C    basis set group =>   2
Atom  14H    basis set group =>   4
Atom  15H    basis set group =>   4
Atom  16H    basis set group =>   4
Atom  17H    basis set group =>   4
Atom  18H    basis set group =>   4
Atom  19H    basis set group =>   4
Atom  20H    basis set group =>   4
Atom  21H    basis set group =>   4
Atom  22H    basis set group =>   4
Atom  23H    basis set group =>   4
---------------------------------
AUXILIARY/J BASIS SET INFORMATION
---------------------------------
There are 4 groups of distinct atoms

 Group   1 Type N   : 10s7p5d2f1g contracted to 10s7p5d2f1g pattern {1111111111/1111111/11111/11/1}
 Group   2 Type C   : 10s7p5d2f1g contracted to 10s7p5d2f1g pattern {1111111111/1111111/11111/11/1}
 Group   3 Type O   : 10s7p5d2f1g contracted to 10s7p5d2f1g pattern {1111111111/1111111/11111/11/1}
 Group   4 Type H   : 4s3p2d1f contracted to 4s3p2d1f pattern {1111/111/11/1}

Atom   0N    basis set group =>   1
Atom   1C    basis set group =>   2
Atom   2C    basis set group =>   2
Atom   3C    basis set group =>   2
Atom   4C    basis set group =>   2
Atom   5C    basis set group =>   2
Atom   6N    basis set group =>   1
Atom   7O    basis set group =>   3
Atom   8N    basis set group =>   1
Atom   9N    basis set group =>   1
Atom  10C    basis set group =>   2
Atom  11C    basis set group =>   2
Atom  12C    basis set group =>   2
Atom  13C    basis set group =>   2
Atom  14H    basis set group =>   4
Atom  15H    basis set group =>   4
Atom  16H    basis set group =>   4
Atom  17H    basis set group =>   4
Atom  18H    basis set group =>   4
Atom  19H    basis set group =>   4
Atom  20H    basis set group =>   4
Atom  21H    basis set group =>   4
Atom  22H    basis set group =>   4
Atom  23H    basis set group =>   4
---------------------------------
AUXILIARY/C BASIS SET INFORMATION
---------------------------------
There are 4 groups of distinct atoms

 Group   1 Type N   : 9s7p6d4f2g contracted to 9s7p6d4f2g pattern {111111111/1111111/111111/1111/11}
 Group   2 Type C   : 9s7p6d4f2g contracted to 9s7p6d4f2g pattern {111111111/1111111/111111/1111/11}
 Group   3 Type O   : 9s7p6d4f2g contracted to 9s7p6d4f2g pattern {111111111/1111111/111111/1111/11}
 Group   4 Type H   : 4s3p2d1f contracted to 4s3p2d1f pattern {1111/111/11/1}

Atom   0N    basis set group =>   1
Atom   1C    basis set group =>   2
Atom   2C    basis set group =>   2
Atom   3C    basis set group =>   2
Atom   4C    basis set group =>   2
Atom   5C    basis set group =>   2
Atom   6N    basis set group =>   1
Atom   7O    basis set group =>   3
Atom   8N    basis set group =>   1
Atom   9N    basis set group =>   1
Atom  10C    basis set group =>   2
Atom  11C    basis set group =>   2
Atom  12C    basis set group =>   2
Atom  13C    basis set group =>   2
Atom  14H    basis set group =>   4
Atom  15H    basis set group =>   4
Atom  16H    basis set group =>   4
Atom  17H    basis set group =>   4
Atom  18H    basis set group =>   4
Atom  19H    basis set group =>   4
Atom  20H    basis set group =>   4
Atom  21H    basis set group =>   4
Atom  22H    basis set group =>   4
Atom  23H    basis set group =>   4


           ************************************************************
           *        Program running with 4 parallel MPI-processes     *
           *              working on a common directory               *
           ************************************************************
------------------------------------------------------------------------------
                           ORCA GTO INTEGRAL CALCULATION
                           -- RI-GTO INTEGRALS CHOSEN --
------------------------------------------------------------------------------
------------------------------------------------------------------------------
                   ___                                                        
                  /   \      - P O W E R E D   B Y -                         
                 /     \                                                     
                 |  |  |   _    _      __       _____    __    __             
                 |  |  |  | |  | |    /  \     |  _  \  |  |  /  |          
                  \  \/   | |  | |   /    \    | | | |  |  | /  /          
                 / \  \   | |__| |  /  /\  \   | |_| |  |  |/  /          
                |  |  |   |  __  | /  /__\  \  |    /   |      \           
                |  |  |   | |  | | |   __   |  |    \   |  |\   \          
                \     /   | |  | | |  |  |  |  | |\  \  |  | \   \       
                 \___/    |_|  |_| |__|  |__|  |_| \__\ |__|  \__/        
                                                                              
                      - O R C A' S   B I G   F R I E N D -                    
                                      &                                       
                       - I N T E G R A L  F E E D E R -                       
                                                                              
 v1 FN, 2020, v2 2021                                                         
------------------------------------------------------------------------------


Reading SHARK input file wb97x-d3-train-11.SHARKINP.tmp ... ok
----------------------
SHARK INTEGRAL PACKAGE
----------------------

Number of atoms                             ...     24
Number of basis functions                   ...    868
Number of shells                            ...    340
Maximum angular momentum                    ...      3
Integral batch strategy                     ... SHARK/LIBINT Hybrid
RI-J (if used) integral strategy            ... SPLIT-RIJ (Revised 2003 algorithm where possible)
Printlevel                                  ...      1
Contraction scheme used                     ... PARTIAL GENERAL contraction
Coulomb Range Separation                    ... NOT USED
Exchange Range Separation                   ... Long Range
   Mu parameter                             ...  0.250000
   Scaling (regular/separated)              ...  0.195728  0.804272
Finite Nucleus Model                        ... NOT USED
Auxiliary Coulomb fitting basis             ... AVAILABLE
   # of basis functions in Aux-J            ...   1406
   # of shells in Aux-J                     ...    450
   Maximum angular momentum in Aux-J        ...      4
Auxiliary J/K fitting basis                 ... NOT available
Auxiliary Correlation fitting basis         ... AVAILABLE
   # of basis functions in Aux-C            ...   1784
   # of shells in Aux-C                     ...    492
   Maximum angular momentum in Aux-C        ...      4
Auxiliary 'external' fitting basis          ... NOT available
Integral threshold                          ...     2.500000e-11
Primitive cut-off                           ...     2.500000e-12
Primitive pair pre-selection threshold      ...     2.500000e-12

Calculating pre-screening integrals         ... done (  0.2 sec) Dimension = 340
Calculating pre-screening integrals (ORCA)  ... done (  0.3 sec) Dimension = 256
Organizing shell pair data                  ... done (  1.1 sec)
Shell pair information
Total number of shell pairs                 ...     57970
Shell pairs after pre-screening             ...     44162
Total number of primitive shell pairs       ...     75538
Primitive shell pairs kept                  ...     52854
          la=0 lb=0:  10218 shell pairs
          la=1 lb=0:  11182 shell pairs
          la=1 lb=1:   2670 shell pairs
          la=2 lb=0:   7447 shell pairs
          la=2 lb=1:   3565 shell pairs
          la=2 lb=2:   1234 shell pairs
          la=3 lb=0:   4159 shell pairs
          la=3 lb=1:   1964 shell pairs
          la=3 lb=2:   1339 shell pairs
          la=3 lb=3:    384 shell pairs

Calculating one electron integrals          ... done (  0.1 sec)
Calculating RI/J V-Matrix + Cholesky decomp.... done (  0.3 sec)
Calculating RI/C V-Matrix + Cholesky decomp.... done (  0.2 sec)
Calculating Nuclear repulsion               ... done (  0.0 sec) ENN=    877.506055215617 Eh

SHARK setup successfully completed in   4.4 seconds

Maximum memory used throughout the entire GTOINT-calculation: 65.6 MB


           ************************************************************
           *        Program running with 4 parallel MPI-processes     *
           *              working on a common directory               *
           ************************************************************
-------------------------------------------------------------------------------
                                 ORCA SCF
-------------------------------------------------------------------------------

------------
SCF SETTINGS
------------
Hamiltonian:
 Density Functional     Method          .... DFT(GTOs)
 Exchange Functional    Exchange        .... WB97X-D3
 Correlation Functional Correlation     .... WB97X-D3
 Gradients option       PostSCFGGA      .... off
 Hybrid DFT is turned on
   Fraction HF Exchange ScalHFX         ....  0.195728
   Scaling of DF-GGA-X  ScalDFX         ....  0.000000
   Scaling of DF-GGA-C  ScalDFC         ....  1.000000
   Scaling of DF-LDA-C  ScalLDAC        ....  1.000000
   Perturbative correction              ....  0.000000
   Density functional embedding theory  .... OFF
 Long-range corrected/Screened/Range-Separated Hybrid DFT is turned on
   Amount of maximum screened exact exchange              ....  0.804272
   Range separation parameter mu (erf(mu*r12)/r12)        ....  0.250000
 RI-approximation to the Coulomb term is turned on
   Number of AuxJ basis functions       .... 1406
   RIJ-COSX (HFX calculated with COS-X)).... on


General Settings:
 Integral files         IntName         .... wb97x-d3-train-11
 Hartree-Fock type      HFTyp           .... RHF
 Total Charge           Charge          ....    0
 Multiplicity           Mult            ....    1
 Number of Electrons    NEL             ....  100
 Basis Dimension        Dim             ....  784
 Nuclear Repulsion      ENuc            ....    877.5060552156 Eh

Convergence Acceleration:
 DIIS                   CNVDIIS         .... on
   Start iteration      DIISMaxIt       ....    12
   Startup error        DIISStart       ....  0.200000
   # of expansion vecs  DIISMaxEq       ....     5
   Bias factor          DIISBfac        ....   1.050
   Max. coefficient     DIISMaxC        ....  10.000
 Trust-Rad. Augm. Hess. CNVTRAH         .... auto
   Auto Start mean grad. ratio tolernc. ....  1.125000
   Auto Start start iteration           ....    20
   Auto Start num. interpolation iter.  ....    10
   Max. Number of Micro iterations      ....    16
   Max. Number of Macro iterations      .... Maxiter - #DIIS iter
   Number of Davidson start vectors     ....     2
   Converg. threshold I  (grad. norm)   ....   1.000e-05
   Converg. threshold II (energy diff.) ....   1.000e-08
   Grad. Scal. Fac. for Micro threshold ....   0.100
   Minimum threshold for Micro iter.    ....   0.010
   NR start threshold (gradient norm)   ....   0.001
   Initial trust radius                 ....   0.400
   Minimum AH scaling param. (alpha)    ....   1.000
   Maximum AH scaling param. (alpha)    .... 1000.000
   Orbital update algorithm             .... Taylor
   White noise on init. David. guess    .... on
   Maximum white noise                  ....   0.010
   Quad. conv. algorithm                .... NR
 SOSCF                  CNVSOSCF        .... on
   Start iteration      SOSCFMaxIt      ....   150
   Startup grad/error   SOSCFStart      ....  0.003300
 Level Shifting         CNVShift        .... on
   Level shift para.    LevelShift      ....    0.2500
   Turn off err/grad.   ShiftErr        ....    0.0010
 Zerner damping         CNVZerner       .... off
 Static damping         CNVDamp         .... on
   Fraction old density DampFac         ....    0.7000
   Max. Damping (<1)    DampMax         ....    0.9800
   Min. Damping (>=0)   DampMin         ....    0.0000
   Turn off err/grad.   DampErr         ....    0.1000
 Fernandez-Rico         CNVRico         .... off

SCF Procedure:
 Maximum # iterations   MaxIter         ....   125
 SCF integral mode      SCFMode         .... Direct
   Integral package                     .... SHARK and LIBINT hybrid scheme
 Reset frequency        DirectResetFreq ....    20
 Integral Threshold     Thresh          ....  2.500e-11 Eh
 Primitive CutOff       TCut            ....  2.500e-12 Eh

Convergence Tolerance:
 Convergence Check Mode ConvCheckMode   .... Total+1el-Energy
 Convergence forced     ConvForced      .... 0
 Energy Change          TolE            ....  1.000e-08 Eh
 1-El. energy change                    ....  1.000e-05 Eh
 Orbital Gradient       TolG            ....  1.000e-05
 Orbital Rotation angle TolX            ....  1.000e-05
 DIIS Error             TolErr          ....  5.000e-07


Diagonalization of the overlap matrix:
Smallest eigenvalue                        ... 2.237e-06
Time for diagonalization                   ...    0.171 sec
Threshold for overlap eigenvalues          ... 1.000e-08
Number of eigenvalues below threshold      ... 0
Time for construction of square roots      ...    0.094 sec
Total time needed                          ...    0.269 sec

Time for model grid setup =    0.423 sec

------------------------------
INITIAL GUESS: MODEL POTENTIAL
------------------------------
Loading Hartree-Fock densities                     ... done
Calculating cut-offs                               ... done
Initializing the effective Hamiltonian             ... done
Setting up the integral package (SHARK)            ... done
Starting the Coulomb interaction                   ... done (   1.1 sec)
Reading the grid                                   ... done
Mapping shells                                     ... done
Starting the XC term evaluation                    ... done (   1.2 sec)
  promolecular density results
     # of electrons  =     99.994489530
     EX              =    -83.313055704
     EC              =     -3.371210617
     EX+EC           =    -86.684266321
Transforming the Hamiltonian                       ... done (   0.1 sec)
Diagonalizing the Hamiltonian                      ... done (   0.1 sec)
Back transforming the eigenvectors                 ... done (   0.0 sec)
Now organizing SCF variables                       ... done
                      ------------------
                      INITIAL GUESS DONE (   3.0 sec)
                      ------------------
-------------------
DFT GRID GENERATION
-------------------

General Integration Accuracy     IntAcc      ... 4.388
Radial Grid Type                 RadialGrid  ... OptM3 with GC (2021)
Angular Grid (max. ang.)         AngularGrid ... 4 (Lebedev-302)
Angular grid pruning method      GridPruning ... 4 (adaptive)
Weight generation scheme         WeightScheme... Becke
Basis function cutoff            BFCut       ... 1.0000e-11
Integration weight cutoff        WCut        ... 1.0000e-14
Angular grids for H and He will be reduced by one unit
Partially contracted basis set               ... off
Rotationally invariant grid construction     ... off

Total number of grid points                  ...   119168
Total number of batches                      ...     1874
Average number of points per batch           ...       63
Average number of grid points per atom       ...     4965
Time for grid setup =    1.330 sec

--------------------
COSX GRID GENERATION
--------------------

GRIDX 1
-------
General Integration Accuracy     IntAcc      ... 3.816
Radial Grid Type                 RadialGrid  ... OptM3 with GC (2021)
Angular Grid (max. ang.)         AngularGrid ... 1 (Lebedev-50)
Angular grid pruning method      GridPruning ... 4 (adaptive)
Weight generation scheme         WeightScheme... Becke
Basis function cutoff            BFCut       ... 1.0000e-11
Integration weight cutoff        WCut        ... 1.0000e-14
Angular grids for H and He will be reduced by one unit
Partially contracted basis set               ... on
Rotationally invariant grid construction     ... off

Total number of grid points                  ...    15163
Total number of batches                      ...      248
Average number of points per batch           ...       61
Average number of grid points per atom       ...      632
UseSFitting                                  ... on

GRIDX 2
-------
General Integration Accuracy     IntAcc      ... 4.020
Radial Grid Type                 RadialGrid  ... OptM3 with GC (2021)
Angular Grid (max. ang.)         AngularGrid ... 2 (Lebedev-110)
Angular grid pruning method      GridPruning ... 4 (adaptive)
Weight generation scheme         WeightScheme... Becke
Basis function cutoff            BFCut       ... 1.0000e-11
Integration weight cutoff        WCut        ... 1.0000e-14
Angular grids for H and He will be reduced by one unit
Partially contracted basis set               ... on
Rotationally invariant grid construction     ... off

Total number of grid points                  ...    36140
Total number of batches                      ...      578
Average number of points per batch           ...       62
Average number of grid points per atom       ...     1506
UseSFitting                                  ... on

GRIDX 3
-------
General Integration Accuracy     IntAcc      ... 4.338
Radial Grid Type                 RadialGrid  ... OptM3 with GC (2021)
Angular Grid (max. ang.)         AngularGrid ... 3 (Lebedev-194)
Angular grid pruning method      GridPruning ... 4 (adaptive)
Weight generation scheme         WeightScheme... Becke
Basis function cutoff            BFCut       ... 1.0000e-11
Integration weight cutoff        WCut        ... 1.0000e-14
Angular grids for H and He will be reduced by one unit
Partially contracted basis set               ... on
Rotationally invariant grid construction     ... off

Total number of grid points                  ...    77948
Total number of batches                      ...     1231
Average number of points per batch           ...       63
Average number of grid points per atom       ...     3248
UseSFitting                                  ... on

Time for X-Grid setup             =    2.971 sec


--------------------
CPCM SOLVATION MODEL
--------------------
CPCM parameters:
  Epsilon                                         ...      24.8520
  Refrac                                          ...       1.3611
  Rsolv                                           ...       1.3000
  Surface type                                    ... GAUSSIAN VDW
  Epsilon function type                           ...         CPCM
Solvent:                                     ... ETHANOL
SMD-CDS solvent descriptors:
  Soln                                       ...    1.3611
  Soln25                                     ...    1.3593
  Sola                                       ...    0.3700
  Solb                                       ...    0.4800
  Solg                                       ...   31.6200
  Solc                                       ...    0.0000
  Solh                                       ...    0.0000
Radii:
 Radius for N  used is    3.5716 Bohr (=   1.8900 Ang.)
 Radius for C  used is    3.4960 Bohr (=   1.8500 Ang.)
 Radius for O  used is    3.0765 Bohr (=   1.6280 Ang.)
 Radius for H  used is    2.2677 Bohr (=   1.2000 Ang.)
Calculating surface                               ...        done! (  0.0s)
GEPOL surface points                              ...         1386
GEPOL Volume                                      ...    1319.5210
GEPOL Surface-area                                ...     760.5854
Calculating surface distance matrix               ...        done! (  0.0s)
Performing Cholesky decomposition & store         ...        done! (  0.1s)
Overall time for CPCM initialization              ...                 0.1s
 re-compute Schwartz prescreening matrix in partically contracted basis (1) ...done (   0.160 sec)
--------------
SCF ITERATIONS
--------------
ITER       Energy         Delta-E        Max-DP      RMS-DP      [F,P]     Damp
               ***  Starting incremental Fock matrix formation  ***
  0   -642.8970148278   0.000000000000 0.18899778  0.00105374  0.2911305 0.7000
  1   -643.0309297830  -0.133914955232 0.13667896  0.00075538  0.1428370 0.7000
                               ***Turning on DIIS***
  2   -643.0961280390  -0.065198255986 0.24875917  0.00148060  0.0607545 0.0000
  3   -643.2065532430  -0.110425203998 0.13954948  0.00066277  0.0654056 0.0000
  4   -643.2213970146  -0.014843771580 0.04811790  0.00021560  0.0118103 0.0000
                      *** Initiating the SOSCF procedure ***
                           *** Shutting down DIIS ***
                      *** Re-Reading the Fockian *** 
                      *** Removing any level shift *** 
ITER      Energy       Delta-E        Grad      Rot      Max-DP    RMS-DP
  5   -643.22212623  -0.0007292146  0.001856  0.001856  0.018633  0.000096
               *** Restarting incremental Fock matrix formation ***
  6   -643.22222782  -0.0001015928  0.001468  0.004755  0.011380  0.000110
  7   -643.22227584  -0.0000480134  0.000699  0.005914  0.016356  0.000093
  8   -643.22229317  -0.0000173389  0.000198  0.000549  0.007187  0.000060
  9   -643.22229730  -0.0000041286  0.000068  0.000286  0.003121  0.000017
 10   -643.22229771  -0.0000004053  0.000062  0.000312  0.000992  0.000009
 11   -643.22229796  -0.0000002517  0.000022  0.000147  0.001958  0.000010
 12   -643.22229799  -0.0000000258  0.000007  0.000047  0.001131  0.000007
 13   -643.22229801  -0.0000000242  0.000003  0.000015  0.000793  0.000006
                  ***Gradient check signals convergence***
              ***Rediagonalizing the Fockian in SOSCF/NRSCF***

               *****************************************************
               *                     SUCCESS                       *
               *           SCF CONVERGED AFTER  14 CYCLES          *
               *****************************************************

Old exchange energy                            =    -27.362599616 Eh
New exchange energy                            =    -27.362572501 Eh
Exchange energy change after final integration =      0.000027115 Eh
Total energy after final integration           =   -643.222270913 Eh
Final COS-X integration done in                =   104.487 sec

SMD CDS free energy correction energy :                 2.44712     Kcal/mol
Total Energy after SMD CDS correction =              -643.218371188 Eh

----------------
TOTAL SCF ENERGY
----------------

Total Energy       :         -643.21837119 Eh          -17502.86171 eV

Components:
Nuclear Repulsion  :          877.50605522 Eh           23878.15370 eV
Electronic Energy  :        -1520.72442640 Eh          -41381.01541 eV
One Electron Energy:        -2612.69841618 Eh          -71095.13831 eV
Two Electron Energy:         1091.97398978 Eh           29714.12290 eV
Max COSX asymmetry :            0.00002290 Eh               0.00062 eV
CPCM Dielectric    :           -0.03512814 Eh              -0.95589 eV
SMD CDS (Gcds)     :            0.00389973 Eh               0.10612 eV

Virial components:
Potential Energy   :        -1282.96601800 Eh          -34911.28021 eV
Kinetic Energy     :          639.74764682 Eh           17408.41850 eV
Virial Ratio       :            2.00542515


DFT components:
N(Alpha)           :       49.999971441596 electrons
N(Beta)            :       49.999971441596 electrons
N(Total)           :       99.999942883192 electrons
E(XC)              :      -61.402566746099 Eh       
DFET-embed. en.    :        0.000000000000 Eh       
CPCM Solvation Model Properties:
Surface-charge          :           -0.04321854
Charge-correction       :            0.00016295 Eh               0.00443 eV
Free-energy (cav+disp)  :            0.00389973 Eh               0.10612 eV

---------------
SCF CONVERGENCE
---------------

  Last Energy change         ...   -1.8741e-08  Tolerance :   1.0000e-08
  Last MAX-Density change    ...    3.7748e-15  Tolerance :   1.0000e-07
  Last RMS-Density change    ...    1.6499e-17  Tolerance :   5.0000e-09
  Last Orbital Gradient      ...    1.0930e-06  Tolerance :   1.0000e-05
  Last Orbital Rotation      ...    5.3388e-06  Tolerance :   1.0000e-05

             **** THE GBW FILE WAS UPDATED (wb97x-d3-train-11.gbw) ****
             **** DENSITY wb97x-d3-train-11.scfp WAS UPDATED ****
             **** ENERGY FILE WAS UPDATED (wb97x-d3-train-11.en.tmp) ****
             **** THE GBW FILE WAS UPDATED (wb97x-d3-train-11.gbw) ****
             **** DENSITY wb97x-d3-train-11.scfp WAS UPDATED ****
----------------
ORBITAL ENERGIES
----------------

  NO   OCC          E(Eh)            E(eV) 
   0   2.0000     -19.216303      -522.9022 
   1   2.0000     -14.476721      -393.9316 
   2   2.0000     -14.467507      -393.6809 
   3   2.0000     -14.437782      -392.8720 
   4   2.0000     -14.428529      -392.6202 
   5   2.0000     -10.390053      -282.7277 
   6   2.0000     -10.339837      -281.3613 
   7   2.0000     -10.329722      -281.0860 
   8   2.0000     -10.328524      -281.0534 
   9   2.0000     -10.328096      -281.0418 
  10   2.0000     -10.303385      -280.3694 
  11   2.0000     -10.293780      -280.1080 
  12   2.0000     -10.293242      -280.0933 
  13   2.0000     -10.287216      -279.9294 
  14   2.0000      -1.178324       -32.0638 
  15   2.0000      -1.159893       -31.5623 
  16   2.0000      -1.042570       -28.3698 
  17   2.0000      -1.028380       -27.9836 
  18   2.0000      -1.006312       -27.3831 
  19   2.0000      -0.945392       -25.7254 
  20   2.0000      -0.898582       -24.4517 
  21   2.0000      -0.871157       -23.7054 
  22   2.0000      -0.779385       -21.2081 
  23   2.0000      -0.760367       -20.6906 
  24   2.0000      -0.750274       -20.4160 
  25   2.0000      -0.691069       -18.8049 
  26   2.0000      -0.663310       -18.0496 
  27   2.0000      -0.638026       -17.3616 
  28   2.0000      -0.625150       -17.0112 
  29   2.0000      -0.616188       -16.7673 
  30   2.0000      -0.597102       -16.2480 
  31   2.0000      -0.588113       -16.0034 
  32   2.0000      -0.566553       -15.4167 
  33   2.0000      -0.549782       -14.9603 
  34   2.0000      -0.541323       -14.7301 
  35   2.0000      -0.523062       -14.2332 
  36   2.0000      -0.510824       -13.9002 
  37   2.0000      -0.498881       -13.5752 
  38   2.0000      -0.495872       -13.4934 
  39   2.0000      -0.485793       -13.2191 
  40   2.0000      -0.474492       -12.9116 
  41   2.0000      -0.465674       -12.6716 
  42   2.0000      -0.452165       -12.3040 
  43   2.0000      -0.431897       -11.7525 
  44   2.0000      -0.427475       -11.6322 
  45   2.0000      -0.404679       -11.0119 
  46   2.0000      -0.379286       -10.3209 
  47   2.0000      -0.375665       -10.2224 
  48   2.0000      -0.364544        -9.9197 
  49   2.0000      -0.283242        -7.7074 
  50   0.0000       0.025858         0.7036 
  51   0.0000       0.046544         1.2665 
  52   0.0000       0.056480         1.5369 
  53   0.0000       0.056857         1.5471 
  54   0.0000       0.061449         1.6721 
  55   0.0000       0.072936         1.9847 
  56   0.0000       0.076009         2.0683 
  57   0.0000       0.078578         2.1382 
  58   0.0000       0.082540         2.2460 
  59   0.0000       0.088061         2.3963 
  60   0.0000       0.092913         2.5283 
  61   0.0000       0.098742         2.6869 
  62   0.0000       0.099464         2.7065 
  63   0.0000       0.101385         2.7588 
  64   0.0000       0.108496         2.9523 
  65   0.0000       0.114071         3.1040 
  66   0.0000       0.114339         3.1113 
  67   0.0000       0.116871         3.1802 
  68   0.0000       0.121580         3.3084 
  69   0.0000       0.123766         3.3678 
  70   0.0000       0.132925         3.6171 
  71   0.0000       0.137387         3.7385 
  72   0.0000       0.142241         3.8706 
  73   0.0000       0.148926         4.0525 
  74   0.0000       0.154130         4.1941 
  75   0.0000       0.160593         4.3700 
  76   0.0000       0.162316         4.4168 
  77   0.0000       0.166448         4.5293 
  78   0.0000       0.169759         4.6194 
  79   0.0000       0.171060         4.6548 
  80   0.0000       0.174988         4.7617 
  81   0.0000       0.177711         4.8358 
  82   0.0000       0.182823         4.9749 
  83   0.0000       0.185535         5.0487 
  84   0.0000       0.186971         5.0877 
  85   0.0000       0.191026         5.1981 
  86   0.0000       0.193335         5.2609 
  87   0.0000       0.197854         5.3839 
  88   0.0000       0.203053         5.5253 
  89   0.0000       0.204094         5.5537 
  90   0.0000       0.210474         5.7273 
  91   0.0000       0.215412         5.8616 
  92   0.0000       0.218421         5.9435 
  93   0.0000       0.221091         6.0162 
  94   0.0000       0.225541         6.1373 
  95   0.0000       0.229707         6.2507 
  96   0.0000       0.231495         6.2993 
  97   0.0000       0.234567         6.3829 
  98   0.0000       0.241304         6.5662 
  99   0.0000       0.244735         6.6596 
 100   0.0000       0.248187         6.7535 
 101   0.0000       0.254420         6.9231 
 102   0.0000       0.260231         7.0813 
 103   0.0000       0.261672         7.1204 
 104   0.0000       0.266362         7.2481 
 105   0.0000       0.270011         7.3474 
 106   0.0000       0.273799         7.4504 
 107   0.0000       0.280180         7.6241 
 108   0.0000       0.284055         7.7295 
 109   0.0000       0.288876         7.8607 
 110   0.0000       0.296795         8.0762 
 111   0.0000       0.300390         8.1740 
 112   0.0000       0.304870         8.2959 
 113   0.0000       0.308748         8.4015 
 114   0.0000       0.313911         8.5420 
 115   0.0000       0.320975         8.7342 
 116   0.0000       0.324270         8.8238 
 117   0.0000       0.329936         8.9780 
 118   0.0000       0.335616         9.1326 
 119   0.0000       0.337146         9.1742 
 120   0.0000       0.345223         9.3940 
 121   0.0000       0.347668         9.4605 
 122   0.0000       0.354696         9.6518 
 123   0.0000       0.357298         9.7226 
 124   0.0000       0.359126         9.7723 
 125   0.0000       0.368858        10.0371 
 126   0.0000       0.374266        10.1843 
 127   0.0000       0.380069        10.3422 
 128   0.0000       0.383792        10.4435 
 129   0.0000       0.386715        10.5231 
 130   0.0000       0.390940        10.6380 
 131   0.0000       0.392742        10.6871 
 132   0.0000       0.398015        10.8305 
 133   0.0000       0.405661        11.0386 
 134   0.0000       0.406209        11.0535 
 135   0.0000       0.418499        11.3879 
 136   0.0000       0.425357        11.5745 
 137   0.0000       0.425954        11.5908 
 138   0.0000       0.428174        11.6512 
 139   0.0000       0.432533        11.7698 
 140   0.0000       0.437757        11.9120 
 141   0.0000       0.445735        12.1291 
 142   0.0000       0.448719        12.2103 
 143   0.0000       0.455583        12.3970 
 144   0.0000       0.458502        12.4765 
 145   0.0000       0.462842        12.5946 
 146   0.0000       0.466729        12.7003 
 147   0.0000       0.473175        12.8758 
 148   0.0000       0.478176        13.0118 
 149   0.0000       0.486423        13.2363 
 150   0.0000       0.487360        13.2617 
 151   0.0000       0.490916        13.3585 
 152   0.0000       0.495183        13.4746 
 153   0.0000       0.499817        13.6007 
 154   0.0000       0.506944        13.7946 
 155   0.0000       0.517628        14.0854 
 156   0.0000       0.518863        14.1190 
 157   0.0000       0.521487        14.1904 
 158   0.0000       0.524040        14.2599 
 159   0.0000       0.527226        14.3465 
 160   0.0000       0.530570        14.4375 
 161   0.0000       0.537313        14.6210 
 162   0.0000       0.539376        14.6772 
 163   0.0000       0.543555        14.7909 
 164   0.0000       0.544953        14.8289 
 165   0.0000       0.550593        14.9824 
 166   0.0000       0.558666        15.2021 
 167   0.0000       0.565605        15.3909 
 168   0.0000       0.568539        15.4707 
 169   0.0000       0.574687        15.6380 
 170   0.0000       0.579506        15.7692 
 171   0.0000       0.583384        15.8747 
 172   0.0000       0.588200        16.0057 
 173   0.0000       0.590761        16.0754 
 174   0.0000       0.597040        16.2463 
 175   0.0000       0.608140        16.5483 
 176   0.0000       0.617522        16.8036 
 177   0.0000       0.620535        16.8856 
 178   0.0000       0.625799        17.0288 
 179   0.0000       0.632576        17.2133 
 180   0.0000       0.637223        17.3397 
 181   0.0000       0.642640        17.4871 
 182   0.0000       0.646253        17.5854 
 183   0.0000       0.649721        17.6798 
 184   0.0000       0.654630        17.8134 
 185   0.0000       0.657530        17.8923 
 186   0.0000       0.665796        18.1172 
 187   0.0000       0.673049        18.3146 
 188   0.0000       0.673865        18.3368 
 189   0.0000       0.682313        18.5667 
 190   0.0000       0.692039        18.8313 
 191   0.0000       0.697281        18.9740 
 192   0.0000       0.704076        19.1589 
 193   0.0000       0.707389        19.2490 
 194   0.0000       0.714277        19.4365 
 195   0.0000       0.721103        19.6222 
 196   0.0000       0.727147        19.7867 
 197   0.0000       0.729964        19.8633 
 198   0.0000       0.733418        19.9573 
 199   0.0000       0.738961        20.1081 
 200   0.0000       0.745119        20.2757 
 201   0.0000       0.749925        20.4065 
 202   0.0000       0.752734        20.4829 
 203   0.0000       0.759758        20.6741 
 204   0.0000       0.760918        20.7056 
 205   0.0000       0.764594        20.8057 
 206   0.0000       0.777145        21.1472 
 207   0.0000       0.781356        21.2618 
 208   0.0000       0.785213        21.3667 
 209   0.0000       0.794257        21.6128 
 210   0.0000       0.797701        21.7065 
 211   0.0000       0.805456        21.9176 
 212   0.0000       0.810657        22.0591 
 213   0.0000       0.816747        22.2248 
 214   0.0000       0.824634        22.4394 
 215   0.0000       0.828187        22.5361 
 216   0.0000       0.828911        22.5558 
 217   0.0000       0.832385        22.6503 
 218   0.0000       0.844098        22.9691 
 219   0.0000       0.845193        22.9989 
 220   0.0000       0.855190        23.2709 
 221   0.0000       0.859499        23.3882 
 222   0.0000       0.865725        23.5576 
 223   0.0000       0.871026        23.7018 
 224   0.0000       0.873073        23.7575 
 225   0.0000       0.876449        23.8494 
 226   0.0000       0.885497        24.0956 
 227   0.0000       0.896213        24.3872 
 228   0.0000       0.899895        24.4874 
 229   0.0000       0.911739        24.8097 
 230   0.0000       0.914562        24.8865 
 231   0.0000       0.920412        25.0457 
 232   0.0000       0.924399        25.1542 
 233   0.0000       0.930438        25.3185 
 234   0.0000       0.945435        25.7266 
 235   0.0000       0.951872        25.9018 
 236   0.0000       0.958978        26.0951 
 237   0.0000       0.963563        26.2199 
 238   0.0000       0.964301        26.2400 
 239   0.0000       0.976532        26.5728 
 240   0.0000       0.987649        26.8753 
 241   0.0000       0.990202        26.9448 
 242   0.0000       0.991431        26.9782 
 243   0.0000       0.997358        27.1395 
 244   0.0000       1.007673        27.4202 
 245   0.0000       1.014942        27.6180 
 246   0.0000       1.029902        28.0251 
 247   0.0000       1.031316        28.0635 
 248   0.0000       1.037736        28.2382 
 249   0.0000       1.050621        28.5888 
 250   0.0000       1.056620        28.7521 
 251   0.0000       1.061041        28.8724 
 252   0.0000       1.064800        28.9747 
 253   0.0000       1.069633        29.1062 
 254   0.0000       1.075484        29.2654 
 255   0.0000       1.078376        29.3441 
 256   0.0000       1.090838        29.6832 
 257   0.0000       1.095878        29.8204 
 258   0.0000       1.101987        29.9866 
 259   0.0000       1.107076        30.1251 
 260   0.0000       1.113040        30.2874 
 261   0.0000       1.122441        30.5432 
[...]

                       ****Iteration    2****
   Time for densities:            0.092
   Time for RI-J (Direct):        4.764
   Time for K (COSX):            20.110
   Time for XC-Integration:       8.403
   Time for LR-CPCM terms:        4.801
   Time for Sigma-Completion:     0.059
   Size of expansion space: 50
   Lowest Energy          :     0.162459085690
   Maximum Energy change  :     0.004470278124 (vector 3)
   Maximum residual norm  :     0.001869220040

                       ****Iteration    3****
   Time for densities:            0.092
   Time for RI-J (Direct):        4.809
   Time for K (COSX):            20.040
   Time for XC-Integration:       8.398
   Time for LR-CPCM terms:        4.802
   Time for Sigma-Completion:     0.059
   Size of expansion space: 60
   Lowest Energy          :     0.162357220366
   Maximum Energy change  :     0.005732119339 (vector 3)
   Maximum residual norm  :     0.000759688844

                       ****Iteration    4****
   Time for densities:            0.092
   Time for RI-J (Direct):        4.784
   Time for K (COSX):            20.223
   Time for XC-Integration:       8.487
   Time for LR-CPCM terms:        4.789
   Time for Sigma-Completion:     0.057
   Size of expansion space: 70
   Lowest Energy          :     0.162349035952
   Maximum Energy change  :     0.001786819094 (vector 2)
   Maximum residual norm  :     0.000142394865
   Rebuilding the expansion space

                       ****Iteration    5****
   Time for densities:            0.182
   Time for RI-J (Direct):        6.243
   Time for K (COSX):            33.475
   Time for XC-Integration:      16.602
   Time for LR-CPCM terms:        7.686
   Time for Sigma-Completion:     0.115
   Size of expansion space: 20
   Lowest Energy          :     0.162348397179
   Maximum Energy change  :     0.000237094684 (vector 9)
   Maximum residual norm  :     0.000038678622

                       ****Iteration    6****
   Time for densities:            0.091
   Time for RI-J (Direct):        4.779
   Time for K (COSX):            20.276
   Time for XC-Integration:       8.636
   Time for LR-CPCM terms:        4.866
   Time for Sigma-Completion:     0.057
   Size of expansion space: 30
   Lowest Energy          :     0.162348282416
   Maximum Energy change  :     0.000084562254 (vector 9)
   Maximum residual norm  :     0.000013698043

                       ****Iteration    7****
   Time for densities:            0.093
   Time for RI-J (Direct):        4.703
   Time for K (COSX):            20.141
   Time for XC-Integration:       8.500
   Time for LR-CPCM terms:        4.787
   Time for Sigma-Completion:     0.061
   Size of expansion space: 40
   Lowest Energy          :     0.162348271066
   Maximum Energy change  :     0.000037045207 (vector 9)
   Maximum residual norm  :     0.000009563168

                       ****Iteration    8****
   Time for densities:            0.092
   Time for RI-J (Direct):        4.807
   Time for K (COSX):            20.207
   Time for XC-Integration:       8.559
   Time for LR-CPCM terms:        4.865
   Time for Sigma-Completion:     0.058
   Size of expansion space: 50
   Lowest Energy          :     0.162348270098
   Maximum Energy change  :     0.000024398480 (vector 9)
   Maximum residual norm  :     0.000004127103

                       ****Iteration    9****
   Time for densities:            0.093
   Time for RI-J (Direct):        4.736
   Time for K (COSX):            20.077
   Time for XC-Integration:       8.574
   Time for LR-CPCM terms:        4.833
   Time for Sigma-Completion:     0.059
   Size of expansion space: 60
   Lowest Energy          :     0.162348270054
   Maximum Energy change  :     0.000010805411 (vector 9)
   Maximum residual norm  :     0.000002376705

                       ****Iteration   10****
   Time for densities:            0.092
   Time for RI-J (Direct):        4.782
   Time for K (COSX):            20.335
   Time for XC-Integration:       8.611
   Time for LR-CPCM terms:        4.806
   Time for Sigma-Completion:     0.058
   Size of expansion space: 70
   Lowest Energy          :     0.162348270051
   Maximum Energy change  :     0.000005271201 (vector 9)
   Maximum residual norm  :     0.000000883875

      *** CONVERGENCE OF RESIDUAL NORM REACHED ***

Storing the converged CI vectors               ... wb97x-d3-train-11_job2.cis1

                 *** DAVIDSON DONE ***

Total time for solving the CIS problem:   503.843sec

------------------------------------
TD-DFT/TDA EXCITED STATES (SINGLETS)
------------------------------------

the weight of the individual excitations are printed if larger than 1.0e-02

STATE  1:  E=   0.162348 au      4.418 eV    35631.3 cm**-1 <S**2> =   0.000000
    49a ->  50a  :     0.955509 (c= -0.97750161)

STATE  2:  E=   0.194725 au      5.299 eV    42737.2 cm**-1 <S**2> =   0.000000
    45a ->  50a  :     0.021493 (c= -0.14660328)
    46a ->  50a  :     0.417248 (c= -0.64594708)
    47a ->  50a  :     0.431687 (c=  0.65702903)
    48a ->  50a  :     0.076918 (c= -0.27734116)

STATE  3:  E=   0.218650 au      5.950 eV    47988.2 cm**-1 <S**2> =   0.000000
    45a ->  61a  :     0.010307 (c= -0.10152196)
    48a ->  50a  :     0.013094 (c= -0.11443029)
    48a ->  53a  :     0.030554 (c= -0.17479796)
    48a ->  54a  :     0.017797 (c= -0.13340442)
    48a ->  55a  :     0.081773 (c=  0.28595966)
    48a ->  59a  :     0.013492 (c=  0.11615685)
    48a ->  60a  :     0.116498 (c= -0.34131788)
    48a ->  61a  :     0.155525 (c=  0.39436666)
    48a ->  62a  :     0.031922 (c=  0.17866692)
    48a ->  63a  :     0.035267 (c=  0.18779598)
    48a ->  66a  :     0.026086 (c=  0.16151071)
    48a ->  68a  :     0.016278 (c= -0.12758591)
    49a ->  51a  :     0.081614 (c= -0.28568078)
    49a ->  52a  :     0.016518 (c=  0.12852255)
    49a ->  53a  :     0.029148 (c=  0.17072865)
    49a ->  55a  :     0.041863 (c= -0.20460482)
    49a ->  60a  :     0.043529 (c=  0.20863711)
    49a ->  61a  :     0.068922 (c= -0.26253004)
    49a ->  62a  :     0.016119 (c= -0.12696110)

STATE  4:  E=   0.224786 au      6.117 eV    49334.9 cm**-1 <S**2> =   0.000000
    48a ->  55a  :     0.011757 (c=  0.10843162)
    48a ->  60a  :     0.014202 (c= -0.11917127)
    48a ->  61a  :     0.020550 (c=  0.14335309)
    49a ->  51a  :     0.610773 (c=  0.78151978)
    49a ->  52a  :     0.028430 (c= -0.16861285)
    49a ->  54a  :     0.068612 (c=  0.26193814)
    49a ->  58a  :     0.032769 (c=  0.18102234)
    49a ->  60a  :     0.019311 (c=  0.13896243)
    49a ->  62a  :     0.011400 (c=  0.10677269)
    49a ->  68a  :     0.010810 (c=  0.10397218)
    49a ->  73a  :     0.010759 (c= -0.10372591)
    49a ->  74a  :     0.021824 (c=  0.14773067)

STATE  5:  E=   0.240722 au      6.550 eV    52832.4 cm**-1 <S**2> =   0.000000
    48a ->  55a  :     0.011006 (c= -0.10490996)
    48a ->  60a  :     0.021396 (c=  0.14627508)
    48a ->  61a  :     0.025238 (c= -0.15886432)
    49a ->  52a  :     0.155732 (c=  0.39462927)
    49a ->  53a  :     0.090874 (c=  0.30145315)
    49a ->  54a  :     0.420293 (c=  0.64829992)
    49a ->  55a  :     0.020074 (c= -0.14168230)
    49a ->  59a  :     0.013307 (c=  0.11535450)
    49a ->  60a  :     0.030125 (c=  0.17356648)
    49a ->  61a  :     0.016539 (c= -0.12860221)
    49a ->  81a  :     0.018985 (c= -0.13778610)

STATE  6:  E=   0.244517 au      6.654 eV    53665.4 cm**-1 <S**2> =   0.000000
    45a ->  50a  :     0.385959 (c=  0.62125627)
    46a ->  50a  :     0.015387 (c= -0.12404364)
    47a ->  50a  :     0.052309 (c=  0.22871168)
    48a ->  50a  :     0.279419 (c=  0.52860093)
    49a ->  60a  :     0.044827 (c= -0.21172316)
    49a ->  61a  :     0.011798 (c= -0.10861929)
    49a ->  62a  :     0.035197 (c= -0.18760815)
    49a ->  70a  :     0.020280 (c= -0.14240646)
    49a ->  71a  :     0.010649 (c= -0.10319225)

STATE  7:  E=   0.250278 au      6.810 eV    54929.7 cm**-1 <S**2> =   0.000000
    48a ->  51a  :     0.013244 (c=  0.11508128)
    48a ->  60a  :     0.010115 (c=  0.10057216)
    49a ->  52a  :     0.060541 (c= -0.24605069)
    49a ->  53a  :     0.482735 (c=  0.69479098)
    49a ->  54a  :     0.043959 (c= -0.20966513)
    49a ->  56a  :     0.038261 (c= -0.19560523)
    49a ->  57a  :     0.038142 (c=  0.19529965)
    49a ->  59a  :     0.100254 (c= -0.31662954)
    49a ->  60a  :     0.022178 (c=  0.14892222)
    49a ->  73a  :     0.013596 (c=  0.11660111)
    49a ->  76a  :     0.011063 (c=  0.10517911)

STATE  8:  E=   0.254273 au      6.919 eV    55806.5 cm**-1 <S**2> =   0.000000
    49a ->  51a  :     0.020798 (c= -0.14421560)
    49a ->  52a  :     0.431761 (c= -0.65708526)
    49a ->  53a  :     0.049318 (c= -0.22207563)
    49a ->  54a  :     0.058922 (c=  0.24273832)
    49a ->  55a  :     0.076713 (c= -0.27697063)
    49a ->  56a  :     0.022969 (c= -0.15155495)
    49a ->  59a  :     0.069929 (c=  0.26444169)
    49a ->  60a  :     0.048039 (c=  0.21917763)
    49a ->  61a  :     0.050676 (c= -0.22511436)
    49a ->  67a  :     0.012888 (c= -0.11352744)
    49a ->  70a  :     0.013664 (c=  0.11689453)
    49a ->  78a  :     0.011457 (c= -0.10703592)

STATE  9:  E=   0.257090 au      6.996 eV    56424.7 cm**-1 <S**2> =   0.000000
    45a ->  50a  :     0.015108 (c=  0.12291403)
    48a ->  50a  :     0.047793 (c=  0.21861506)
    48a ->  51a  :     0.017324 (c= -0.13162238)
    49a ->  52a  :     0.039979 (c=  0.19994756)
    49a ->  53a  :     0.085435 (c= -0.29229275)
    49a ->  54a  :     0.038657 (c= -0.19661292)
    49a ->  55a  :     0.094590 (c= -0.30755452)
    49a ->  56a  :     0.027662 (c=  0.16631767)
    49a ->  57a  :     0.104682 (c=  0.32354626)
    49a ->  59a  :     0.043463 (c= -0.20847720)
    49a ->  60a  :     0.312410 (c=  0.55893621)
    49a ->  61a  :     0.020826 (c=  0.14431334)

STATE 10:  E=   0.262886 au      7.153 eV    57696.8 cm**-1 <S**2> =   0.000000
    45a ->  50a  :     0.012709 (c=  0.11273231)
    48a ->  50a  :     0.030975 (c=  0.17599789)
    48a ->  51a  :     0.026255 (c=  0.16203310)
    48a ->  52a  :     0.014827 (c=  0.12176532)
    48a ->  53a  :     0.026969 (c= -0.16422312)
    48a ->  55a  :     0.010337 (c=  0.10166930)
    49a ->  51a  :     0.070481 (c= -0.26548298)
    49a ->  52a  :     0.016655 (c= -0.12905276)
    49a ->  54a  :     0.013142 (c=  0.11463933)
    49a ->  55a  :     0.051552 (c=  0.22704992)
    49a ->  58a  :     0.073726 (c=  0.27152560)
    49a ->  61a  :     0.201533 (c=  0.44892374)
    49a ->  62a  :     0.217147 (c=  0.46599053)
    49a ->  66a  :     0.013055 (c=  0.11425908)
    49a ->  70a  :     0.014991 (c=  0.12243635)


-----------------------------
TD-DFT/TDA-EXCITATION SPECTRA
-----------------------------

Center of mass = (  0.1696, -0.2993, -0.0854)
Calculating the Dipole integrals                  ... done
Transforming integrals                            ... done
Calculating the Linear Momentum integrals         ... done
Transforming integrals                            ... done
Calculating angular momentum integrals            ... done
Transforming integrals                            ... done

-----------------------------------------------------------------------------
         ABSORPTION SPECTRUM VIA TRANSITION ELECTRIC DIPOLE MOMENTS
-----------------------------------------------------------------------------
State   Energy    Wavelength  fosc         T2        TX        TY        TZ  
        (cm-1)      (nm)                 (au**2)    (au)      (au)      (au) 
-----------------------------------------------------------------------------
   1   35631.3    280.7   0.105643924   0.97609   0.92159   0.11002  -0.33860
   2   42737.2    234.0   0.004700687   0.03621  -0.04508  -0.10834  -0.14980
   3   47988.2    208.4   0.000341381   0.00234   0.00928  -0.04665  -0.00894
   4   49334.9    202.7   0.000559707   0.00373  -0.01003  -0.00958   0.05952
   5   52832.4    189.3   0.017752397   0.11062   0.11027  -0.22362   0.22012
   6   53665.4    186.3   0.079419136   0.48720   0.08980  -0.59359   0.35607
   7   54929.7    182.1   0.002472355   0.01482   0.06049  -0.03267   0.10046
   8   55806.5    179.2   0.052512526   0.30978   0.09287  -0.53793   0.10857
   9   56424.7    177.2   0.150451370   0.87781  -0.23626  -0.86937  -0.25726
  10   57696.8    173.3   0.192239940   1.09690   0.18661  -0.99828   0.25596

-----------------------------------------------------------------------------
         ABSORPTION SPECTRUM VIA TRANSITION VELOCITY DIPOLE MOMENTS
-----------------------------------------------------------------------------
State   Energy    Wavelength   fosc        P2         PX        PY        PZ  
        (cm-1)      (nm)                 (au**2)     (au)      (au)      (au) 
-----------------------------------------------------------------------------
   1   35631.3    280.7   0.015571824   0.00379  -0.00407   0.05880   0.01784
   2   42737.2    234.0   0.000703592   0.00021  -0.01003  -0.00846  -0.00579
   3   47988.2    208.4   0.000550668   0.00018  -0.00374  -0.00640   0.01121
   4   49334.9    202.7   0.001145185   0.00039  -0.00911  -0.01618  -0.00643
   5   52832.4    189.3   0.009724326   0.00351  -0.00490   0.04095  -0.04255
   6   53665.4    186.3   0.007644127   0.00280  -0.02502   0.04662  -0.00209
   7   54929.7    182.1   0.002755953   0.00103  -0.02384  -0.00984  -0.01922
   8   55806.5    179.2   0.029563590   0.01128  -0.02076   0.10087  -0.02589
   9   56424.7    177.2   0.080439479   0.03102   0.05208   0.13444   0.10116
  10   57696.8    173.3   0.068688513   0.02709  -0.04414   0.15368  -0.03900

-------------------------------------------------------------------
                             CD SPECTRUM
-------------------------------------------------------------------
State  Energy     Wavelength     R         MX        MY        MZ   
       (cm-1)       (nm)     (1e40*cgs)   (au)      (au)      (au)  
-------------------------------------------------------------------
   1   35631.3    280.7    -45.07867  -0.33351  -0.21841  -0.69632
   2   42737.2    234.0     -5.59355  -0.24524   0.20359   0.00576
   3   47988.2    208.4     -6.54368  -0.23160   0.23455   0.08819
   4   49334.9    202.7      2.33375  -0.16182   0.30918   0.10565
   5   52832.4    189.3     -1.09009   0.32233   0.03283  -0.13862
   6   53665.4    186.3     28.69254   0.16577   0.16276   0.40046
   7   54929.7    182.1      0.60636   0.01685  -0.00506   0.00101
   8   55806.5    179.2     11.64622  -0.12583  -0.05474   0.06397
   9   56424.7    177.2    -28.51287   0.02262  -0.00844   0.24284
  10   57696.8    173.3     14.52825   0.00656   0.02230   0.20260

-------------------------------------------------------------------
         CD SPECTRUM VIA TRANSITION VELOCITY DIPOLE MOMENTS        
-------------------------------------------------------------------
State  Energy     Wavelength     R         MX        MY        MZ   
       (cm-1)       (nm)     (1e40*cgs)   (au)      (au)      (au)  
-------------------------------------------------------------------
   1   35631.3    280.7    -69.42986  -0.33351  -0.21841  -0.69632
   2   42737.2    234.0      1.70352  -0.24524   0.20359   0.00576
   3   47988.2    208.4      0.76596  -0.23160   0.23455   0.08819
   4   49334.9    202.7     -8.82649  -0.16182   0.30918   0.10565
   5   52832.4    189.3     11.09312   0.32233   0.03283  -0.13862
   6   53665.4    186.3      5.01992   0.16577   0.16276   0.40046
   7   54929.7    182.1     -0.69950   0.01685  -0.00506   0.00101
   8   55806.5    179.2     -8.46347  -0.12583  -0.05474   0.06397
   9   56424.7    177.2     45.13031   0.02262  -0.00844   0.24284
  10   57696.8    173.3     -8.54278   0.00656   0.02230   0.20260

Total run time:      506.687 sec

           *** ORCA-CIS/TD-DFT FINISHED WITHOUT ERROR ***

Maximum memory used throughout the entire CIS-calculation: 959.0 MB

-----------------------
CIS/TD-DFT TOTAL ENERGY
-----------------------

    E(SCF)  =   -643.226195481 Eh
    DE(CIS) =      0.162348270 Eh (Root  1)
    ----------------------------- ---------
    E(tot)  =   -643.063847211 Eh



-------------------------------------------------------------------------------
                          DFT DISPERSION CORRECTION                            
                                                                               
                              DFTD3 V3.1  Rev 1                                
                              USING zero damping                               
-------------------------------------------------------------------------------
The omegaB97X-D3 functional is recognized. Fit by Chai et al.
Active option DFTDOPT                   ...         3   

molecular C6(AA) [au] = 6494.576506 


            DFT-D V3
 parameters
 s6 scaling factor         :     1.0000 
 rs6 scaling factor        :     1.2810 
 s8 scaling factor         :     1.0000 
 rs8 scaling factor        :     1.0940 
 Damping factor alpha6     :    14.0000 
 Damping factor alpha8     :    16.0000 
 ad hoc parameters k1-k3   :    16.0000     1.3333    -4.0000 

 Edisp/kcal,au: -6.900804989322  -0.010997131579 
 E6   /kcal   :  -2.983605091 
 E8   /kcal   :  -3.917199898 
 % E8         :  56.764390594 

-------------------------   ----------------
Dispersion correction           -0.010997132
-------------------------   ----------------


-------------------------   --------------------
FINAL SINGLE POINT ENERGY      -643.074844342689
-------------------------   --------------------


                            ***************************************
                            *     ORCA property calculations      *
                            ***************************************

                                    ---------------------
                                    Active property flags
                                    ---------------------
   (+) Dipole Moment


------------------------------------------------------------------------------
                       ORCA ELECTRIC PROPERTIES CALCULATION
------------------------------------------------------------------------------

Dipole Moment Calculation                       ... on
Quadrupole Moment Calculation                   ... off
Polarizability Calculation                      ... off
GBWName                                         ... wb97x-d3-train-11_job2.gbw
Electron density                                ... wb97x-d3-train-11_job2.scfp
The origin for moment calculation is the CENTER OF MASS  = ( 0.169581, -0.299334 -0.085430)

-------------
DIPOLE MOMENT
-------------
                                X             Y             Z
Electronic contribution:     -0.17786      -1.11486       0.06181
Nuclear contribution   :     -0.95859       3.58557       1.00699
                        -----------------------------------------
Total Dipole Moment    :     -1.13645       2.47071       1.06880
                        -----------------------------------------
Magnitude (a.u.)       :      2.92203
Magnitude (Debye)      :      7.42722



--------------------
Rotational spectrum 
--------------------
 
Rotational constants in cm-1:     0.029398     0.022593     0.015013 
Rotational constants in MHz :   881.340112   677.327343   450.066545 

 Dipole components along the rotational axes: 
x,y,z [a.u.] :    -1.379228     2.493632     0.646377 
x,y,z [Debye]:    -3.505720     6.338310     1.642960 

 

Timings for individual modules:

Sum of individual times         ...      720.056 sec (=  12.001 min)
GTO integral calculation        ...        2.729 sec (=   0.045 min)   0.4 %
SCF iterations                  ...      210.016 sec (=   3.500 min)  29.2 %
CIS module                      ...      507.312 sec (=   8.455 min)  70.5 %



                             ****ORCA TERMINATED NORMALLY****
TOTAL RUN TIME: 0 days 5 hours 49 minutes 20 seconds 890 msec
