
                                 *****************
                                 * O   R   C   A *
                                 *****************

                                            #,                                       
                                            ###                                      
                                            ####                                     
                                            #####                                    
                                            ######                                   
                                           ########,                                 
                                     ,,################,,,,,                         
                               ,,#################################,,                 
                          ,,##########################################,,             
                       ,#########################################, ''#####,          
                    ,#############################################,,   '####,        
                  ,##################################################,,,,####,       
                ,###########''''           ''''###############################       
              ,#####''   ,,,,##########,,,,          '''####'''          '####       
            ,##' ,,,,###########################,,,                        '##       
           ' ,,###''''                  '''############,,,                           
         ,,##''                                '''############,,,,        ,,,,,,###''
      ,#''                                            '''#######################'''  
     '                                                          ''''####''''         
             ,#######,   #######,   ,#######,      ##                                
            ,#'     '#,  ##    ##  ,#'     '#,    #''#        ######   ,####,        
            ##       ##  ##   ,#'  ##            #'  '#       #        #'  '#        
            ##       ##  #######   ##           ,######,      #####,   #    #        
            '#,     ,#'  ##    ##  '#,     ,#' ,#      #,         ##   #,  ,#        
             '#######'   ##     ##  '#######'  #'      '#     #####' # '####'        



                  #######################################################
                  #                        -***-                        #
                  #          Department of theory and spectroscopy      #
                  #    Directorship and core code : Frank Neese         #
                  #        Max Planck Institute fuer Kohlenforschung    #
                  #                Kaiser Wilhelm Platz 1               #
                  #                 D-45470 Muelheim/Ruhr               #
                  #                      Germany                        #
                  #                                                     #
                  #                  All rights reserved                #
                  #                        -***-                        #
                  #######################################################


                         Program Version 5.0.2 -  RELEASE  -


 With contributions from (in alphabetic order):
   Daniel Aravena         : Magnetic Suceptibility
   Michael Atanasov       : Ab Initio Ligand Field Theory (pilot matlab implementation)
   Alexander A. Auer      : GIAO ZORA, VPT2 properties, NMR spectrum
   Ute Becker             : Parallelization
   Giovanni Bistoni       : ED, misc. LED, open-shell LED, HFLD
   Martin Brehm           : Molecular dynamics
   Dmytro Bykov           : SCF Hessian
   Vijay G. Chilkuri      : MRCI spin determinant printing, contributions to CSF-ICE
   Dipayan Datta          : RHF DLPNO-CCSD density
   Achintya Kumar Dutta   : EOM-CC, STEOM-CC
   Dmitry Ganyushin       : Spin-Orbit,Spin-Spin,Magnetic field MRCI
   Miquel Garcia          : C-PCM and meta-GGA Hessian, CC/C-PCM, Gaussian charge scheme
   Yang Guo               : DLPNO-NEVPT2, F12-NEVPT2, CIM, IAO-localization
   Andreas Hansen         : Spin unrestricted coupled pair/coupled cluster methods
   Benjamin Helmich-Paris : MC-RPA, TRAH-SCF, COSX integrals
   Lee Huntington         : MR-EOM, pCC
   Robert Izsak           : Overlap fitted RIJCOSX, COSX-SCS-MP3, EOM
   Marcus Kettner         : VPT2
   Christian Kollmar      : KDIIS, OOCD, Brueckner-CCSD(T), CCSD density, CASPT2, CASPT2-K
   Simone Kossmann        : Meta GGA functionals, TD-DFT gradient, OOMP2, MP2 Hessian
   Martin Krupicka        : Initial AUTO-CI
   Lucas Lang             : DCDCAS
   Marvin Lechner         : AUTO-CI (C++ implementation), FIC-MRCC
   Dagmar Lenk            : GEPOL surface, SMD
   Dimitrios Liakos       : Extrapolation schemes; Compound Job, initial MDCI parallelization
   Dimitrios Manganas     : Further ROCIS development; embedding schemes
   Dimitrios Pantazis     : SARC Basis sets
   Anastasios Papadopoulos: AUTO-CI, single reference methods and gradients
   Taras Petrenko         : DFT Hessian,TD-DFT gradient, ASA, ECA, R-Raman, ABS, FL, XAS/XES, NRVS
   Peter Pinski           : DLPNO-MP2, DLPNO-MP2 Gradient
   Christoph Reimann      : Effective Core Potentials
   Marius Retegan         : Local ZFS, SOC
   Christoph Riplinger    : Optimizer, TS searches, QM/MM, DLPNO-CCSD(T), (RO)-DLPNO pert. Triples
   Tobias Risthaus        : Range-separated hybrids, TD-DFT gradient, RPA, STAB
   Michael Roemelt        : Original ROCIS implementation
   Masaaki Saitow         : Open-shell DLPNO-CCSD energy and density
   Barbara Sandhoefer     : DKH picture change effects
   Avijit Sen             : IP-ROCIS
   Kantharuban Sivalingam : CASSCF convergence, NEVPT2, FIC-MRCI
   Bernardo de Souza      : ESD, SOC TD-DFT
   Georgi Stoychev        : AutoAux, RI-MP2 NMR, DLPNO-MP2 response
   Willem Van den Heuvel  : Paramagnetic NMR
   Boris Wezisla          : Elementary symmetry handling
   Frank Wennmohs         : Technical directorship


 We gratefully acknowledge several colleagues who have allowed us to
 interface, adapt or use parts of their codes:
   Stefan Grimme, W. Hujo, H. Kruse, P. Pracht,  : VdW corrections, initial TS optimization,
                  C. Bannwarth, S. Ehlert          DFT functionals, gCP, sTDA/sTD-DF
   Ed Valeev, F. Pavosevic, A. Kumar             : LibInt (2-el integral package), F12 methods
   Garnet Chan, S. Sharma, J. Yang, R. Olivares  : DMRG
   Ulf Ekstrom                                   : XCFun DFT Library
   Mihaly Kallay                                 : mrcc  (arbitrary order and MRCC methods)
   Jiri Pittner, Ondrej Demel                    : Mk-CCSD
   Frank Weinhold                                : gennbo (NPA and NBO analysis)
   Christopher J. Cramer and Donald G. Truhlar   : smd solvation model
   Lars Goerigk                                  : TD-DFT with DH, B97 family of functionals
   V. Asgeirsson, H. Jonsson                     : NEB implementation
   FAccTs GmbH                                   : IRC, NEB, NEB-TS, DLPNO-Multilevel, CI-OPT
                                                   MM, QMMM, 2- and 3-layer-ONIOM, Crystal-QMMM,
                                                   LR-CPCM, SF, NACMEs, symmetry and pop. for TD-DFT,
                                                   nearIR, NL-DFT gradient (VV10), updates on ESD,
                                                   ML-optimized integration grids
   S Lehtola, MJT Oliveira, MAL Marques          : LibXC Library
   Liviu Ungur et al                             : ANISO software


 Your calculation uses the libint2 library for the computation of 2-el integrals
 For citations please refer to: http://libint.valeyev.net

 Your ORCA version has been built with support for libXC version: 5.1.0
 For citations please refer to: https://tddft.org/programs/libxc/

 This ORCA versions uses:
   CBLAS   interface :  Fast vector & matrix operations
   LAPACKE interface :  Fast linear algebra routines
   SCALAPACK package :  Parallel linear algebra routines
   Shared memory     :  Shared parallel matrices
   BLAS/LAPACK       :  OpenBLAS 0.3.15  USE64BITINT DYNAMIC_ARCH NO_AFFINITY Sandybridge SINGLE_THREADED
        Core in use  :  Sandybridge
   Copyright (c) 2011-2014, The OpenBLAS Project


Your calculation utilizes the SMD solvation module
Please cite in your paper:
A.V. Marenich, C.J. Cramer, D.G. Truhlar J. Phys. Chem. B, 113, (2009), 6378 

================================================================================

----- Orbital basis set information -----
Your calculation utilizes the basis: aug-cc-pVTZ 
    H, B-Ne : Obtained from the ccRepo (grant-hill.group.shef.ac.uk/ccrepo) Feb. 2017
              R. A. Kendall, T. H. Dunning, Jr., R. J. Harrison, J. Chem. Phys. 96, 6796 (1992)
         He : Obtained from the ccRepo (grant-hill.group.shef.ac.uk/ccrepo) Feb. 2017
              D. E. Woon, T. H. Dunning, Jr., J. Chem. Phys. 100, 2975 (1994)
  Li-Be, Na : Obtained from the ccRepo (grant-hill.group.shef.ac.uk/ccrepo) Feb. 2017
              B. P. Prascher, D. E. Woon, K. A. Peterson, T. H. Dunning, Jr., A. K. Wilson, Theor. Chem. Acc. 128, 69 (2011)
         Mg : Obtained from the Peterson Research Group Website (tyr0.chem.wsu.edu/~kipeters) Feb. 2017
              B. P. Prascher, D. E. Woon, K. A. Peterson, T. H. Dunning, Jr., A. K. Wilson, Theor. Chem. Acc. 128, 69 (2011)
      Al-Ar : Obtained from the ccRepo (grant-hill.group.shef.ac.uk/ccrepo) Feb. 2017
              D. E. Woon, T. H. Dunning, Jr., J. Chem. Phys. 98, 1358 (1993)
      Sc-Zn : Obtained from the ccRepo (grant-hill.group.shef.ac.uk/ccrepo) Feb. 2017
              N. B. Balabanov, K. A. Peterson, J. Chem. Phys. 123, 064107 (2005)
              N. B. Balabanov, K. A. Peterson, J. Chem. Phys. 125, 074110 (2006)
      Ga-Kr : Obtained from the ccRepo (grant-hill.group.shef.ac.uk/ccrepo) Feb. 2017
              A. K. Wilson, D. E. Woon, K. A. Peterson, T. H. Dunning, Jr., J. Chem. Phys. 110, 7667 (1999)
     Ag, Au : Obtained from the Peterson Research Group Website (tyr0.chem.wsu.edu/~kipeters) Feb. 2017
              K. A. Peterson, C. Puzzarini, Theor. Chem. Acc. 114, 283 (2005)

The basis set includes element-specific modifications.

Your calculation utilizes the basis: cc-pVTZ 
       H, B-Ne : Obtained from the ccRepo (grant-hill.group.shef.ac.uk/ccrepo) Feb. 2017
                 T. H. Dunning, Jr., J. Chem. Phys. 90, 1007 (1989)
            He : Obtained from the ccRepo (grant-hill.group.shef.ac.uk/ccrepo) Feb. 2017
                 D. E. Woon, T. H. Dunning, Jr., J. Chem. Phys. 100, 2975 (1994)
  Li-Be, Na-Mg : Obtained from the ccRepo (grant-hill.group.shef.ac.uk/ccrepo) Feb. 2017
                 B. P. Prascher, D. E. Woon, K. A. Peterson, T. H. Dunning, Jr., A. K. Wilson, Theor. Chem. Acc. 128, 69 (2011)
         Al-Ar : Obtained from the ccRepo (grant-hill.group.shef.ac.uk/ccrepo) Feb. 2017
                 D. E. Woon, T. H. Dunning, Jr., J. Chem. Phys. 98, 1358 (1993)
            Ca : Obtained from the Peterson Research Group Website (tyr0.chem.wsu.edu/~kipeters) Feb. 2017
                 J. Koput, K. A. Peterson, J. Phys. Chem. 106, 9595 (2002)
         Sc-Zn : Obtained from the ccRepo (grant-hill.group.shef.ac.uk/ccrepo) Feb. 2017
                 N. B. Balabanov, K. A. Peterson, J. Chem. Phys. 123, 064107 (2005)
                 N. B. Balabanov, K. A. Peterson, J. Chem. Phys. 125, 074110 (2006)
         Ga-Kr : Obtained from the ccRepo (grant-hill.group.shef.ac.uk/ccrepo) Feb. 2017
                 A. K. Wilson, D. E. Woon, K. A. Peterson, T. H. Dunning, Jr., J. Chem. Phys. 110, 7667 (1999)
             Y : Obtained from the ccRepo (grant-hill.group.shef.ac.uk/ccrepo) Feb. 2017
                 K. A. Peterson, D. Figgen, M. Dolg, H. Stoll, J. Chem. Phys. 126, 124101 (2007)
        Ag, Au : Obtained from the Peterson Research Group Website (tyr0.chem.wsu.edu/~kipeters) Feb. 2017
                 K. A. Peterson, C. Puzzarini, Theor. Chem. Acc. 114, 283 (2005)

----- AuxJ basis set information -----
Your calculation utilizes the auxiliary basis: aug-cc-pVTZ/JK 
  H, B-F, Al-Cl, Ga-Br : Obtained from the TURBOMOLE 7.0 basis set library

The basis set includes element-specific modifications.

Your calculation utilizes the auxiliary basis: cc-pVTZ/JK 
  H, B-F, Al-Cl, Ga-Br : Obtained from the TURBOMOLE 7.0 basis set library

----- AuxC basis set information -----
Your calculation utilizes the auxiliary basis: aug-cc-pVTZ/C 
  H-He, B-F, Al-Ar, Ga-Kr : Obtained from the EMSL Basis Set Exchange (bse.pnl.gov) Feb. 2017
                            F. Weigend, A. Kohn, C. Hattig, J. Chem. Phys. 116, 3175 (2002)
                   Be, Mg : Obtained from the TURBOMOLE 7.0 basis set library
                            C. Haettig, Phys. Chem. Chem. Phys. 7, 59 (2005)
                       Ne : Obtained from the EMSL Basis Set Exchange (bse.pnl.gov) Feb. 2017
                            C. Haettig, Phys. Chem. Chem. Phys. 7, 59 (2005)
                            F. Weigend, A. Kohn, C. Hattig, J. Chem. Phys. 116, 3175 (2002)
                    Sc-Zn : Obtained from the EMSL Basis Set Exchange (bse.pnl.gov) Feb. 2017
                            J. G. Hill, J. A. Platts, J. Chem. Phys. 128, 044104 (2008)

The basis set includes element-specific modifications.

Your calculation utilizes the auxiliary basis: cc-pVTZ/C 
  Obtained from the EMSL Basis Set Exchange (bse.pnl.gov) Feb. 2017
  H-He, B-F, Al-Ar, Ga-Kr : F. Weigend, A. Kohn, C. Hattig, J. Chem. Phys. 116, 3175 (2002)
             Li-Be, Na-Mg : C. Haettig, Phys. Chem. Chem. Phys. 7, 59 (2005)
                       Ne : C. Haettig, Phys. Chem. Chem. Phys. 7, 59 (2005)
                            F. Weigend, A. Kohn, C. Hattig, J. Chem. Phys. 116, 3175 (2002)
                    Sc-Zn : J. G. Hill, J. A. Platts, J. Chem. Phys. 128, 044104 (2008)

================================================================================
                                        WARNINGS
                       Please study these warnings very carefully!
================================================================================


WARNING: Geometry Optimization
  ===> : Switching off AutoStart
         For restart on a previous wavefunction, please use MOREAD

INFO   : the flag for use of the SHARK integral package has been found!



***************************************
The coordinates will be read from file: 
***************************************


Your calculation utilizes the SMD solvation module
Please cite in your paper:
A.V. Marenich, C.J. Cramer, D.G. Truhlar J. Phys. Chem. B, 113, (2009), 6378 

================================================================================

----- Orbital basis set information -----
Your calculation utilizes the basis: aug-cc-pVTZ 
    H, B-Ne : Obtained from the ccRepo (grant-hill.group.shef.ac.uk/ccrepo) Feb. 2017
              R. A. Kendall, T. H. Dunning, Jr., R. J. Harrison, J. Chem. Phys. 96, 6796 (1992)
         He : Obtained from the ccRepo (grant-hill.group.shef.ac.uk/ccrepo) Feb. 2017
              D. E. Woon, T. H. Dunning, Jr., J. Chem. Phys. 100, 2975 (1994)
  Li-Be, Na : Obtained from the ccRepo (grant-hill.group.shef.ac.uk/ccrepo) Feb. 2017
              B. P. Prascher, D. E. Woon, K. A. Peterson, T. H. Dunning, Jr., A. K. Wilson, Theor. Chem. Acc. 128, 69 (2011)
         Mg : Obtained from the Peterson Research Group Website (tyr0.chem.wsu.edu/~kipeters) Feb. 2017
              B. P. Prascher, D. E. Woon, K. A. Peterson, T. H. Dunning, Jr., A. K. Wilson, Theor. Chem. Acc. 128, 69 (2011)
      Al-Ar : Obtained from the ccRepo (grant-hill.group.shef.ac.uk/ccrepo) Feb. 2017
              D. E. Woon, T. H. Dunning, Jr., J. Chem. Phys. 98, 1358 (1993)
      Sc-Zn : Obtained from the ccRepo (grant-hill.group.shef.ac.uk/ccrepo) Feb. 2017
              N. B. Balabanov, K. A. Peterson, J. Chem. Phys. 123, 064107 (2005)
              N. B. Balabanov, K. A. Peterson, J. Chem. Phys. 125, 074110 (2006)
      Ga-Kr : Obtained from the ccRepo (grant-hill.group.shef.ac.uk/ccrepo) Feb. 2017
              A. K. Wilson, D. E. Woon, K. A. Peterson, T. H. Dunning, Jr., J. Chem. Phys. 110, 7667 (1999)
     Ag, Au : Obtained from the Peterson Research Group Website (tyr0.chem.wsu.edu/~kipeters) Feb. 2017
              K. A. Peterson, C. Puzzarini, Theor. Chem. Acc. 114, 283 (2005)

The basis set includes element-specific modifications.

Your calculation utilizes the basis: cc-pVTZ 
       H, B-Ne : Obtained from the ccRepo (grant-hill.group.shef.ac.uk/ccrepo) Feb. 2017
                 T. H. Dunning, Jr., J. Chem. Phys. 90, 1007 (1989)
            He : Obtained from the ccRepo (grant-hill.group.shef.ac.uk/ccrepo) Feb. 2017
                 D. E. Woon, T. H. Dunning, Jr., J. Chem. Phys. 100, 2975 (1994)
  Li-Be, Na-Mg : Obtained from the ccRepo (grant-hill.group.shef.ac.uk/ccrepo) Feb. 2017
                 B. P. Prascher, D. E. Woon, K. A. Peterson, T. H. Dunning, Jr., A. K. Wilson, Theor. Chem. Acc. 128, 69 (2011)
         Al-Ar : Obtained from the ccRepo (grant-hill.group.shef.ac.uk/ccrepo) Feb. 2017
                 D. E. Woon, T. H. Dunning, Jr., J. Chem. Phys. 98, 1358 (1993)
            Ca : Obtained from the Peterson Research Group Website (tyr0.chem.wsu.edu/~kipeters) Feb. 2017
                 J. Koput, K. A. Peterson, J. Phys. Chem. 106, 9595 (2002)
         Sc-Zn : Obtained from the ccRepo (grant-hill.group.shef.ac.uk/ccrepo) Feb. 2017
                 N. B. Balabanov, K. A. Peterson, J. Chem. Phys. 123, 064107 (2005)
                 N. B. Balabanov, K. A. Peterson, J. Chem. Phys. 125, 074110 (2006)
         Ga-Kr : Obtained from the ccRepo (grant-hill.group.shef.ac.uk/ccrepo) Feb. 2017
                 A. K. Wilson, D. E. Woon, K. A. Peterson, T. H. Dunning, Jr., J. Chem. Phys. 110, 7667 (1999)
             Y : Obtained from the ccRepo (grant-hill.group.shef.ac.uk/ccrepo) Feb. 2017
                 K. A. Peterson, D. Figgen, M. Dolg, H. Stoll, J. Chem. Phys. 126, 124101 (2007)
        Ag, Au : Obtained from the Peterson Research Group Website (tyr0.chem.wsu.edu/~kipeters) Feb. 2017
                 K. A. Peterson, C. Puzzarini, Theor. Chem. Acc. 114, 283 (2005)

----- AuxJ basis set information -----
Your calculation utilizes the auxiliary basis: aug-cc-pVTZ/JK 
  H, B-F, Al-Cl, Ga-Br : Obtained from the TURBOMOLE 7.0 basis set library

The basis set includes element-specific modifications.

Your calculation utilizes the auxiliary basis: cc-pVTZ/JK 
  H, B-F, Al-Cl, Ga-Br : Obtained from the TURBOMOLE 7.0 basis set library

----- AuxC basis set information -----
Your calculation utilizes the auxiliary basis: aug-cc-pVTZ/C 
  H-He, B-F, Al-Ar, Ga-Kr : Obtained from the EMSL Basis Set Exchange (bse.pnl.gov) Feb. 2017
                            F. Weigend, A. Kohn, C. Hattig, J. Chem. Phys. 116, 3175 (2002)
                   Be, Mg : Obtained from the TURBOMOLE 7.0 basis set library
                            C. Haettig, Phys. Chem. Chem. Phys. 7, 59 (2005)
                       Ne : Obtained from the EMSL Basis Set Exchange (bse.pnl.gov) Feb. 2017
                            C. Haettig, Phys. Chem. Chem. Phys. 7, 59 (2005)
                            F. Weigend, A. Kohn, C. Hattig, J. Chem. Phys. 116, 3175 (2002)
                    Sc-Zn : Obtained from the EMSL Basis Set Exchange (bse.pnl.gov) Feb. 2017
                            J. G. Hill, J. A. Platts, J. Chem. Phys. 128, 044104 (2008)

The basis set includes element-specific modifications.

Your calculation utilizes the auxiliary basis: cc-pVTZ/C 
  Obtained from the EMSL Basis Set Exchange (bse.pnl.gov) Feb. 2017
  H-He, B-F, Al-Ar, Ga-Kr : F. Weigend, A. Kohn, C. Hattig, J. Chem. Phys. 116, 3175 (2002)
             Li-Be, Na-Mg : C. Haettig, Phys. Chem. Chem. Phys. 7, 59 (2005)
                       Ne : C. Haettig, Phys. Chem. Chem. Phys. 7, 59 (2005)
                            F. Weigend, A. Kohn, C. Hattig, J. Chem. Phys. 116, 3175 (2002)
                    Sc-Zn : J. G. Hill, J. A. Platts, J. Chem. Phys. 128, 044104 (2008)

================================================================================
                                        WARNINGS
                       Please study these warnings very carefully!
================================================================================

INFO   : Checking CIS options ...

INFO   : the flag for use of the SHARK integral package has been found!

================================================================================
                                       INPUT FILE
================================================================================
NAME = x3lyp-train-11.inp
|  1> ! x3lyp aug-cc-PVTZ RIJCOSX Opt
|  2> %maxcore 4000
|  3> %basis
|  4>  AuxJ "aug-cc-PVTZ/JK"
|  5>  AuxC "aug-cc-PVTZ/C"
|  6>  newGTO H "cc-PVTZ" end
|  7>  newAuxJGTO H "cc-PVTZ/JK" end
|  8>  newAuxCGTO H "cc-PVTZ/C" end
|  9> end
| 10> %cpcm
| 11>  SMD true
| 12>  SMDsolvent "ethanol"
| 13> end
| 14> %pal nprocs 4 end
| 15> * xyz 0 1
| 16> N         -2.13160       -3.53150       -0.43250
| 17> C         -1.57570       -2.55260       -0.63200
| 18> C         -0.89460       -1.30680       -0.85160
| 19> C          0.62070       -1.46820       -1.05290
| 20> C          1.21490       -0.12200       -0.62600
| 21> C          2.51050       -0.27790        0.19930
| 22> N          2.91190        0.89490        0.72050
| 23> O          3.09230       -1.32760        0.33320
| 24> N          0.18610        0.51360        0.17560
| 25> N          0.17690        1.82820        0.27800
| 26> C         -0.90910        2.43540        0.60720
| 27> C         -2.17820        1.75380        0.67270
| 28> C         -2.22420        0.42980        0.50170
| 29> C         -0.96120       -0.36810        0.38090
| 30> H         -1.34710       -0.80480       -1.71590
| 31> H          1.01430       -2.25180       -0.40120
| 32> H          0.87550       -1.71890       -2.08030
| 33> H          1.45630        0.51580       -1.48700
| 34> H          3.70900        0.91340        1.33490
| 35> H          2.30520        1.70030        0.66600
| 36> H         -0.83820        3.50140        0.74460
| 37> H         -3.07550        2.34250        0.77660
| 38> H         -3.14950       -0.12280        0.43620
| 39> H         -0.78870       -0.97630        1.28840
| 40> *
| 41> 
| 42> 
| 43> $new_job
| 44> ! x3lyp aug-cc-PVTZ RIJCOSX SP
| 45> %maxcore 4000
| 46> %basis
| 47>  AuxJ "aug-cc-PVTZ/JK"
| 48>  AuxC "aug-cc-PVTZ/C"
| 49>  newGTO H "cc-PVTZ" end
| 50>  newAuxJGTO H "cc-PVTZ/JK" end
| 51>  newAuxCGTO H "cc-PVTZ/C" end
| 52> end
| 53> %cpcm
| 54>  SMD true
| 55>  SMDsolvent "ethanol"
| 56> end
| 57> %pal nprocs 4 end
| 58> %tddft
| 59>  nroots 10
| 60>  maxdim 7
| 61> end
| 62> * xyzfile 0 1
| 63> 
| 64>                          ****END OF INPUT****
================================================================================


                 $$$$$$$$$$$$$$$$$$$$$$$$$$$$$$$$$$$$$$$$$$$$$$ 
                 $ THERE ARE  2 JOBS TO BE PROCESSED THIS RUN $
                 $$$$$$$$$$$$$$$$$$$$$$$$$$$$$$$$$$$$$$$$$$$$$$ 




                 $$$$$$$$$$$$$$$$  JOB NUMBER  1 $$$$$$$$$$$$$$


                       *****************************
                       * Geometry Optimization Run *
                       *****************************

Geometry optimization settings:
Update method            Update   .... BFGS
Choice of coordinates    CoordSys .... Z-matrix Internals
Initial Hessian          InHess   .... Almoef's Model

Convergence Tolerances:
Energy Change            TolE     ....  5.0000e-06 Eh
Max. Gradient            TolMAXG  ....  3.0000e-04 Eh/bohr
RMS Gradient             TolRMSG  ....  1.0000e-04 Eh/bohr
Max. Displacement        TolMAXD  ....  4.0000e-03 bohr
RMS Displacement         TolRMSD  ....  2.0000e-03 bohr
Strict Convergence                ....  False
------------------------------------------------------------------------------
                        ORCA OPTIMIZATION COORDINATE SETUP
------------------------------------------------------------------------------

The optimization will be done in new redundant internal coordinates
Making redundant internal coordinates   ...  (new redundants) done
Evaluating the initial hessian          ...  (Almloef) done
Evaluating the coordinates              ...  done
Calculating the B-matrix                .... done
Calculating the G-matrix                .... done
Diagonalizing the G-matrix              .... done
Small eigenvalue found = 2.354e-02
The first mode is                       ....   71
The number of degrees of freedom        ....   66

    -----------------------------------------------------------------
                    Redundant Internal Coordinates


    -----------------------------------------------------------------
         Definition                    Initial Value    Approx d2E/dq
    -----------------------------------------------------------------
      1. B(C   1,N   0)                  1.1433         1.385207   
      2. B(C   2,C   1)                  1.4367         0.526276   
      3. B(C   3,C   2)                  1.5371         0.363944   
      4. B(C   4,C   3)                  1.5322         0.370597   
      5. B(C   5,C   4)                  1.5440         0.354818   
      6. B(N   6,C   5)                  1.3447         0.660908   
      7. B(O   7,C   5)                  1.2076         1.093674   
      8. B(N   8,C   4)                  1.4509         0.447492   
      9. B(N   9,N   8)                  1.3186         0.651484   
     10. B(C  10,N   9)                  1.2870         0.816862   
     11. B(C  11,C  10)                  1.4420         0.516071   
     12. B(C  12,C  11)                  1.3358         0.762480   
     13. B(C  13,C  12)                  1.4988         0.418941   
     14. B(C  13,N   8)                  1.4615         0.430407   
     15. B(C  13,C   2)                  1.5507         0.346228   
     16. B(H  14,C   2)                  1.0972         0.350743   
     17. B(H  15,C   3)                  1.0925         0.356744   
     18. B(H  16,C   3)                  1.0878         0.363013   
     19. B(H  17,C   4)                  1.0984         0.349215   
     20. B(H  18,N   6)                  1.0066         0.438183   
     21. B(H  19,N   6)                  1.0098         0.433004   
     22. B(H  20,C  10)                  1.0772         0.377500   
     23. B(H  21,C  11)                  1.0782         0.376056   
     24. B(H  22,C  12)                  1.0797         0.373933   
     25. B(H  23,C  13)                  1.1060         0.339553   
     26. L(N   0,C   1,C   2,C  13, 2) 180.6772         0.484570   
     27. L(N   0,C   1,C   2,C  13, 1) 178.4979         0.484570   
     28. A(C   1,C   2,C   3)          113.3477         0.383732   
     29. A(C  13,C   2,H  14)          109.3556         0.318930   
     30. A(C   3,C   2,C  13)          102.1217         0.357082   
     31. A(C   3,C   2,H  14)          110.5762         0.321542   
     32. A(C   1,C   2,H  14)          108.7617         0.341788   
     33. A(C   1,C   2,C  13)          112.5232         0.380422   
     34. A(C   2,C   3,H  16)          112.2591         0.323359   
     35. A(C   2,C   3,H  15)          110.6305         0.322437   
     36. A(C   4,C   3,H  16)          112.0120         0.324322   
     37. A(C   2,C   3,C   4)          104.6886         0.361241   
     38. A(H  15,C   3,H  16)          108.2819         0.290780   
     39. A(C   4,C   3,H  15)          108.9204         0.323396   
     40. A(C   3,C   4,H  17)          112.1495         0.322267   
     41. A(C   5,C   4,N   8)          110.1162         0.369157   
     42. A(C   3,C   4,C   5)          112.6829         0.359681   
     43. A(C   3,C   4,N   8)          105.2988         0.371930   
     44. A(N   8,C   4,H  17)          109.5460         0.330434   
     45. A(C   5,C   4,H  17)          107.0505         0.319981   
     46. A(C   4,C   5,O   7)          123.4565         0.431961   
     47. A(C   4,C   5,N   6)          111.6903         0.395009   
     48. A(N   6,C   5,O   7)          124.8432         0.480559   
     49. A(C   5,N   6,H  19)          119.6929         0.362639   
     50. A(H  18,N   6,H  19)          119.6075         0.303901   
     51. A(C   5,N   6,H  18)          119.2745         0.363377   
     52. A(C   4,N   8,N   9)          118.9867         0.405143   
     53. A(N   9,N   8,C  13)          125.8087         0.402369   
     54. A(C   4,N   8,C  13)          111.7148         0.379267   
     55. A(N   8,N   9,C  10)          119.7421         0.451276   
     56. A(N   9,C  10,C  11)          122.0885         0.438449   
     57. A(C  11,C  10,H  20)          121.3257         0.344893   
     58. A(N   9,C  10,H  20)          116.3583         0.370585   
     59. A(C  10,C  11,C  12)          119.5369         0.435897   
     60. A(C  12,C  11,H  21)          121.6590         0.368286   
     61. A(C  10,C  11,H  21)          118.6016         0.344671   
     62. A(C  13,C  12,H  22)          116.4104         0.332572   
     63. A(C  11,C  12,H  22)          122.9939         0.367928   
     64. A(C  11,C  12,C  13)          120.5945         0.419906   
     65. A(N   8,C  13,H  23)          108.9407         0.326801   
     66. A(N   8,C  13,C  12)          110.5902         0.377340   
     67. A(C   2,C  13,H  23)          108.2146         0.317249   
     68. A(C   2,C  13,C  12)          114.9932         0.365758   
     69. A(C  12,C  13,H  23)          110.9804         0.327313   
     70. A(C   2,C  13,N   8)          102.6995         0.365164   
     71. D(H  15,C   3,C   2,H  14)   -159.8993         0.010611   
     72. D(H  16,C   3,C   2,C  13)   -155.0941         0.010611   
     73. D(H  15,C   3,C   2,C   1)    -37.4717         0.010611   
     74. D(C   4,C   3,C   2,C  13)    -33.3617         0.010611   
     75. D(H  16,C   3,C   2,C   1)     83.6108         0.010611   
     76. D(H  15,C   3,C   2,C  13)     83.8234         0.010611   
     77. D(C   4,C   3,C   2,C   1)   -154.6568         0.010611   
     78. D(H  16,C   3,C   2,H  14)    -38.8168         0.010611   
     79. D(C   4,C   3,C   2,H  14)     82.9156         0.010611   
     80. D(N   8,C   4,C   3,C   2)     18.6015         0.010977   
     81. D(N   8,C   4,C   3,H  15)    -99.7514         0.010977   
     82. D(C   5,C   4,C   3,H  16)    -99.4524         0.010977   
     83. D(C   5,C   4,C   3,H  15)     20.3003         0.010977   
     84. D(N   8,C   4,C   3,H  16)    140.4959         0.010977   
     85. D(C   5,C   4,C   3,C   2)    138.6532         0.010977   
     86. D(H  17,C   4,C   3,H  16)     21.4283         0.010977   
     87. D(H  17,C   4,C   3,H  15)    141.1810         0.010977   
     88. D(H  17,C   4,C   3,C   2)   -100.4662         0.010977   
     89. D(O   7,C   5,C   4,H  17)   -113.9776         0.009490   
     90. D(O   7,C   5,C   4,N   8)    127.0092         0.009490   
     91. D(O   7,C   5,C   4,C   3)      9.7747         0.009490   
     92. D(N   6,C   5,C   4,H  17)     64.9176         0.009490   
     93. D(N   6,C   5,C   4,N   8)    -54.0957         0.009490   
     94. D(N   6,C   5,C   4,C   3)   -171.3302         0.009490   
     95. D(H  19,N   6,C   5,C   4)      9.2919         0.035752   
     96. D(H  19,N   6,C   5,O   7)   -171.8313         0.035752   
     97. D(H  18,N   6,C   5,O   7)     -5.5030         0.035752   
     98. D(H  18,N   6,C   5,C   4)    175.6202         0.035752   
     99. D(N   9,N   8,C   4,C   3)   -155.3766         0.017080   
    100. D(N   9,N   8,C   4,C   5)     82.8904         0.017080   
    101. D(N   9,N   8,C   4,H  17)    -34.5866         0.017080   
    102. D(C  13,N   8,C   4,H  17)    125.5643         0.017080   
    103. D(C  13,N   8,C   4,C   5)   -116.9587         0.017080   
    104. D(C  13,N   8,C   4,C   3)      4.7744         0.017080   
    105. D(C  10,N   9,N   8,C  13)      1.2417         0.036925   
    106. D(C  10,N   9,N   8,C   4)    158.3510         0.036925   
    107. D(H  20,C  10,N   9,N   8)    175.7116         0.051687   
    108. D(C  11,C  10,N   9,N   8)     -9.7034         0.051687   
    109. D(H  21,C  11,C  10,H  20)      5.3234         0.018158   
    110. D(H  21,C  11,C  10,N   9)   -168.9957         0.018158   
    111. D(C  12,C  11,C  10,H  20)   -179.7613         0.018158   
    112. D(C  12,C  11,C  10,N   9)      5.9196         0.018158   
    113. D(H  22,C  12,C  11,H  21)      1.3573         0.041595   
    114. D(H  22,C  12,C  11,C  10)   -173.3975         0.041595   
    115. D(C  13,C  12,C  11,H  21)   -179.0560         0.041595   
    116. D(C  13,C  12,C  11,C  10)      6.1891         0.041595   
    117. D(C   2,C  13,C  12,C  11)   -128.4578         0.012980   
    118. D(H  23,C  13,N   8,N   9)   -112.6742         0.015794   
    119. D(H  23,C  13,N   8,C   4)     88.8096         0.015794   
    120. D(C  12,C  13,N   8,C   4)   -148.9618         0.015794   
    121. D(C   2,C  13,N   8,N   9)    132.7377         0.015794   
    122. D(C   2,C  13,N   8,C   4)    -25.7785         0.015794   
    123. D(H  23,C  13,C   2,H  14)    163.3690         0.009675   
    124. D(H  23,C  13,C   2,C   3)    -79.4727         0.009675   
    125. D(H  23,C  13,C   2,C   1)     42.3899         0.009675   
    126. D(C  12,C  13,C   2,H  14)     38.6691         0.009675   
    127. D(C  12,C  13,C   2,C   3)    155.8273         0.009675   
    128. D(C  12,C  13,N   8,N   9)      9.5544         0.015794   
    129. D(C  12,C  13,C   2,C   1)    -82.3100         0.009675   
    130. D(N   8,C  13,C   2,H  14)    -81.5161         0.009675   
    131. D(N   8,C  13,C   2,C   3)     35.6422         0.009675   
    132. D(C   2,C  13,C  12,H  22)     51.1551         0.012980   
    133. D(N   8,C  13,C   2,C   1)    157.5049         0.009675   
    134. D(H  23,C  13,C  12,H  22)    -72.0830         0.012980   
    135. D(H  23,C  13,C  12,C  11)    108.3041         0.012980   
    136. D(N   8,C  13,C  12,H  22)    166.8914         0.012980   
    137. D(N   8,C  13,C  12,C  11)    -12.7215         0.012980   
    -----------------------------------------------------------------

Number of atoms                         .... 24
Number of degrees of freedom            .... 137

         *************************************************************
         *                GEOMETRY OPTIMIZATION CYCLE   1            *
         *************************************************************
---------------------------------
CARTESIAN COORDINATES (ANGSTROEM)
---------------------------------
  N     -2.131600   -3.531500   -0.432500
  C     -1.575700   -2.552600   -0.632000
  C     -0.894600   -1.306800   -0.851600
  C      0.620700   -1.468200   -1.052900
  C      1.214900   -0.122000   -0.626000
  C      2.510500   -0.277900    0.199300
  N      2.911900    0.894900    0.720500
  O      3.092300   -1.327600    0.333200
  N      0.186100    0.513600    0.175600
  N      0.176900    1.828200    0.278000
  C     -0.909100    2.435400    0.607200
  C     -2.178200    1.753800    0.672700
  C     -2.224200    0.429800    0.501700
  C     -0.961200   -0.368100    0.380900
  H     -1.347100   -0.804800   -1.715900
  H      1.014300   -2.251800   -0.401200
  H      0.875500   -1.718900   -2.080300
  H      1.456300    0.515800   -1.487000
  H      3.709000    0.913400    1.334900
  H      2.305200    1.700300    0.666000
  H     -0.838200    3.501400    0.744600
  H     -3.075500    2.342500    0.776600
  H     -3.149500   -0.122800    0.436200
  H     -0.788700   -0.976300    1.288400

----------------------------
CARTESIAN COORDINATES (A.U.)
----------------------------
  NO LB      ZA    FRAG     MASS         X           Y           Z
   0 N     7.0000    0    14.007   -4.028140   -6.673568   -0.817307
   1 C     6.0000    0    12.011   -2.977641   -4.823715   -1.194307
   2 C     6.0000    0    12.011   -1.690549   -2.469494   -1.609291
   3 C     6.0000    0    12.011    1.172953   -2.774496   -1.989693
   4 C     6.0000    0    12.011    2.295828   -0.230547   -1.182969
   5 C     6.0000    0    12.011    4.744157   -0.525155    0.376622
   6 N     7.0000    0    14.007    5.502694    1.691116    1.361548
   7 O     8.0000    0    15.999    5.843600   -2.508800    0.629657
   8 N     7.0000    0    14.007    0.351678    0.970563    0.331836
   9 N     7.0000    0    14.007    0.334293    3.454797    0.525344
  10 C     6.0000    0    12.011   -1.717950    4.602239    1.147442
  11 C     6.0000    0    12.011   -4.116201    3.314202    1.271219
  12 C     6.0000    0    12.011   -4.203129    0.812204    0.948076
  13 C     6.0000    0    12.011   -1.816405   -0.695608    0.719797
  14 H     1.0000    0     1.008   -2.545650   -1.520852   -3.242581
  15 H     1.0000    0     1.008    1.916749   -4.255285   -0.758158
  16 H     1.0000    0     1.008    1.654455   -3.248250   -3.931197
  17 H     1.0000    0     1.008    2.752008    0.974721   -2.810023
  18 H     1.0000    0     1.008    7.008994    1.726076    2.522595
  19 H     1.0000    0     1.008    4.356197    3.213101    1.258558
  20 H     1.0000    0     1.008   -1.583968    6.616687    1.407090
  21 H     1.0000    0     1.008   -5.811853    4.426683    1.467561
  22 H     1.0000    0     1.008   -5.951692   -0.232058    0.824299
  23 H     1.0000    0     1.008   -1.490427   -1.844940    2.434723

--------------------------------
INTERNAL COORDINATES (ANGSTROEM)
--------------------------------
 N      0   0   0     0.000000000000     0.00000000     0.00000000
 C      1   0   0     1.143271739352     0.00000000     0.00000000
 C      2   1   0     1.436711178351   178.44617550     0.00000000
 C      3   2   1     1.537109540664   113.34770437   130.35166312
 C      4   3   2     1.532178739573   104.68862019   205.34320223
 C      5   4   3     1.544022104764   112.68290263   138.65315362
 N      6   5   4     1.344704889558   111.69027248   188.66981177
 O      6   5   4     1.207597010596   123.45646494     9.77469348
 N      5   4   3     1.450854699824   105.29875111    18.60145888
 N      9   5   4     1.318614257469   118.98667030   204.62343772
 C     10   9   5     1.287035539525   119.74205503   158.35098435
 C     11  10   9     1.442041476519   122.08848126   350.29655202
 C     12  11  10     1.335789279789   119.53687988     5.91961133
 C      9   5   4     1.461451425809   111.71478375     4.77436528
 H      3   2   1     1.097166687427   108.76172160   253.78075429
 H      4   3   2     1.092548767790   110.63049577   322.52831671
 H      4   3   2     1.087807101466   112.25913614    83.61075005
 H      5   4   3     1.098355042780   112.14948605   259.53384786
 H      7   6   5     1.006577379042   119.27450213   175.62017245
 H      7   6   5     1.009813992773   119.69291382     9.29188625
 H     11  10   9     1.077154385406   116.35830241   175.71156159
 H     12  11  10     1.078197658131   118.60159958   191.00430300
 H     13  12  11     1.079739366699   122.99391327   186.60245147
 H     14   9   5     1.105992649162   108.94065924    88.80958397

---------------------------
INTERNAL COORDINATES (A.U.)
---------------------------
 N      0   0   0     0.000000000000     0.00000000     0.00000000
 C      1   0   0     2.160470484026     0.00000000     0.00000000
 C      2   1   0     2.714990660628   178.44617550     0.00000000
 C      3   2   1     2.904716069692   113.34770437   130.35166312
 C      4   3   2     2.895398206010   104.68862019   205.34320223
 C      5   4   3     2.917778922725   112.68290263   138.65315362
 N      6   5   4     2.541123972209   111.69027248   188.66981177
 O      6   5   4     2.282027630168   123.45646494     9.77469348
 N      5   4   3     2.741718042779   105.29875111    18.60145888
 N      9   5   4     2.491819822900   118.98667030   204.62343772
 C     10   9   5     2.432144694326   119.74205503   158.35098435
 C     11  10   9     2.725063464376   122.08848126   350.29655202
 C     12  11  10     2.524275911430   119.53687988     5.91961133
 C      9   5   4     2.761742952808   111.71478375     4.77436528
 H      3   2   1     2.073344562499   108.76172160   253.78075429
 H      4   3   2     2.064617959077   110.63049577   322.52831671
 H      4   3   2     2.055657508306   112.25913614    83.61075005
 H      5   4   3     2.075590228665   112.14948605   259.53384786
 H      7   6   5     1.902155578991   119.27450213   175.62017245
 H      7   6   5     1.908271892542   119.69291382     9.29188625
 H     11  10   9     2.035526792370   116.35830241   175.71156159
 H     12  11  10     2.037498292104   118.60159958   191.00430300
 H     13  12  11     2.040411699075   122.99391327   186.60245147
 H     14   9   5     2.090023213046   108.94065924    88.80958397

---------------------
BASIS SET INFORMATION
---------------------
There are 4 groups of distinct atoms

 Group   1 Type N   : 19s6p3d2f contracted to 5s4p3d2f pattern {88111/3111/111/11}
 Group   2 Type C   : 19s6p3d2f contracted to 5s4p3d2f pattern {88111/3111/111/11}
 Group   3 Type O   : 19s6p3d2f contracted to 5s4p3d2f pattern {88111/3111/111/11}
 Group   4 Type H   : 5s2p1d contracted to 3s2p1d pattern {311/11/1}

Atom   0N    basis set group =>   1
Atom   1C    basis set group =>   2
Atom   2C    basis set group =>   2
Atom   3C    basis set group =>   2
Atom   4C    basis set group =>   2
Atom   5C    basis set group =>   2
Atom   6N    basis set group =>   1
Atom   7O    basis set group =>   3
Atom   8N    basis set group =>   1
Atom   9N    basis set group =>   1
Atom  10C    basis set group =>   2
Atom  11C    basis set group =>   2
Atom  12C    basis set group =>   2
Atom  13C    basis set group =>   2
Atom  14H    basis set group =>   4
Atom  15H    basis set group =>   4
Atom  16H    basis set group =>   4
Atom  17H    basis set group =>   4
Atom  18H    basis set group =>   4
Atom  19H    basis set group =>   4
Atom  20H    basis set group =>   4
Atom  21H    basis set group =>   4
Atom  22H    basis set group =>   4
Atom  23H    basis set group =>   4
---------------------------------
AUXILIARY/J BASIS SET INFORMATION
---------------------------------
There are 4 groups of distinct atoms

 Group   1 Type N   : 10s7p5d2f1g contracted to 10s7p5d2f1g pattern {1111111111/1111111/11111/11/1}
 Group   2 Type C   : 10s7p5d2f1g contracted to 10s7p5d2f1g pattern {1111111111/1111111/11111/11/1}
 Group   3 Type O   : 10s7p5d2f1g contracted to 10s7p5d2f1g pattern {1111111111/1111111/11111/11/1}
 Group   4 Type H   : 4s3p2d1f contracted to 4s3p2d1f pattern {1111/111/11/1}

Atom   0N    basis set group =>   1
Atom   1C    basis set group =>   2
Atom   2C    basis set group =>   2
Atom   3C    basis set group =>   2
Atom   4C    basis set group =>   2
Atom   5C    basis set group =>   2
Atom   6N    basis set group =>   1
Atom   7O    basis set group =>   3
Atom   8N    basis set group =>   1
Atom   9N    basis set group =>   1
Atom  10C    basis set group =>   2
Atom  11C    basis set group =>   2
Atom  12C    basis set group =>   2
Atom  13C    basis set group =>   2
Atom  14H    basis set group =>   4
Atom  15H    basis set group =>   4
Atom  16H    basis set group =>   4
Atom  17H    basis set group =>   4
Atom  18H    basis set group =>   4
Atom  19H    basis set group =>   4
Atom  20H    basis set group =>   4
Atom  21H    basis set group =>   4
Atom  22H    basis set group =>   4
Atom  23H    basis set group =>   4
---------------------------------
AUXILIARY/C BASIS SET INFORMATION
---------------------------------
There are 4 groups of distinct atoms

 Group   1 Type N   : 9s7p6d4f2g contracted to 9s7p6d4f2g pattern {111111111/1111111/111111/1111/11}
 Group   2 Type C   : 9s7p6d4f2g contracted to 9s7p6d4f2g pattern {111111111/1111111/111111/1111/11}
 Group   3 Type O   : 9s7p6d4f2g contracted to 9s7p6d4f2g pattern {111111111/1111111/111111/1111/11}
 Group   4 Type H   : 4s3p2d1f contracted to 4s3p2d1f pattern {1111/111/11/1}

Atom   0N    basis set group =>   1
Atom   1C    basis set group =>   2
Atom   2C    basis set group =>   2
Atom   3C    basis set group =>   2
Atom   4C    basis set group =>   2
Atom   5C    basis set group =>   2
Atom   6N    basis set group =>   1
Atom   7O    basis set group =>   3
Atom   8N    basis set group =>   1
Atom   9N    basis set group =>   1
Atom  10C    basis set group =>   2
Atom  11C    basis set group =>   2
Atom  12C    basis set group =>   2
Atom  13C    basis set group =>   2
Atom  14H    basis set group =>   4
Atom  15H    basis set group =>   4
Atom  16H    basis set group =>   4
Atom  17H    basis set group =>   4
Atom  18H    basis set group =>   4
Atom  19H    basis set group =>   4
Atom  20H    basis set group =>   4
Atom  21H    basis set group =>   4
Atom  22H    basis set group =>   4
Atom  23H    basis set group =>   4


           ************************************************************
           *        Program running with 4 parallel MPI-processes     *
           *              working on a common directory               *
           ************************************************************
------------------------------------------------------------------------------
                           ORCA GTO INTEGRAL CALCULATION
                           -- RI-GTO INTEGRALS CHOSEN --
------------------------------------------------------------------------------
------------------------------------------------------------------------------
                   ___                                                        
                  /   \      - P O W E R E D   B Y -                         
                 /     \                                                     
                 |  |  |   _    _      __       _____    __    __             
                 |  |  |  | |  | |    /  \     |  _  \  |  |  /  |          
                  \  \/   | |  | |   /    \    | | | |  |  | /  /          
                 / \  \   | |__| |  /  /\  \   | |_| |  |  |/  /          
                |  |  |   |  __  | /  /__\  \  |    /   |      \           
                |  |  |   | |  | | |   __   |  |    \   |  |\   \          
                \     /   | |  | | |  |  |  |  | |\  \  |  | \   \       
                 \___/    |_|  |_| |__|  |__|  |_| \__\ |__|  \__/        
                                                                              
                      - O R C A' S   B I G   F R I E N D -                    
                                      &                                       
                       - I N T E G R A L  F E E D E R -                       
                                                                              
 v1 FN, 2020, v2 2021                                                         
------------------------------------------------------------------------------


Reading SHARK input file x3lyp-train-11.SHARKINP.tmp ... ok
----------------------
SHARK INTEGRAL PACKAGE
----------------------

Number of atoms                             ...     24
Number of basis functions                   ...    868
Number of shells                            ...    340
Maximum angular momentum                    ...      3
Integral batch strategy                     ... SHARK/LIBINT Hybrid
RI-J (if used) integral strategy            ... SPLIT-RIJ (Revised 2003 algorithm where possible)
Printlevel                                  ...      1
Contraction scheme used                     ... PARTIAL GENERAL contraction
Coulomb Range Separation                    ... NOT USED
Exchange Range Separation                   ... NOT USED
Finite Nucleus Model                        ... NOT USED
Auxiliary Coulomb fitting basis             ... AVAILABLE
   # of basis functions in Aux-J            ...   1406
   # of shells in Aux-J                     ...    450
   Maximum angular momentum in Aux-J        ...      4
Auxiliary J/K fitting basis                 ... NOT available
Auxiliary Correlation fitting basis         ... AVAILABLE
   # of basis functions in Aux-C            ...   1784
   # of shells in Aux-C                     ...    492
   Maximum angular momentum in Aux-C        ...      4
Auxiliary 'external' fitting basis          ... NOT available
Integral threshold                          ...     2.500000e-11
Primitive cut-off                           ...     2.500000e-12
Primitive pair pre-selection threshold      ...     2.500000e-12

Calculating pre-screening integrals         ... done (  0.2 sec) Dimension = 340
Calculating pre-screening integrals (ORCA)  ... done (  0.4 sec) Dimension = 256
Organizing shell pair data                  ... done (  0.5 sec)
Shell pair information
Total number of shell pairs                 ...     57970
Shell pairs after pre-screening             ...     44162
Total number of primitive shell pairs       ...     75538
Primitive shell pairs kept                  ...     52854
          la=0 lb=0:  10218 shell pairs
          la=1 lb=0:  11182 shell pairs
          la=1 lb=1:   2670 shell pairs
          la=2 lb=0:   7447 shell pairs
          la=2 lb=1:   3565 shell pairs
          la=2 lb=2:   1234 shell pairs
          la=3 lb=0:   4159 shell pairs
          la=3 lb=1:   1964 shell pairs
          la=3 lb=2:   1339 shell pairs
          la=3 lb=3:    384 shell pairs

Calculating one electron integrals          ... done (  0.1 sec)
Calculating RI/J V-Matrix + Cholesky decomp.... done (  0.2 sec)
Calculating RI/C V-Matrix + Cholesky decomp.... done (  0.3 sec)
Calculating Nuclear repulsion               ... done (  0.0 sec) ENN=    877.506055215617 Eh

SHARK setup successfully completed in   3.8 seconds

Maximum memory used throughout the entire GTOINT-calculation: 65.6 MB


           ************************************************************
           *        Program running with 4 parallel MPI-processes     *
           *              working on a common directory               *
           ************************************************************
-------------------------------------------------------------------------------
                                 ORCA SCF
-------------------------------------------------------------------------------

------------
SCF SETTINGS
------------
Hamiltonian:
 Density Functional     Method          .... DFT(GTOs)
 Exchange Functional    Exchange        .... X
 Correlation Functional Correlation     .... LYP
 LDA part of GGA corr.  LDAOpt          .... VWN-5
 Gradients option       PostSCFGGA      .... off
 Hybrid DFT is turned on
   Fraction HF Exchange ScalHFX         ....  0.218000
   Scaling of DF-GGA-X  ScalDFX         ....  0.709000
   Scaling of DF-GGA-C  ScalDFC         ....  0.871000
   Scaling of DF-LDA-C  ScalLDAC        ....  1.000000
   Perturbative correction              ....  0.000000
   Density functional embedding theory  .... OFF
 RI-approximation to the Coulomb term is turned on
   Number of AuxJ basis functions       .... 1406
   RIJ-COSX (HFX calculated with COS-X)).... on


General Settings:
 Integral files         IntName         .... x3lyp-train-11
 Hartree-Fock type      HFTyp           .... RHF
 Total Charge           Charge          ....    0
 Multiplicity           Mult            ....    1
 Number of Electrons    NEL             ....  100
 Basis Dimension        Dim             ....  784
 Nuclear Repulsion      ENuc            ....    877.5060552156 Eh

Convergence Acceleration:
 DIIS                   CNVDIIS         .... on
   Start iteration      DIISMaxIt       ....    12
   Startup error        DIISStart       ....  0.200000
   # of expansion vecs  DIISMaxEq       ....     5
   Bias factor          DIISBfac        ....   1.050
   Max. coefficient     DIISMaxC        ....  10.000
 Trust-Rad. Augm. Hess. CNVTRAH         .... auto
   Auto Start mean grad. ratio tolernc. ....  1.125000
   Auto Start start iteration           ....    20
   Auto Start num. interpolation iter.  ....    10
   Max. Number of Micro iterations      ....    16
   Max. Number of Macro iterations      .... Maxiter - #DIIS iter
   Number of Davidson start vectors     ....     2
   Converg. threshold I  (grad. norm)   ....   1.000e-05
   Converg. threshold II (energy diff.) ....   1.000e-08
   Grad. Scal. Fac. for Micro threshold ....   0.100
   Minimum threshold for Micro iter.    ....   0.010
   NR start threshold (gradient norm)   ....   0.001
   Initial trust radius                 ....   0.400
   Minimum AH scaling param. (alpha)    ....   1.000
   Maximum AH scaling param. (alpha)    .... 1000.000
   Orbital update algorithm             .... Taylor
   White noise on init. David. guess    .... on
   Maximum white noise                  ....   0.010
   Quad. conv. algorithm                .... NR
 SOSCF                  CNVSOSCF        .... on
   Start iteration      SOSCFMaxIt      ....   150
   Startup grad/error   SOSCFStart      ....  0.003300
 Level Shifting         CNVShift        .... on
   Level shift para.    LevelShift      ....    0.2500
   Turn off err/grad.   ShiftErr        ....    0.0010
 Zerner damping         CNVZerner       .... off
 Static damping         CNVDamp         .... on
   Fraction old density DampFac         ....    0.7000
   Max. Damping (<1)    DampMax         ....    0.9800
   Min. Damping (>=0)   DampMin         ....    0.0000
   Turn off err/grad.   DampErr         ....    0.1000
 Fernandez-Rico         CNVRico         .... off

SCF Procedure:
 Maximum # iterations   MaxIter         ....   125
 SCF integral mode      SCFMode         .... Direct
   Integral package                     .... SHARK and LIBINT hybrid scheme
 Reset frequency        DirectResetFreq ....    20
 Integral Threshold     Thresh          ....  2.500e-11 Eh
 Primitive CutOff       TCut            ....  2.500e-12 Eh

Convergence Tolerance:
 Convergence Check Mode ConvCheckMode   .... Total+1el-Energy
 Convergence forced     ConvForced      .... 0
 Energy Change          TolE            ....  1.000e-08 Eh
 1-El. energy change                    ....  1.000e-05 Eh
 Orbital Gradient       TolG            ....  1.000e-05
 Orbital Rotation angle TolX            ....  1.000e-05
 DIIS Error             TolErr          ....  5.000e-07


Diagonalization of the overlap matrix:
Smallest eigenvalue                        ... 2.237e-06
Time for diagonalization                   ...    0.190 sec
Threshold for overlap eigenvalues          ... 1.000e-08
Number of eigenvalues below threshold      ... 0
Time for construction of square roots      ...    0.137 sec
Total time needed                          ...    0.331 sec

Time for model grid setup =    0.389 sec

------------------------------
INITIAL GUESS: MODEL POTENTIAL
------------------------------
Loading Hartree-Fock densities                     ... done
Calculating cut-offs                               ... done
Initializing the effective Hamiltonian             ... done
Setting up the integral package (SHARK)            ... done
Starting the Coulomb interaction                   ... done (   1.2 sec)
Reading the grid                                   ... done
Mapping shells                                     ... done
Starting the XC term evaluation                    ... done (   1.2 sec)
  promolecular density results
     # of electrons  =     99.994489530
     EX              =    -84.281771792
     EC              =     -3.431666903
     EX+EC           =    -87.713438695
Transforming the Hamiltonian                       ... done (   0.1 sec)
Diagonalizing the Hamiltonian                      ... done (   0.2 sec)
Back transforming the eigenvectors                 ... done (   0.0 sec)
Now organizing SCF variables                       ... done
                      ------------------
                      INITIAL GUESS DONE (   3.2 sec)
                      ------------------
-------------------
DFT GRID GENERATION
-------------------

General Integration Accuracy     IntAcc      ... 4.388
Radial Grid Type                 RadialGrid  ... OptM3 with GC (2021)
Angular Grid (max. ang.)         AngularGrid ... 4 (Lebedev-302)
Angular grid pruning method      GridPruning ... 4 (adaptive)
Weight generation scheme         WeightScheme... Becke
Basis function cutoff            BFCut       ... 1.0000e-11
Integration weight cutoff        WCut        ... 1.0000e-14
Angular grids for H and He will be reduced by one unit
Partially contracted basis set               ... off
Rotationally invariant grid construction     ... off

Total number of grid points                  ...   119168
Total number of batches                      ...     1874
Average number of points per batch           ...       63
Average number of grid points per atom       ...     4965
Time for grid setup =    1.726 sec

--------------------
COSX GRID GENERATION
--------------------

GRIDX 1
-------
General Integration Accuracy     IntAcc      ... 3.816
Radial Grid Type                 RadialGrid  ... OptM3 with GC (2021)
Angular Grid (max. ang.)         AngularGrid ... 1 (Lebedev-50)
Angular grid pruning method      GridPruning ... 4 (adaptive)
Weight generation scheme         WeightScheme... Becke
Basis function cutoff            BFCut       ... 1.0000e-11
Integration weight cutoff        WCut        ... 1.0000e-14
Angular grids for H and He will be reduced by one unit
Partially contracted basis set               ... on
Rotationally invariant grid construction     ... off

Total number of grid points                  ...    15163
Total number of batches                      ...      248
Average number of points per batch           ...       61
Average number of grid points per atom       ...      632
UseSFitting                                  ... on

GRIDX 2
-------
General Integration Accuracy     IntAcc      ... 4.020
Radial Grid Type                 RadialGrid  ... OptM3 with GC (2021)
Angular Grid (max. ang.)         AngularGrid ... 2 (Lebedev-110)
Angular grid pruning method      GridPruning ... 4 (adaptive)
Weight generation scheme         WeightScheme... Becke
Basis function cutoff            BFCut       ... 1.0000e-11
Integration weight cutoff        WCut        ... 1.0000e-14
Angular grids for H and He will be reduced by one unit
Partially contracted basis set               ... on
Rotationally invariant grid construction     ... off

Total number of grid points                  ...    36140
Total number of batches                      ...      578
Average number of points per batch           ...       62
Average number of grid points per atom       ...     1506
UseSFitting                                  ... on

GRIDX 3
-------
General Integration Accuracy     IntAcc      ... 4.338
Radial Grid Type                 RadialGrid  ... OptM3 with GC (2021)
Angular Grid (max. ang.)         AngularGrid ... 3 (Lebedev-194)
Angular grid pruning method      GridPruning ... 4 (adaptive)
Weight generation scheme         WeightScheme... Becke
Basis function cutoff            BFCut       ... 1.0000e-11
Integration weight cutoff        WCut        ... 1.0000e-14
Angular grids for H and He will be reduced by one unit
Partially contracted basis set               ... on
Rotationally invariant grid construction     ... off

Total number of grid points                  ...    77948
Total number of batches                      ...     1231
Average number of points per batch           ...       63
Average number of grid points per atom       ...     3248
UseSFitting                                  ... on

Time for X-Grid setup             =    3.876 sec


--------------------
CPCM SOLVATION MODEL
--------------------
CPCM parameters:
  Epsilon                                         ...      24.8520
  Refrac                                          ...       1.3611
  Rsolv                                           ...       1.3000
  Surface type                                    ... GAUSSIAN VDW
  Epsilon function type                           ...         CPCM
Solvent:                                     ... ETHANOL
SMD-CDS solvent descriptors:
  Soln                                       ...    1.3611
  Soln25                                     ...    1.3593
  Sola                                       ...    0.3700
  Solb                                       ...    0.4800
  Solg                                       ...   31.6200
  Solc                                       ...    0.0000
  Solh                                       ...    0.0000
Radii:
 Radius for N  used is    3.5716 Bohr (=   1.8900 Ang.)
 Radius for C  used is    3.4960 Bohr (=   1.8500 Ang.)
 Radius for O  used is    3.0765 Bohr (=   1.6280 Ang.)
 Radius for H  used is    2.2677 Bohr (=   1.2000 Ang.)
Calculating surface                               ...        done! (  0.0s)
GEPOL surface points                              ...         1386
GEPOL Volume                                      ...    1319.5210
GEPOL Surface-area                                ...     760.5854
Calculating surface distance matrix               ...        done! (  0.0s)
Performing Cholesky decomposition & store         ...        done! (  0.1s)
Overall time for CPCM initialization              ...                 0.1s
 re-compute Schwartz prescreening matrix in partically contracted basis (1) ...done (   0.182 sec)
--------------
SCF ITERATIONS
--------------
ITER       Energy         Delta-E        Max-DP      RMS-DP      [F,P]     Damp
               ***  Starting incremental Fock matrix formation  ***
  0   -642.4751423981   0.000000000000 0.11249203  0.00090984  0.3312534 0.7000
  1   -642.6630260089  -0.187883610752 0.08790622  0.00069411  0.1335471 0.7000
                               ***Turning on DIIS***
  2   -642.7357508846  -0.072724875738 0.20110935  0.00141474  0.0457746 0.0000
  3   -642.8546562390  -0.118905354404 0.05293722  0.00037234  0.0684345 0.0000
  4   -642.8776924283  -0.023036189281 0.01236066  0.00013065  0.0210402 0.0000
  5   -642.8795127732  -0.001820344872 0.00400640  0.00004797  0.0052768 0.0000
                      *** Initiating the SOSCF procedure ***
                           *** Shutting down DIIS ***
                      *** Re-Reading the Fockian *** 
                      *** Removing any level shift *** 
ITER      Energy       Delta-E        Grad      Rot      Max-DP    RMS-DP
  6   -642.87961166  -0.0000988837  0.000422  0.000422  0.002376  0.000018
               *** Restarting incremental Fock matrix formation ***
  7   -642.87961177  -0.0000001119  0.000222  0.001436  0.005126  0.000047
  8   -642.87961332  -0.0000015538  0.000153  0.000792  0.001287  0.000015
  9   -642.87961517  -0.0000018447  0.000045  0.000230  0.001478  0.000015
 10   -642.87961518  -0.0000000129  0.000051  0.000055  0.000820  0.000006
 11   -642.87961538  -0.0000001961  0.000012  0.000057  0.003245  0.000019
 12   -642.87961539  -0.0000000125  0.000011  0.000014  0.001055  0.000008
 13   -642.87961541  -0.0000000257  0.000005  0.000025  0.002574  0.000011
 14   -642.87961539   0.0000000200  0.000004  0.000006  0.001379  0.000005
                  ***Gradient check signals convergence***
              ***Rediagonalizing the Fockian in SOSCF/NRSCF***

               *****************************************************
               *                     SUCCESS                       *
               *           SCF CONVERGED AFTER  15 CYCLES          *
               *****************************************************

Old exchange energy                            =    -18.512021836 Eh
New exchange energy                            =    -18.511993309 Eh
Exchange energy change after final integration =      0.000028526 Eh
Total energy after final integration           =   -642.879586876 Eh
Final COS-X integration done in                =    64.022 sec

SMD CDS free energy correction energy :                 2.44712     Kcal/mol
Total Energy after SMD CDS correction =              -642.875687150 Eh

----------------
TOTAL SCF ENERGY
----------------

Total Energy       :         -642.87568715 Eh          -17493.53680 eV

Components:
Nuclear Repulsion  :          877.50605522 Eh           23878.15370 eV
Electronic Energy  :        -1520.38174237 Eh          -41371.69051 eV
One Electron Energy:        -2612.51903455 Eh          -71090.25709 eV
Two Electron Energy:         1092.13729218 Eh           29718.56658 eV
Max COSX asymmetry :            0.00002452 Eh               0.00067 eV
CPCM Dielectric    :           -0.03514543 Eh              -0.95636 eV
SMD CDS (Gcds)     :            0.00389973 Eh               0.10612 eV

Virial components:
Potential Energy   :        -1282.51085676 Eh          -34898.89464 eV
Kinetic Energy     :          639.63516961 Eh           17405.35784 eV
Virial Ratio       :            2.00506620


DFT components:
N(Alpha)           :       49.999974545569 electrons
N(Beta)            :       49.999974545569 electrons
N(Total)           :       99.999949091138 electrons
E(X)               :      -66.042014665816 Eh       
E(C)               :       -3.851668784756 Eh       
E(XC)              :      -69.893683450572 Eh       
DFET-embed. en.    :        0.000000000000 Eh       
CPCM Solvation Model Properties:
Surface-charge          :           -0.04848624
Charge-correction       :            0.00021321 Eh               0.00580 eV
Free-energy (cav+disp)  :            0.00389973 Eh               0.10612 eV

---------------
SCF CONVERGENCE
---------------

  Last Energy change         ...   -7.9041e-09  Tolerance :   1.0000e-08
  Last MAX-Density change    ...    3.3307e-15  Tolerance :   1.0000e-07
  Last RMS-Density change    ...    1.4438e-17  Tolerance :   5.0000e-09
  Last Orbital Gradient      ...    7.9193e-07  Tolerance :   1.0000e-05
  Last Orbital Rotation      ...    6.9224e-06  Tolerance :   1.0000e-05

             **** THE GBW FILE WAS UPDATED (x3lyp-train-11.gbw) ****
             **** DENSITY x3lyp-train-11.scfp WAS UPDATED ****
             **** ENERGY FILE WAS UPDATED (x3lyp-train-11.en.tmp) ****
             **** THE GBW FILE WAS UPDATED (x3lyp-train-11.gbw) ****
             **** DENSITY x3lyp-train-11.scfp WAS UPDATED ****
----------------
ORBITAL ENERGIES
----------------

  NO   OCC          E(Eh)            E(eV) 
   0   2.0000     -19.141970      -520.8795 
   1   2.0000     -14.397025      -391.7630 
   2   2.0000     -14.384147      -391.4125 
   3   2.0000     -14.358548      -390.7160 
   4   2.0000     -14.347277      -390.4092 
   5   2.0000     -10.304192      -280.3913 
   6   2.0000     -10.253957      -279.0244 
   7   2.0000     -10.244527      -278.7677 
   8   2.0000     -10.243232      -278.7325 
   9   2.0000     -10.242367      -278.7090 
  10   2.0000     -10.218618      -278.0627 
  11   2.0000     -10.208409      -277.7849 
  12   2.0000     -10.207138      -277.7503 
  13   2.0000     -10.201913      -277.6082 
  14   2.0000      -1.068318       -29.0704 
  15   2.0000      -1.048368       -28.5276 
  16   2.0000      -0.932089       -25.3634 
  17   2.0000      -0.919038       -25.0083 
  18   2.0000      -0.894210       -24.3327 
  19   2.0000      -0.832652       -22.6576 
  20   2.0000      -0.787504       -21.4291 
  21   2.0000      -0.760074       -20.6827 
  22   2.0000      -0.673223       -18.3193 
  23   2.0000      -0.653522       -17.7832 
  24   2.0000      -0.643694       -17.5158 
  25   2.0000      -0.588465       -16.0129 
  26   2.0000      -0.560588       -15.2544 
  27   2.0000      -0.536133       -14.5889 
  28   2.0000      -0.526138       -14.3169 
  29   2.0000      -0.517122       -14.0716 
  30   2.0000      -0.497248       -13.5308 
  31   2.0000      -0.488906       -13.3038 
  32   2.0000      -0.468250       -12.7417 
  33   2.0000      -0.451529       -12.2867 
  34   2.0000      -0.444805       -12.1038 
  35   2.0000      -0.425827       -11.5873 
  36   2.0000      -0.415148       -11.2967 
  37   2.0000      -0.403464       -10.9788 
  38   2.0000      -0.401192       -10.9170 
  39   2.0000      -0.388853       -10.5812 
  40   2.0000      -0.380640       -10.3577 
  41   2.0000      -0.372655       -10.1405 
  42   2.0000      -0.360483        -9.8092 
  43   2.0000      -0.340885        -9.2760 
  44   2.0000      -0.337118        -9.1734 
  45   2.0000      -0.312884        -8.5140 
  46   2.0000      -0.288689        -7.8556 
  47   2.0000      -0.285568        -7.7707 
  48   2.0000      -0.275123        -7.4865 
  49   2.0000      -0.201535        -5.4841 
  50   0.0000      -0.047244        -1.2856 
  51   0.0000      -0.005467        -0.1488 
  52   0.0000       0.008432         0.2294 
  53   0.0000       0.009635         0.2622 
  54   0.0000       0.010750         0.2925 
  55   0.0000       0.018976         0.5164 
  56   0.0000       0.021579         0.5872 
  57   0.0000       0.026163         0.7119 
  58   0.0000       0.032195         0.8761 
  59   0.0000       0.033626         0.9150 
  60   0.0000       0.038856         1.0573 
  61   0.0000       0.044739         1.2174 
  62   0.0000       0.046168         1.2563 
  63   0.0000       0.058514         1.5922 
  64   0.0000       0.061173         1.6646 
  65   0.0000       0.062596         1.7033 
  66   0.0000       0.068483         1.8635 
  67   0.0000       0.073437         1.9983 
  68   0.0000       0.074825         2.0361 
  69   0.0000       0.078752         2.1429 
  70   0.0000       0.080647         2.1945 
  71   0.0000       0.090994         2.4761 
  72   0.0000       0.096970         2.6387 
  73   0.0000       0.100904         2.7457 
  74   0.0000       0.107855         2.9349 
  75   0.0000       0.112325         3.0565 
  76   0.0000       0.114041         3.1032 
  77   0.0000       0.120019         3.2659 
  78   0.0000       0.121682         3.3111 
  79   0.0000       0.123282         3.3547 
  80   0.0000       0.127177         3.4607 
  81   0.0000       0.129157         3.5145 
  82   0.0000       0.132252         3.5987 
  83   0.0000       0.136872         3.7245 
  84   0.0000       0.138719         3.7747 
  85   0.0000       0.141142         3.8407 
  86   0.0000       0.145272         3.9531 
  87   0.0000       0.146643         3.9904 
  88   0.0000       0.151055         4.1104 
  89   0.0000       0.153754         4.1839 
  90   0.0000       0.157374         4.2824 
  91   0.0000       0.162421         4.4197 
  92   0.0000       0.164231         4.4690 
  93   0.0000       0.169467         4.6114 
  94   0.0000       0.170352         4.6355 
  95   0.0000       0.173777         4.7287 
  96   0.0000       0.178805         4.8655 
  97   0.0000       0.181098         4.9279 
  98   0.0000       0.188745         5.1360 
  99   0.0000       0.192519         5.2387 
 100   0.0000       0.193181         5.2567 
 101   0.0000       0.196881         5.3574 
 102   0.0000       0.199594         5.4312 
 103   0.0000       0.205855         5.6016 
 104   0.0000       0.208793         5.6815 
 105   0.0000       0.212473         5.7817 
 106   0.0000       0.215446         5.8626 
 107   0.0000       0.220956         6.0125 
 108   0.0000       0.223541         6.0829 
 109   0.0000       0.226785         6.1711 
 110   0.0000       0.232070         6.3150 
 111   0.0000       0.235474         6.4076 
 112   0.0000       0.240441         6.5427 
 113   0.0000       0.243256         6.6193 
 114   0.0000       0.250313         6.8114 
 115   0.0000       0.253685         6.9031 
 116   0.0000       0.255920         6.9639 
 117   0.0000       0.262080         7.1316 
 118   0.0000       0.268047         7.2939 
 119   0.0000       0.268949         7.3185 
 120   0.0000       0.275271         7.4905 
 121   0.0000       0.281582         7.6622 
 122   0.0000       0.284677         7.7465 
 123   0.0000       0.290305         7.8996 
 124   0.0000       0.292110         7.9487 
 125   0.0000       0.300251         8.1702 
 126   0.0000       0.306845         8.3497 
 127   0.0000       0.308285         8.3889 
 128   0.0000       0.311688         8.4815 
 129   0.0000       0.316667         8.6169 
 130   0.0000       0.320528         8.7220 
 131   0.0000       0.323646         8.8069 
 132   0.0000       0.327533         8.9126 
 133   0.0000       0.333243         9.0680 
 134   0.0000       0.340306         9.2602 
 135   0.0000       0.347478         9.4553 
 136   0.0000       0.349042         9.4979 
 137   0.0000       0.354362         9.6427 
 138   0.0000       0.358225         9.7478 
 139   0.0000       0.360754         9.8166 
 140   0.0000       0.366491         9.9727 
 141   0.0000       0.371070        10.0973 
 142   0.0000       0.380117        10.3435 
 143   0.0000       0.381207        10.3732 
 144   0.0000       0.386529        10.5180 
 145   0.0000       0.388321        10.5668 
 146   0.0000       0.390081        10.6147 
 147   0.0000       0.397960        10.8290 
 148   0.0000       0.405509        11.0345 
 149   0.0000       0.410232        11.1630 
 150   0.0000       0.414394        11.2762 
 151   0.0000       0.418905        11.3990 
 152   0.0000       0.421604        11.4724 
 153   0.0000       0.424255        11.5446 
 154   0.0000       0.430712        11.7203 
 155   0.0000       0.441766        12.0211 
 156   0.0000       0.442607        12.0439 
 157   0.0000       0.446068        12.1381 
 158   0.0000       0.448490        12.2040 
 159   0.0000       0.452257        12.3065 
 160   0.0000       0.455432        12.3929 
 161   0.0000       0.460655        12.5351 
 162   0.0000       0.461521        12.5586 
 163   0.0000       0.468324        12.7437 
 164   0.0000       0.469268        12.7694 
 165   0.0000       0.473977        12.8976 
 166   0.0000       0.480922        13.0865 
 167   0.0000       0.486692        13.2436 
 168   0.0000       0.488924        13.3043 
 169   0.0000       0.496158        13.5012 
 170   0.0000       0.499702        13.5976 
 171   0.0000       0.503642        13.7048 
 172   0.0000       0.509546        13.8655 
 173   0.0000       0.513484        13.9726 
 174   0.0000       0.521188        14.1823 
 175   0.0000       0.528814        14.3898 
 176   0.0000       0.536890        14.6095 
 177   0.0000       0.542779        14.7698 
 178   0.0000       0.549017        14.9395 
 179   0.0000       0.553066        15.0497 
 180   0.0000       0.557343        15.1661 
 181   0.0000       0.563509        15.3339 
 182   0.0000       0.566170        15.4063 
 183   0.0000       0.569698        15.5023 
 184   0.0000       0.573988        15.6190 
 185   0.0000       0.580558        15.7978 
 186   0.0000       0.586461        15.9584 
 187   0.0000       0.591370        16.0920 
 188   0.0000       0.593795        16.1580 
 189   0.0000       0.601423        16.3655 
 190   0.0000       0.611699        16.6452 
 191   0.0000       0.616039        16.7633 
 192   0.0000       0.621735        16.9183 
 193   0.0000       0.627188        17.0666 
 194   0.0000       0.633885        17.2489 
 195   0.0000       0.641039        17.4436 
 196   0.0000       0.647102        17.6085 
 197   0.0000       0.650719        17.7070 
 198   0.0000       0.652372        17.7519 
 199   0.0000       0.658239        17.9116 
 200   0.0000       0.663954        18.0671 
 201   0.0000       0.667278        18.1576 
 202   0.0000       0.671452        18.2711 
 203   0.0000       0.679114        18.4796 
 204   0.0000       0.680848        18.5268 
 205   0.0000       0.683883        18.6094 
 206   0.0000       0.695733        18.9319 
 207   0.0000       0.700072        19.0499 
 208   0.0000       0.704800        19.1786 
 209   0.0000       0.712770        19.3954 
 210   0.0000       0.717982        19.5373 
 211   0.0000       0.724439        19.7130 
 212   0.0000       0.728656        19.8277 
 213   0.0000       0.735910        20.0251 
 214   0.0000       0.743527        20.2324 
 215   0.0000       0.744616        20.2620 
 216   0.0000       0.747694        20.3458 
 217   0.0000       0.751118        20.4390 
 218   0.0000       0.762409        20.7462 
 219   0.0000       0.763960        20.7884 
 220   0.0000       0.773688        21.0531 
 221   0.0000       0.776908        21.1407 
 222   0.0000       0.784361        21.3435 
 223   0.0000       0.787377        21.4256 
 224   0.0000       0.790744        21.5172 
 225   0.0000       0.795667        21.6512 
 226   0.0000       0.802617        21.8403 
 227   0.0000       0.815057        22.1788 
 228   0.0000       0.817851        22.2549 
 229   0.0000       0.828575        22.5467 
 230   0.0000       0.831000        22.6127 
 231   0.0000       0.837465        22.7886 
 232   0.0000       0.841293        22.8928 
 233   0.0000       0.846891        23.0451 
 234   0.0000       0.861533        23.4435 
 235   0.0000       0.869840        23.6695 
 236   0.0000       0.875476        23.8229 
 237   0.0000       0.879110        23.9218 
 238   0.0000       0.881700        23.9923 
 239   0.0000       0.893586        24.3157 
 240   0.0000       0.903715        24.5913 
 241   0.0000       0.905196        24.6316 
 242   0.0000       0.908360        24.7177 
 243   0.0000       0.913981        24.8707 
 244   0.0000       0.923237        25.1226 
 245   0.0000       0.930641        25.3240 
 246   0.0000       0.945532        25.7292 
 247   0.0000       0.947664        25.7873 
 248   0.0000       0.951882        25.9020 
 249   0.0000       0.965829        26.2815 
 250   0.0000       0.972410        26.4606 
 251   0.0000       0.975886        26.5552 
 252   0.0000       0.980025        26.6678 
 253   0.0000       0.984872        26.7997 
 254   0.0000       0.990739        26.9594 
 255   0.0000       0.994603        27.0645 
 256   0.0000       1.006955        27.4006 
 257   0.0000       1.011845        27.5337 
 258   0.0000       1.018955        27.7272 
 259   0.0000       1.022159        27.8144 
 260   0.0000       1.028716        27.9928 
 261   0.0000       1.037524        28.2325 
 262   0.0000       1.043279        28.3891 
 263   0.0000       1.048797        28.5392 
 264   0.0000       1.052836        28.6491 
 265   0.0000       1.062374        28.9087 
 266   0.0000       1.072200        29.1760 
 267   0.0000       1.079272        29.3685 
 268   0.0000       1.090036        29.6614 
 269   0.0000       1.092377        29.7251 
 270   0.0000       1.102795        30.0086 
 271   0.0000       1.112154        30.2633 
 272   0.0000       1.119048        30.4508 
 273   0.0000       1.129451        30.7339 
 274   0.0000       1.135967        30.9112 
 275   0.0000       1.144499        31.1434 
 276   0.0000       1.150358        31.3028 
 277   0.0000       1.153959        31.4008 
 278   0.0000       1.160630        31.5824 
 279   0.0000       1.162716        31.6391 
 280   0.0000       1.168345        31.7923 
 281   0.0000       1.180582        32.1253 
 282   0.0000       1.188891        32.3514 
 283   0.0000       1.197634        32.5893 
 284   0.0000       1.207480        32.8572 
 285   0.0000       1.208913        32.8962 
 286   0.0000       1.214071        33.0365 
 287   0.0000       1.230651        33.4877 
 288   0.0000       1.242051        33.7979 
 289   0.0000       1.245265        33.8854 
 290   0.0000       1.246629        33.9225 
 291   0.0000       1.257292        34.2127 
 292   0.0000       1.267970        34.5032 
 293   0.0000       1.269926        34.5564 
 294   0.0000       1.278762        34.7969 
 295   0.0000       1.289452        35.0878 
 296   0.0000       1.293506        35.1981 
[...]
B(  5-C ,  6-N ) :   1.0973 B(  5-C ,  7-O ) :   1.2791 B(  6-N , 18-H ) :   1.0041 
B(  6-N , 19-H ) :   0.9762 B(  8-N , 10-C ) :   0.1262 B(  8-N , 13-C ) :   0.8787 
B(  9-N , 10-C ) :   1.5678 B(  9-N , 12-C ) :   0.1117 B( 10-C , 11-C ) :   0.7907 
B( 10-C , 20-H ) :   0.9158 B( 11-C , 12-C ) :   1.6014 B( 11-C , 21-H ) :   0.9985 
B( 12-C , 13-C ) :   0.6813 B( 12-C , 22-H ) :   1.0323 B( 13-C , 23-H ) :   1.0414 


-------
TIMINGS
-------

Total SCF time: 0 days 0 hours 2 min 35 sec 

Total time                  ....     155.747 sec
Sum of individual times     ....     153.371 sec  ( 98.5%)

Fock matrix formation       ....     147.068 sec  ( 94.4%)
  Split-RI-J                ....       7.780 sec  (  5.3% of F)
  Chain of spheres X        ....     125.856 sec  ( 85.6% of F)
  XC integration            ....       8.540 sec  (  5.8% of F)
    Basis function eval.    ....       1.300 sec  ( 15.2% of XC)
    Density eval.           ....       3.371 sec  ( 39.5% of XC)
    XC-Functional eval.     ....       0.134 sec  (  1.6% of XC)
    XC-Potential eval.      ....       2.977 sec  ( 34.9% of XC)
Diagonalization             ....       0.365 sec  (  0.2%)
Density matrix formation    ....       0.024 sec  (  0.0%)
Population analysis         ....       0.246 sec  (  0.2%)
Initial guess               ....       0.398 sec  (  0.3%)
Orbital Transformation      ....       0.000 sec  (  0.0%)
Orbital Orthonormalization  ....       0.360 sec  (  0.2%)
DIIS solution               ....       0.126 sec  (  0.1%)
SOSCF solution              ....       0.260 sec  (  0.2%)
Grid generation             ....       4.885 sec  (  3.1%)

Maximum memory used throughout the entire SCF-calculation: 189.8 MB


           ************************************************************
           *        Program running with 4 parallel MPI-processes     *
           *              working on a common directory               *
           ************************************************************
------------------------------------------------------------------------------
                        ORCA TD-DFT/TDA CALCULATION
------------------------------------------------------------------------------

Input orbitals are from        ... x3lyp-train-11_job2.gbw
CI-vector output               ... x3lyp-train-11_job2.cis
Tamm-Dancoff approximation     ... operative
CIS-Integral strategy          ... AO-integrals
Integral handling              ... AO integral Direct
Max. core memory used          ... 4000 MB
Reference state                ... RHF
Generation of triplets         ... off
Follow IRoot                   ... off
Number of operators            ... 1
Orbital ranges used for CIS calculation:
 Operator 0:  Orbitals  14... 49  to  50...783
XAS localization array:
 Operator 0:  Orbitals  -1... -1

-------------------
XC-INTEGRATION GRID
-------------------

General Integration Accuracy     IntAcc      ... 3.467
Radial Grid Type                 RadialGrid  ... OptM3 with GC (2021)
Angular Grid (max. ang.)         AngularGrid ... 1 (Lebedev-50)
Angular grid pruning method      GridPruning ... 4 (adaptive)
Weight generation scheme         WeightScheme... Becke
Basis function cutoff            BFCut       ... 1.0000e-11
Integration weight cutoff        WCut        ... 1.0000e-14
Angular grids for H and He will be reduced by one unit
Partially contracted basis set               ... off
Rotationally invariant grid construction     ... off

Total number of grid points                  ...    17729
Total number of batches                      ...      288
Average number of points per batch           ...       61
Average number of grid points per atom       ...      739

---------------------
COSX-INTEGRATION GRID
---------------------

General Integration Accuracy     IntAcc      ... 3.067
Radial Grid Type                 RadialGrid  ... OptM3 with GC (2021)
Angular Grid (max. ang.)         AngularGrid ... 1 (Lebedev-50)
Angular grid pruning method      GridPruning ... 4 (adaptive)
Weight generation scheme         WeightScheme... Becke
Basis function cutoff            BFCut       ... 1.0000e-11
Integration weight cutoff        WCut        ... 1.0000e-14
Angular grids for H and He will be reduced by one unit
Partially contracted basis set               ... on
Rotationally invariant grid construction     ... off

Total number of grid points                  ...     8073
Total number of batches                      ...      139
Average number of points per batch           ...       58
Average number of grid points per atom       ...      336

---------------
TD-DFT XC SETUP
---------------

DFT calculation                         ... on
Name of the grid file                   ... x3lyp-train-11_job2.grid_cis.tmp
Exchange functional (TD-DFT)            ... X
Correlation functional (TD-DFT)         ... LYP
 LDA part of GGA corr.  LDAOpt (TD-DFT) ... VWN-5
Hybrid DFT                              ... on
   Exchange mixing (TD-DFT)             ...  0.218
   GGA exch. scaling (TD-DFT)           ...  0.709
   GGA corr. scaling (TD-DFT)           ...  0.871

Building densities             ... done
Calculating rho(r) on the grid ... done
Building xc-kernel on the grid ... done
                    *** TD-DFT CALCULATION INITIALIZED ***

---------------------------------
    LR-CPCM (non-equilibrium)
---------------------------------

Setting up LR-CPCM             ... done

------------------------
DAVIDSON-DIAGONALIZATION
------------------------

Dimension of the eigenvalue problem            ...  26424
Number of roots to be determined               ...     10
Maximum size of the expansion space            ...     70
Maximum number of iterations                   ...    100
Convergence tolerance for the residual         ...    1.000e-06
Convergence tolerance for the energies         ...    1.000e-06
Orthogonality tolerance                        ...    1.000e-14
Level Shift                                    ...    0.000e+00
Constructing the preconditioner                ... o.k.
Building the initial guess                     ... o.k.
Number of trial vectors determined             ...     70


                       ****Iteration    0****

   Memory handling for direct AO based CIS:
   Memory per vector needed      ...    28 MB
   Memory needed                 ...   844 MB
   Memory available              ...  4000 MB
   Number of vectors per batch   ...   142
   Number of batches             ...     1
   Time for densities:            0.279
   Time for RI-J (Direct):       10.009
   Time for K (COSX):            47.625
   Time for XC-Integration:      27.098
   Time for LR-CPCM terms:       11.934
   Time for Sigma-Completion:     0.244
   Size of expansion space: 30
   Lowest Energy          :     0.167770810754
   Maximum Energy change  :     0.213569136013 (vector 9)
   Maximum residual norm  :     0.020256687050

                       ****Iteration    1****
   Time for densities:            0.095
   Time for RI-J (Direct):        5.684
   Time for K (COSX):            17.637
   Time for XC-Integration:       9.385
   Time for LR-CPCM terms:        5.523
   Time for Sigma-Completion:     0.074
   Size of expansion space: 40
   Lowest Energy          :     0.146888702018
   Maximum Energy change  :     0.020882108736 (vector 0)
   Maximum residual norm  :     0.000536872785

                       ****Iteration    2****
   Time for densities:            0.093
   Time for RI-J (Direct):        5.671
   Time for K (COSX):            17.688
   Time for XC-Integration:       9.379
   Time for LR-CPCM terms:        5.526
   Time for Sigma-Completion:     0.090
   Size of expansion space: 50
   Lowest Energy          :     0.146390689946
   Maximum Energy change  :     0.000525256257 (vector 9)
   Maximum residual norm  :     0.000051515748

                       ****Iteration    3****
   Time for densities:            0.096
   Time for RI-J (Direct):        5.682
   Time for K (COSX):            17.720
   Time for XC-Integration:       9.484
   Time for LR-CPCM terms:        5.528
   Time for Sigma-Completion:     0.080
   Size of expansion space: 60
   Lowest Energy          :     0.146370677098
   Maximum Energy change  :     0.000194504841 (vector 9)
   Maximum residual norm  :     0.000013393134

                       ****Iteration    4****
   Time for densities:            0.095
   Time for RI-J (Direct):        5.715
   Time for K (COSX):            17.918
   Time for XC-Integration:       9.366
   Time for LR-CPCM terms:        5.528
   Time for Sigma-Completion:     0.078
   Size of expansion space: 70
   Lowest Energy          :     0.146370157492
   Maximum Energy change  :     0.000019261629 (vector 9)
   Maximum residual norm  :     0.000000634550

      *** CONVERGENCE OF RESIDUAL NORM REACHED ***

Storing the converged CI vectors               ... x3lyp-train-11_job2.cis1

                 *** DAVIDSON DONE ***

Total time for solving the CIS problem:   252.392sec

------------------------------------
TD-DFT/TDA EXCITED STATES (SINGLETS)
------------------------------------

the weight of the individual excitations are printed if larger than 1.0e-02

STATE  1:  E=   0.146370 au      3.983 eV    32124.5 cm**-1 <S**2> =   0.000000
    49a ->  50a  :     0.950952 (c= -0.97516790)

STATE  2:  E=   0.182306 au      4.961 eV    40011.6 cm**-1 <S**2> =   0.000000
    46a ->  50a  :     0.494572 (c=  0.70325787)
    47a ->  50a  :     0.280920 (c=  0.53001849)
    48a ->  50a  :     0.161082 (c=  0.40134994)
    49a ->  51a  :     0.043896 (c= -0.20951314)

STATE  3:  E=   0.183488 au      4.993 eV    40270.9 cm**-1 <S**2> =   0.000000
    46a ->  50a  :     0.023865 (c= -0.15448286)
    47a ->  50a  :     0.013105 (c= -0.11447603)
    49a ->  51a  :     0.900850 (c= -0.94913129)
    49a ->  52a  :     0.015820 (c=  0.12577625)
    49a ->  54a  :     0.011660 (c=  0.10798043)

STATE  4:  E=   0.190519 au      5.184 eV    41814.2 cm**-1 <S**2> =   0.000000
    48a ->  52a  :     0.012236 (c= -0.11061808)
    49a ->  51a  :     0.017812 (c= -0.13346045)
    49a ->  52a  :     0.926009 (c= -0.96229357)

STATE  5:  E=   0.200903 au      5.467 eV    44093.1 cm**-1 <S**2> =   0.000000
    46a ->  50a  :     0.087684 (c= -0.29611427)
    47a ->  50a  :     0.052818 (c= -0.22982123)
    48a ->  50a  :     0.703399 (c=  0.83868882)
    49a ->  53a  :     0.044766 (c= -0.21158016)
    49a ->  55a  :     0.049216 (c= -0.22184729)

STATE  6:  E=   0.203311 au      5.532 eV    44621.7 cm**-1 <S**2> =   0.000000
    48a ->  50a  :     0.053698 (c= -0.23172845)
    49a ->  53a  :     0.868267 (c= -0.93180839)
    49a ->  55a  :     0.011141 (c= -0.10555283)
    49a ->  56a  :     0.015701 (c= -0.12530370)

STATE  7:  E=   0.206494 au      5.619 eV    45320.2 cm**-1 <S**2> =   0.000000
    49a ->  51a  :     0.012211 (c= -0.11050472)
    49a ->  54a  :     0.912639 (c= -0.95532160)
    49a ->  57a  :     0.034736 (c=  0.18637501)

STATE  8:  E=   0.208020 au      5.661 eV    45655.1 cm**-1 <S**2> =   0.000000
    45a ->  50a  :     0.019723 (c=  0.14043896)
    48a ->  50a  :     0.022578 (c= -0.15025982)
    49a ->  53a  :     0.015097 (c=  0.12286994)
    49a ->  55a  :     0.869969 (c= -0.93272139)
    49a ->  56a  :     0.039878 (c=  0.19969582)

STATE  9:  E=   0.210547 au      5.729 eV    46209.7 cm**-1 <S**2> =   0.000000
    46a ->  50a  :     0.358181 (c= -0.59848230)
    47a ->  50a  :     0.626568 (c=  0.79156024)

STATE 10:  E=   0.211225 au      5.748 eV    46358.5 cm**-1 <S**2> =   0.000000
    48a ->  52a  :     0.064619 (c=  0.25420347)
    48a ->  56a  :     0.017319 (c=  0.13160147)
    49a ->  52a  :     0.018822 (c= -0.13719488)
    49a ->  53a  :     0.035615 (c= -0.18871826)
    49a ->  55a  :     0.034085 (c=  0.18462030)
    49a ->  56a  :     0.721856 (c=  0.84962103)
    49a ->  57a  :     0.036796 (c= -0.19182179)
    49a ->  58a  :     0.010331 (c=  0.10164284)


-----------------------------
TD-DFT/TDA-EXCITATION SPECTRA
-----------------------------

Center of mass = (  0.1760, -0.2910, -0.0910)
Calculating the Dipole integrals                  ... done
Transforming integrals                            ... done
Calculating the Linear Momentum integrals         ... done
Transforming integrals                            ... done
Calculating angular momentum integrals            ... done
Transforming integrals                            ... done

-----------------------------------------------------------------------------
         ABSORPTION SPECTRUM VIA TRANSITION ELECTRIC DIPOLE MOMENTS
-----------------------------------------------------------------------------
State   Energy    Wavelength  fosc         T2        TX        TY        TZ  
        (cm-1)      (nm)                 (au**2)    (au)      (au)      (au) 
-----------------------------------------------------------------------------
   1   32124.5    311.3   0.099026123   1.01482   0.95701   0.04299  -0.31162
   2   40011.6    249.9   0.004584115   0.03772  -0.00012  -0.00247  -0.19419
   3   40270.9    248.3   0.003340175   0.02731  -0.08734   0.13808   0.02472
   4   41814.2    239.2   0.003255309   0.02563   0.01687  -0.15821   0.01773
   5   44093.1    226.8   0.009736278   0.07269  -0.01579   0.22167  -0.15267
   6   44621.7    224.1   0.001199913   0.00885   0.02641  -0.07087   0.05597
   7   45320.2    220.7   0.055427429   0.40263   0.11749   0.62353   0.00591
   8   45655.1    219.0   0.084203703   0.60718  -0.28634  -0.68135  -0.24687
   9   46209.7    216.4   0.003153358   0.02247   0.11868  -0.08538   0.03304
  10   46358.5    215.7   0.002886955   0.02050  -0.00185   0.01619   0.14225

-----------------------------------------------------------------------------
         ABSORPTION SPECTRUM VIA TRANSITION VELOCITY DIPOLE MOMENTS
-----------------------------------------------------------------------------
State   Energy    Wavelength   fosc        P2         PX        PY        PZ  
        (cm-1)      (nm)                 (au**2)     (au)      (au)      (au) 
-----------------------------------------------------------------------------
   1   32124.5    311.3   0.017300724   0.00380   0.01260   0.05837   0.01526
   2   40011.6    249.9   0.001005823   0.00028  -0.01017  -0.01058  -0.00773
   3   40270.9    248.3   0.001408870   0.00039   0.00182  -0.01900   0.00483
   4   41814.2    239.2   0.000210964   0.00006  -0.00084   0.00764   0.00108
   5   44093.1    226.8   0.000812335   0.00024   0.01556  -0.00161  -0.00041
   6   44621.7    224.1   0.002077274   0.00063  -0.02176  -0.01181  -0.00452
   7   45320.2    220.7   0.022532314   0.00698  -0.01252  -0.08237   0.00616
   8   45655.1    219.0   0.029186910   0.00911   0.03679   0.07588   0.04468
   9   46209.7    216.4   0.001339912   0.00042  -0.01719   0.01012   0.00502
  10   46358.5    215.7   0.006036763   0.00191   0.00299   0.01286  -0.04169

-------------------------------------------------------------------
                             CD SPECTRUM
-------------------------------------------------------------------
State  Energy     Wavelength     R         MX        MY        MZ   
       (cm-1)       (nm)     (1e40*cgs)   (au)      (au)      (au)  
-------------------------------------------------------------------
   1   32124.5    311.3    -41.10061  -0.28967  -0.17375  -0.63381
   2   40011.6    249.9      4.44449  -0.23594   0.18718  -0.05078
   3   40270.9    248.3      3.31775   0.03678   0.06057   0.07630
   4   41814.2    239.2    -12.97438  -0.04074   0.16993   0.00298
   5   44093.1    226.8     10.37055  -0.15702  -0.05384  -0.20603
   6   44621.7    224.1      1.86281  -0.12991   0.01734   0.15386
   7   45320.2    220.7      4.76873   0.06213   0.00511  -0.06270
   8   45655.1    219.0     10.90821   0.01792  -0.07143   0.08265
   9   46209.7    216.4      0.03027   0.00001   0.00246   0.00826
  10   46358.5    215.7    -11.47558   0.24518  -0.11010  -0.15540

-------------------------------------------------------------------
         CD SPECTRUM VIA TRANSITION VELOCITY DIPOLE MOMENTS        
-------------------------------------------------------------------
State  Energy     Wavelength     R         MX        MY        MZ   
       (cm-1)       (nm)     (1e40*cgs)   (au)      (au)      (au)  
-------------------------------------------------------------------
   1   32124.5    311.3    -75.58156  -0.28967  -0.17375  -0.63381
   2   40011.6    249.9      2.10079  -0.23594   0.18718  -0.05078
   3   40270.9    248.3     -1.83761   0.03678   0.06057   0.07630
   4   41814.2    239.2      3.30636  -0.04074   0.16993   0.00298
   5   44093.1    226.8     -5.33015  -0.15702  -0.05384  -0.20603
   6   44621.7    224.1      4.46622  -0.12991   0.01734   0.15386
   7   45320.2    220.7     -3.61775   0.06213   0.00511  -0.06270
   8   45655.1    219.0     -2.42084   0.01792  -0.07143   0.08265
   9   46209.7    216.4      0.14814   0.00001   0.00246   0.00826
  10   46358.5    215.7     12.93980   0.24518  -0.11010  -0.15540

Total run time:      256.896 sec

           *** ORCA-CIS/TD-DFT FINISHED WITHOUT ERROR ***

Maximum memory used throughout the entire CIS-calculation: 816.2 MB

-----------------------
CIS/TD-DFT TOTAL ENERGY
-----------------------

    E(SCF)  =   -642.883371277 Eh
    DE(CIS) =      0.146370157 Eh (Root  1)
    ----------------------------- ---------
    E(tot)  =   -642.737001119 Eh


-------------------------   --------------------
FINAL SINGLE POINT ENERGY      -642.737001119238
-------------------------   --------------------


                            ***************************************
                            *     ORCA property calculations      *
                            ***************************************

                                    ---------------------
                                    Active property flags
                                    ---------------------
   (+) Dipole Moment


------------------------------------------------------------------------------
                       ORCA ELECTRIC PROPERTIES CALCULATION
------------------------------------------------------------------------------

Dipole Moment Calculation                       ... on
Quadrupole Moment Calculation                   ... off
Polarizability Calculation                      ... off
GBWName                                         ... x3lyp-train-11_job2.gbw
Electron density                                ... x3lyp-train-11_job2.scfp
The origin for moment calculation is the CENTER OF MASS  = ( 0.176015, -0.290988 -0.091047)

-------------
DIPOLE MOMENT
-------------
                                X             Y             Z
Electronic contribution:     -0.09167      -1.10318       0.02751
Nuclear contribution   :     -1.01836       3.50144       1.06336
                        -----------------------------------------
Total Dipole Moment    :     -1.11003       2.39826       1.09086
                        -----------------------------------------
Magnitude (a.u.)       :      2.85898
Magnitude (Debye)      :      7.26695



--------------------
Rotational spectrum 
--------------------
 
Rotational constants in cm-1:     0.028909     0.022381     0.014624 
Rotational constants in MHz :   866.663099   670.954580   438.411071 

 Dipole components along the rotational axes: 
x,y,z [a.u.] :    -1.253399     2.487371     0.644787 
x,y,z [Debye]:    -3.185886     6.322395     1.638918 

 

Timings for individual modules:

Sum of individual times         ...      416.725 sec (=   6.945 min)
GTO integral calculation        ...        2.733 sec (=   0.046 min)   0.7 %
SCF iterations                  ...      156.388 sec (=   2.606 min)  37.5 %
CIS module                      ...      257.604 sec (=   4.293 min)  61.8 %



                             ****ORCA TERMINATED NORMALLY****
TOTAL RUN TIME: 0 days 4 hours 25 minutes 9 seconds 112 msec
