
                                 *****************
                                 * O   R   C   A *
                                 *****************

                                            #,                                       
                                            ###                                      
                                            ####                                     
                                            #####                                    
                                            ######                                   
                                           ########,                                 
                                     ,,################,,,,,                         
                               ,,#################################,,                 
                          ,,##########################################,,             
                       ,#########################################, ''#####,          
                    ,#############################################,,   '####,        
                  ,##################################################,,,,####,       
                ,###########''''           ''''###############################       
              ,#####''   ,,,,##########,,,,          '''####'''          '####       
            ,##' ,,,,###########################,,,                        '##       
           ' ,,###''''                  '''############,,,                           
         ,,##''                                '''############,,,,        ,,,,,,###''
      ,#''                                            '''#######################'''  
     '                                                          ''''####''''         
             ,#######,   #######,   ,#######,      ##                                
            ,#'     '#,  ##    ##  ,#'     '#,    #''#        ######   ,####,        
            ##       ##  ##   ,#'  ##            #'  '#       #        #'  '#        
            ##       ##  #######   ##           ,######,      #####,   #    #        
            '#,     ,#'  ##    ##  '#,     ,#' ,#      #,         ##   #,  ,#        
             '#######'   ##     ##  '#######'  #'      '#     #####' # '####'        



                  #######################################################
                  #                        -***-                        #
                  #          Department of theory and spectroscopy      #
                  #    Directorship and core code : Frank Neese         #
                  #        Max Planck Institute fuer Kohlenforschung    #
                  #                Kaiser Wilhelm Platz 1               #
                  #                 D-45470 Muelheim/Ruhr               #
                  #                      Germany                        #
                  #                                                     #
                  #                  All rights reserved                #
                  #                        -***-                        #
                  #######################################################


                         Program Version 5.0.2 -  RELEASE  -


 With contributions from (in alphabetic order):
   Daniel Aravena         : Magnetic Suceptibility
   Michael Atanasov       : Ab Initio Ligand Field Theory (pilot matlab implementation)
   Alexander A. Auer      : GIAO ZORA, VPT2 properties, NMR spectrum
   Ute Becker             : Parallelization
   Giovanni Bistoni       : ED, misc. LED, open-shell LED, HFLD
   Martin Brehm           : Molecular dynamics
   Dmytro Bykov           : SCF Hessian
   Vijay G. Chilkuri      : MRCI spin determinant printing, contributions to CSF-ICE
   Dipayan Datta          : RHF DLPNO-CCSD density
   Achintya Kumar Dutta   : EOM-CC, STEOM-CC
   Dmitry Ganyushin       : Spin-Orbit,Spin-Spin,Magnetic field MRCI
   Miquel Garcia          : C-PCM and meta-GGA Hessian, CC/C-PCM, Gaussian charge scheme
   Yang Guo               : DLPNO-NEVPT2, F12-NEVPT2, CIM, IAO-localization
   Andreas Hansen         : Spin unrestricted coupled pair/coupled cluster methods
   Benjamin Helmich-Paris : MC-RPA, TRAH-SCF, COSX integrals
   Lee Huntington         : MR-EOM, pCC
   Robert Izsak           : Overlap fitted RIJCOSX, COSX-SCS-MP3, EOM
   Marcus Kettner         : VPT2
   Christian Kollmar      : KDIIS, OOCD, Brueckner-CCSD(T), CCSD density, CASPT2, CASPT2-K
   Simone Kossmann        : Meta GGA functionals, TD-DFT gradient, OOMP2, MP2 Hessian
   Martin Krupicka        : Initial AUTO-CI
   Lucas Lang             : DCDCAS
   Marvin Lechner         : AUTO-CI (C++ implementation), FIC-MRCC
   Dagmar Lenk            : GEPOL surface, SMD
   Dimitrios Liakos       : Extrapolation schemes; Compound Job, initial MDCI parallelization
   Dimitrios Manganas     : Further ROCIS development; embedding schemes
   Dimitrios Pantazis     : SARC Basis sets
   Anastasios Papadopoulos: AUTO-CI, single reference methods and gradients
   Taras Petrenko         : DFT Hessian,TD-DFT gradient, ASA, ECA, R-Raman, ABS, FL, XAS/XES, NRVS
   Peter Pinski           : DLPNO-MP2, DLPNO-MP2 Gradient
   Christoph Reimann      : Effective Core Potentials
   Marius Retegan         : Local ZFS, SOC
   Christoph Riplinger    : Optimizer, TS searches, QM/MM, DLPNO-CCSD(T), (RO)-DLPNO pert. Triples
   Tobias Risthaus        : Range-separated hybrids, TD-DFT gradient, RPA, STAB
   Michael Roemelt        : Original ROCIS implementation
   Masaaki Saitow         : Open-shell DLPNO-CCSD energy and density
   Barbara Sandhoefer     : DKH picture change effects
   Avijit Sen             : IP-ROCIS
   Kantharuban Sivalingam : CASSCF convergence, NEVPT2, FIC-MRCI
   Bernardo de Souza      : ESD, SOC TD-DFT
   Georgi Stoychev        : AutoAux, RI-MP2 NMR, DLPNO-MP2 response
   Willem Van den Heuvel  : Paramagnetic NMR
   Boris Wezisla          : Elementary symmetry handling
   Frank Wennmohs         : Technical directorship


 We gratefully acknowledge several colleagues who have allowed us to
 interface, adapt or use parts of their codes:
   Stefan Grimme, W. Hujo, H. Kruse, P. Pracht,  : VdW corrections, initial TS optimization,
                  C. Bannwarth, S. Ehlert          DFT functionals, gCP, sTDA/sTD-DF
   Ed Valeev, F. Pavosevic, A. Kumar             : LibInt (2-el integral package), F12 methods
   Garnet Chan, S. Sharma, J. Yang, R. Olivares  : DMRG
   Ulf Ekstrom                                   : XCFun DFT Library
   Mihaly Kallay                                 : mrcc  (arbitrary order and MRCC methods)
   Jiri Pittner, Ondrej Demel                    : Mk-CCSD
   Frank Weinhold                                : gennbo (NPA and NBO analysis)
   Christopher J. Cramer and Donald G. Truhlar   : smd solvation model
   Lars Goerigk                                  : TD-DFT with DH, B97 family of functionals
   V. Asgeirsson, H. Jonsson                     : NEB implementation
   FAccTs GmbH                                   : IRC, NEB, NEB-TS, DLPNO-Multilevel, CI-OPT
                                                   MM, QMMM, 2- and 3-layer-ONIOM, Crystal-QMMM,
                                                   LR-CPCM, SF, NACMEs, symmetry and pop. for TD-DFT,
                                                   nearIR, NL-DFT gradient (VV10), updates on ESD,
                                                   ML-optimized integration grids
   S Lehtola, MJT Oliveira, MAL Marques          : LibXC Library
   Liviu Ungur et al                             : ANISO software


 Your calculation uses the libint2 library for the computation of 2-el integrals
 For citations please refer to: http://libint.valeyev.net

 Your ORCA version has been built with support for libXC version: 5.1.0
 For citations please refer to: https://tddft.org/programs/libxc/

 This ORCA versions uses:
   CBLAS   interface :  Fast vector & matrix operations
   LAPACKE interface :  Fast linear algebra routines
   SCALAPACK package :  Parallel linear algebra routines
   Shared memory     :  Shared parallel matrices
   BLAS/LAPACK       :  OpenBLAS 0.3.15  USE64BITINT DYNAMIC_ARCH NO_AFFINITY Haswell SINGLE_THREADED
        Core in use  :  Haswell
   Copyright (c) 2011-2014, The OpenBLAS Project


Your calculation utilizes the SMD solvation module
Please cite in your paper:
A.V. Marenich, C.J. Cramer, D.G. Truhlar J. Phys. Chem. B, 113, (2009), 6378 

================================================================================

----- Orbital basis set information -----
Your calculation utilizes the basis: aug-cc-pVTZ 
    H, B-Ne : Obtained from the ccRepo (grant-hill.group.shef.ac.uk/ccrepo) Feb. 2017
              R. A. Kendall, T. H. Dunning, Jr., R. J. Harrison, J. Chem. Phys. 96, 6796 (1992)
         He : Obtained from the ccRepo (grant-hill.group.shef.ac.uk/ccrepo) Feb. 2017
              D. E. Woon, T. H. Dunning, Jr., J. Chem. Phys. 100, 2975 (1994)
  Li-Be, Na : Obtained from the ccRepo (grant-hill.group.shef.ac.uk/ccrepo) Feb. 2017
              B. P. Prascher, D. E. Woon, K. A. Peterson, T. H. Dunning, Jr., A. K. Wilson, Theor. Chem. Acc. 128, 69 (2011)
         Mg : Obtained from the Peterson Research Group Website (tyr0.chem.wsu.edu/~kipeters) Feb. 2017
              B. P. Prascher, D. E. Woon, K. A. Peterson, T. H. Dunning, Jr., A. K. Wilson, Theor. Chem. Acc. 128, 69 (2011)
      Al-Ar : Obtained from the ccRepo (grant-hill.group.shef.ac.uk/ccrepo) Feb. 2017
              D. E. Woon, T. H. Dunning, Jr., J. Chem. Phys. 98, 1358 (1993)
      Sc-Zn : Obtained from the ccRepo (grant-hill.group.shef.ac.uk/ccrepo) Feb. 2017
              N. B. Balabanov, K. A. Peterson, J. Chem. Phys. 123, 064107 (2005)
              N. B. Balabanov, K. A. Peterson, J. Chem. Phys. 125, 074110 (2006)
      Ga-Kr : Obtained from the ccRepo (grant-hill.group.shef.ac.uk/ccrepo) Feb. 2017
              A. K. Wilson, D. E. Woon, K. A. Peterson, T. H. Dunning, Jr., J. Chem. Phys. 110, 7667 (1999)
     Ag, Au : Obtained from the Peterson Research Group Website (tyr0.chem.wsu.edu/~kipeters) Feb. 2017
              K. A. Peterson, C. Puzzarini, Theor. Chem. Acc. 114, 283 (2005)

The basis set includes element-specific modifications.

Your calculation utilizes the basis: cc-pVTZ 
       H, B-Ne : Obtained from the ccRepo (grant-hill.group.shef.ac.uk/ccrepo) Feb. 2017
                 T. H. Dunning, Jr., J. Chem. Phys. 90, 1007 (1989)
            He : Obtained from the ccRepo (grant-hill.group.shef.ac.uk/ccrepo) Feb. 2017
                 D. E. Woon, T. H. Dunning, Jr., J. Chem. Phys. 100, 2975 (1994)
  Li-Be, Na-Mg : Obtained from the ccRepo (grant-hill.group.shef.ac.uk/ccrepo) Feb. 2017
                 B. P. Prascher, D. E. Woon, K. A. Peterson, T. H. Dunning, Jr., A. K. Wilson, Theor. Chem. Acc. 128, 69 (2011)
         Al-Ar : Obtained from the ccRepo (grant-hill.group.shef.ac.uk/ccrepo) Feb. 2017
                 D. E. Woon, T. H. Dunning, Jr., J. Chem. Phys. 98, 1358 (1993)
            Ca : Obtained from the Peterson Research Group Website (tyr0.chem.wsu.edu/~kipeters) Feb. 2017
                 J. Koput, K. A. Peterson, J. Phys. Chem. 106, 9595 (2002)
         Sc-Zn : Obtained from the ccRepo (grant-hill.group.shef.ac.uk/ccrepo) Feb. 2017
                 N. B. Balabanov, K. A. Peterson, J. Chem. Phys. 123, 064107 (2005)
                 N. B. Balabanov, K. A. Peterson, J. Chem. Phys. 125, 074110 (2006)
         Ga-Kr : Obtained from the ccRepo (grant-hill.group.shef.ac.uk/ccrepo) Feb. 2017
                 A. K. Wilson, D. E. Woon, K. A. Peterson, T. H. Dunning, Jr., J. Chem. Phys. 110, 7667 (1999)
             Y : Obtained from the ccRepo (grant-hill.group.shef.ac.uk/ccrepo) Feb. 2017
                 K. A. Peterson, D. Figgen, M. Dolg, H. Stoll, J. Chem. Phys. 126, 124101 (2007)
        Ag, Au : Obtained from the Peterson Research Group Website (tyr0.chem.wsu.edu/~kipeters) Feb. 2017
                 K. A. Peterson, C. Puzzarini, Theor. Chem. Acc. 114, 283 (2005)

----- AuxJ basis set information -----
Your calculation utilizes the auxiliary basis: aug-cc-pVTZ/JK 
  H, B-F, Al-Cl, Ga-Br : Obtained from the TURBOMOLE 7.0 basis set library

The basis set includes element-specific modifications.

Your calculation utilizes the auxiliary basis: cc-pVTZ/JK 
  H, B-F, Al-Cl, Ga-Br : Obtained from the TURBOMOLE 7.0 basis set library

----- AuxC basis set information -----
Your calculation utilizes the auxiliary basis: aug-cc-pVTZ/C 
  H-He, B-F, Al-Ar, Ga-Kr : Obtained from the EMSL Basis Set Exchange (bse.pnl.gov) Feb. 2017
                            F. Weigend, A. Kohn, C. Hattig, J. Chem. Phys. 116, 3175 (2002)
                   Be, Mg : Obtained from the TURBOMOLE 7.0 basis set library
                            C. Haettig, Phys. Chem. Chem. Phys. 7, 59 (2005)
                       Ne : Obtained from the EMSL Basis Set Exchange (bse.pnl.gov) Feb. 2017
                            C. Haettig, Phys. Chem. Chem. Phys. 7, 59 (2005)
                            F. Weigend, A. Kohn, C. Hattig, J. Chem. Phys. 116, 3175 (2002)
                    Sc-Zn : Obtained from the EMSL Basis Set Exchange (bse.pnl.gov) Feb. 2017
                            J. G. Hill, J. A. Platts, J. Chem. Phys. 128, 044104 (2008)

The basis set includes element-specific modifications.

Your calculation utilizes the auxiliary basis: cc-pVTZ/C 
  Obtained from the EMSL Basis Set Exchange (bse.pnl.gov) Feb. 2017
  H-He, B-F, Al-Ar, Ga-Kr : F. Weigend, A. Kohn, C. Hattig, J. Chem. Phys. 116, 3175 (2002)
             Li-Be, Na-Mg : C. Haettig, Phys. Chem. Chem. Phys. 7, 59 (2005)
                       Ne : C. Haettig, Phys. Chem. Chem. Phys. 7, 59 (2005)
                            F. Weigend, A. Kohn, C. Hattig, J. Chem. Phys. 116, 3175 (2002)
                    Sc-Zn : J. G. Hill, J. A. Platts, J. Chem. Phys. 128, 044104 (2008)

================================================================================
                                        WARNINGS
                       Please study these warnings very carefully!
================================================================================


WARNING: Geometry Optimization
  ===> : Switching off AutoStart
         For restart on a previous wavefunction, please use MOREAD

INFO   : the flag for use of the SHARK integral package has been found!



***************************************
The coordinates will be read from file: 
***************************************


Your calculation utilizes the SMD solvation module
Please cite in your paper:
A.V. Marenich, C.J. Cramer, D.G. Truhlar J. Phys. Chem. B, 113, (2009), 6378 

================================================================================

----- Orbital basis set information -----
Your calculation utilizes the basis: aug-cc-pVTZ 
    H, B-Ne : Obtained from the ccRepo (grant-hill.group.shef.ac.uk/ccrepo) Feb. 2017
              R. A. Kendall, T. H. Dunning, Jr., R. J. Harrison, J. Chem. Phys. 96, 6796 (1992)
         He : Obtained from the ccRepo (grant-hill.group.shef.ac.uk/ccrepo) Feb. 2017
              D. E. Woon, T. H. Dunning, Jr., J. Chem. Phys. 100, 2975 (1994)
  Li-Be, Na : Obtained from the ccRepo (grant-hill.group.shef.ac.uk/ccrepo) Feb. 2017
              B. P. Prascher, D. E. Woon, K. A. Peterson, T. H. Dunning, Jr., A. K. Wilson, Theor. Chem. Acc. 128, 69 (2011)
         Mg : Obtained from the Peterson Research Group Website (tyr0.chem.wsu.edu/~kipeters) Feb. 2017
              B. P. Prascher, D. E. Woon, K. A. Peterson, T. H. Dunning, Jr., A. K. Wilson, Theor. Chem. Acc. 128, 69 (2011)
      Al-Ar : Obtained from the ccRepo (grant-hill.group.shef.ac.uk/ccrepo) Feb. 2017
              D. E. Woon, T. H. Dunning, Jr., J. Chem. Phys. 98, 1358 (1993)
      Sc-Zn : Obtained from the ccRepo (grant-hill.group.shef.ac.uk/ccrepo) Feb. 2017
              N. B. Balabanov, K. A. Peterson, J. Chem. Phys. 123, 064107 (2005)
              N. B. Balabanov, K. A. Peterson, J. Chem. Phys. 125, 074110 (2006)
      Ga-Kr : Obtained from the ccRepo (grant-hill.group.shef.ac.uk/ccrepo) Feb. 2017
              A. K. Wilson, D. E. Woon, K. A. Peterson, T. H. Dunning, Jr., J. Chem. Phys. 110, 7667 (1999)
     Ag, Au : Obtained from the Peterson Research Group Website (tyr0.chem.wsu.edu/~kipeters) Feb. 2017
              K. A. Peterson, C. Puzzarini, Theor. Chem. Acc. 114, 283 (2005)

The basis set includes element-specific modifications.

Your calculation utilizes the basis: cc-pVTZ 
       H, B-Ne : Obtained from the ccRepo (grant-hill.group.shef.ac.uk/ccrepo) Feb. 2017
                 T. H. Dunning, Jr., J. Chem. Phys. 90, 1007 (1989)
            He : Obtained from the ccRepo (grant-hill.group.shef.ac.uk/ccrepo) Feb. 2017
                 D. E. Woon, T. H. Dunning, Jr., J. Chem. Phys. 100, 2975 (1994)
  Li-Be, Na-Mg : Obtained from the ccRepo (grant-hill.group.shef.ac.uk/ccrepo) Feb. 2017
                 B. P. Prascher, D. E. Woon, K. A. Peterson, T. H. Dunning, Jr., A. K. Wilson, Theor. Chem. Acc. 128, 69 (2011)
         Al-Ar : Obtained from the ccRepo (grant-hill.group.shef.ac.uk/ccrepo) Feb. 2017
                 D. E. Woon, T. H. Dunning, Jr., J. Chem. Phys. 98, 1358 (1993)
            Ca : Obtained from the Peterson Research Group Website (tyr0.chem.wsu.edu/~kipeters) Feb. 2017
                 J. Koput, K. A. Peterson, J. Phys. Chem. 106, 9595 (2002)
         Sc-Zn : Obtained from the ccRepo (grant-hill.group.shef.ac.uk/ccrepo) Feb. 2017
                 N. B. Balabanov, K. A. Peterson, J. Chem. Phys. 123, 064107 (2005)
                 N. B. Balabanov, K. A. Peterson, J. Chem. Phys. 125, 074110 (2006)
         Ga-Kr : Obtained from the ccRepo (grant-hill.group.shef.ac.uk/ccrepo) Feb. 2017
                 A. K. Wilson, D. E. Woon, K. A. Peterson, T. H. Dunning, Jr., J. Chem. Phys. 110, 7667 (1999)
             Y : Obtained from the ccRepo (grant-hill.group.shef.ac.uk/ccrepo) Feb. 2017
                 K. A. Peterson, D. Figgen, M. Dolg, H. Stoll, J. Chem. Phys. 126, 124101 (2007)
        Ag, Au : Obtained from the Peterson Research Group Website (tyr0.chem.wsu.edu/~kipeters) Feb. 2017
                 K. A. Peterson, C. Puzzarini, Theor. Chem. Acc. 114, 283 (2005)

----- AuxJ basis set information -----
Your calculation utilizes the auxiliary basis: aug-cc-pVTZ/JK 
  H, B-F, Al-Cl, Ga-Br : Obtained from the TURBOMOLE 7.0 basis set library

The basis set includes element-specific modifications.

Your calculation utilizes the auxiliary basis: cc-pVTZ/JK 
  H, B-F, Al-Cl, Ga-Br : Obtained from the TURBOMOLE 7.0 basis set library

----- AuxC basis set information -----
Your calculation utilizes the auxiliary basis: aug-cc-pVTZ/C 
  H-He, B-F, Al-Ar, Ga-Kr : Obtained from the EMSL Basis Set Exchange (bse.pnl.gov) Feb. 2017
                            F. Weigend, A. Kohn, C. Hattig, J. Chem. Phys. 116, 3175 (2002)
                   Be, Mg : Obtained from the TURBOMOLE 7.0 basis set library
                            C. Haettig, Phys. Chem. Chem. Phys. 7, 59 (2005)
                       Ne : Obtained from the EMSL Basis Set Exchange (bse.pnl.gov) Feb. 2017
                            C. Haettig, Phys. Chem. Chem. Phys. 7, 59 (2005)
                            F. Weigend, A. Kohn, C. Hattig, J. Chem. Phys. 116, 3175 (2002)
                    Sc-Zn : Obtained from the EMSL Basis Set Exchange (bse.pnl.gov) Feb. 2017
                            J. G. Hill, J. A. Platts, J. Chem. Phys. 128, 044104 (2008)

The basis set includes element-specific modifications.

Your calculation utilizes the auxiliary basis: cc-pVTZ/C 
  Obtained from the EMSL Basis Set Exchange (bse.pnl.gov) Feb. 2017
  H-He, B-F, Al-Ar, Ga-Kr : F. Weigend, A. Kohn, C. Hattig, J. Chem. Phys. 116, 3175 (2002)
             Li-Be, Na-Mg : C. Haettig, Phys. Chem. Chem. Phys. 7, 59 (2005)
                       Ne : C. Haettig, Phys. Chem. Chem. Phys. 7, 59 (2005)
                            F. Weigend, A. Kohn, C. Hattig, J. Chem. Phys. 116, 3175 (2002)
                    Sc-Zn : J. G. Hill, J. A. Platts, J. Chem. Phys. 128, 044104 (2008)

================================================================================
                                        WARNINGS
                       Please study these warnings very carefully!
================================================================================

INFO   : Checking CIS options ...

INFO   : the flag for use of the SHARK integral package has been found!

================================================================================
                                       INPUT FILE
================================================================================
NAME = b3lyp-train-5.inp
|  1> ! b3lyp aug-cc-PVTZ RIJCOSX Opt
|  2> %maxcore 4000
|  3> %basis
|  4>  AuxJ "aug-cc-PVTZ/JK"
|  5>  AuxC "aug-cc-PVTZ/C"
|  6>  newGTO H "cc-PVTZ" end
|  7>  newAuxJGTO H "cc-PVTZ/JK" end
|  8>  newAuxCGTO H "cc-PVTZ/C" end
|  9> end
| 10> %cpcm
| 11>  SMD true
| 12>  SMDsolvent "dichloromethane"
| 13> end
| 14> %pal nprocs 4 end
| 15> * xyz 0 1
| 16> O          1.37360       -3.19720        0.27300
| 17> N          0.43480       -2.34810        0.16420
| 18> C          0.68430       -1.00440        0.07990
| 19> C          2.06010       -0.58820        0.10840
| 20> C          2.45480        0.68660       -0.04490
| 21> C          3.81500        1.17730       -0.01470
| 22> C          4.03890        2.54900       -0.17530
| 23> C          5.31730        3.06950       -0.14920
| 24> C          6.40480        2.23130        0.03690
| 25> C          6.20080        0.86930        0.19610
| 26> C          4.92380        0.34560        0.17150
| 27> N         -0.28860       -0.11830       -0.00780
| 28> C         -1.55630       -0.49690       -0.04370
| 29> N         -2.54310        0.44490       -0.11120
| 30> C         -2.47310        1.83250       -0.12240
| 31> C         -3.65380        2.53130       -0.38160
| 32> C         -3.66330        3.91180       -0.39780
| 33> C         -2.49840        4.62010       -0.15350
| 34> C         -1.32800        3.93050        0.11450
| 35> C         -1.30690        2.54860        0.13460
| 36> C         -1.89660       -1.87410       -0.01220
| 37> C         -0.86350       -2.77240        0.12310
| 38> C         -1.05330       -4.24890        0.24110
| 39> C         -2.49650       -4.60850        0.56160
| 40> C         -3.42190       -3.84490       -0.37670
| 41> C         -3.32360       -2.34580       -0.10360
| 42> H          2.75490       -1.40150        0.25770
| 43> H          1.69090        1.43460       -0.21110
| 44> H          3.19350        3.20660       -0.32130
| 45> H          5.46950        4.13190       -0.27410
| 46> H          7.40580        2.63640        0.05730
| 47> H          7.04650        0.21260        0.34060
| 48> H          4.78350       -0.71650        0.29630
| 49> H         -3.47930        0.08000       -0.20720
| 50> H         -4.56780        1.98400       -0.57170
| 51> H         -4.58500        4.43650       -0.60230
| 52> H         -2.50570        5.69930       -0.16860
| 53> H         -0.41720        4.47550        0.31530
| 54> H         -0.40160        2.00990        0.35070
| 55> H         -0.73870       -4.71330       -0.69920
| 56> H         -0.36190       -4.61450        1.00560
| 57> H         -2.64230       -5.68350        0.45150
| 58> H         -2.72490       -4.34050        1.59530
| 59> H         -4.45570       -4.16960       -0.24700
| 60> H         -3.13190       -4.04740       -1.40980
| 61> H         -3.83910       -1.80770       -0.90550
| 62> H         -3.83470       -2.11390        0.83780
| 63> *
| 64> 
| 65> 
| 66> $new_job
| 67> ! b3lyp aug-cc-PVTZ RIJCOSX SP
| 68> %maxcore 4000
| 69> %basis
| 70>  AuxJ "aug-cc-PVTZ/JK"
| 71>  AuxC "aug-cc-PVTZ/C"
| 72>  newGTO H "cc-PVTZ" end
| 73>  newAuxJGTO H "cc-PVTZ/JK" end
| 74>  newAuxCGTO H "cc-PVTZ/C" end
| 75> end
| 76> %cpcm
| 77>  SMD true
| 78>  SMDsolvent "dichloromethane"
| 79> end
| 80> %pal nprocs 4 end
| 81> %tddft
| 82>  nroots 10
| 83>  maxdim 7
| 84> end
| 85> * xyzfile 0 1
| 86> 
| 87>                          ****END OF INPUT****
================================================================================


                 $$$$$$$$$$$$$$$$$$$$$$$$$$$$$$$$$$$$$$$$$$$$$$ 
                 $ THERE ARE  2 JOBS TO BE PROCESSED THIS RUN $
                 $$$$$$$$$$$$$$$$$$$$$$$$$$$$$$$$$$$$$$$$$$$$$$ 




                 $$$$$$$$$$$$$$$$  JOB NUMBER  1 $$$$$$$$$$$$$$


                       *****************************
                       * Geometry Optimization Run *
                       *****************************

Geometry optimization settings:
Update method            Update   .... BFGS
Choice of coordinates    CoordSys .... Z-matrix Internals
Initial Hessian          InHess   .... Almoef's Model

Convergence Tolerances:
Energy Change            TolE     ....  5.0000e-06 Eh
Max. Gradient            TolMAXG  ....  3.0000e-04 Eh/bohr
RMS Gradient             TolRMSG  ....  1.0000e-04 Eh/bohr
Max. Displacement        TolMAXD  ....  4.0000e-03 bohr
RMS Displacement         TolRMSD  ....  2.0000e-03 bohr
Strict Convergence                ....  False
------------------------------------------------------------------------------
                        ORCA OPTIMIZATION COORDINATE SETUP
------------------------------------------------------------------------------

The optimization will be done in new redundant internal coordinates
Making redundant internal coordinates   ...  (new redundants) done
Evaluating the initial hessian          ...  (Almloef) done
Evaluating the coordinates              ...  done
Calculating the B-matrix                .... done
Calculating the G-matrix                .... done
Diagonalizing the G-matrix              .... done
Small eigenvalue found = 2.257e-03
Small eigenvalue found = 6.688e-03
Small eigenvalue found = 1.039e-02
Small eigenvalue found = 1.451e-02
Small eigenvalue found = 1.975e-02
Small eigenvalue found = 2.567e-02
The first mode is                       ....  128
The number of degrees of freedom        ....  135

    -----------------------------------------------------------------
                    Redundant Internal Coordinates


    -----------------------------------------------------------------
         Definition                    Initial Value    Approx d2E/dq
    -----------------------------------------------------------------
      1. B(N   1,O   0)                  1.2705         0.777459   
      2. B(C   2,N   1)                  1.3693         0.603889   
      3. B(C   3,C   2)                  1.4377         0.524449   
      4. B(C   4,C   3)                  1.3433         0.741781   
      5. B(C   5,C   4)                  1.4463         0.508023   
      6. B(C   6,C   5)                  1.3991         0.604252   
      7. B(C   7,C   6)                  1.3805         0.646876   
      8. B(C   8,C   7)                  1.3856         0.634993   
      9. B(C   9,C   8)                  1.3864         0.633198   
     10. B(C  10,C   5)                  1.3985         0.605564   
     11. B(C  10,C   9)                  1.3804         0.647145   
     12. B(N  11,C   2)                  1.3189         0.726726   
     13. B(C  12,N  11)                  1.3235         0.714413   
     14. B(N  13,C  12)                  1.3658         0.611700   
     15. B(C  14,N  13)                  1.3894         0.560812   
     16. B(C  15,C  14)                  1.3963         0.610579   
     17. B(C  16,C  15)                  1.3806         0.646683   
     18. B(C  17,C  16)                  1.3850         0.636262   
     19. B(C  18,C  17)                  1.3846         0.637238   
     20. B(C  19,C  18)                  1.3822         0.642941   
     21. B(C  19,C  14)                  1.3924         0.619236   
     22. B(C  20,C  12)                  1.4190         0.561718   
     23. B(C  21,C  20)                  1.3757         0.658501   
     24. B(C  21,N   1)                  1.3665         0.610070   
     25. B(C  22,C  21)                  1.4933         0.427465   
     26. B(C  23,C  22)                  1.5215         0.385472   
     27. B(C  24,C  23)                  1.5231         0.383154   
     28. B(C  25,C  24)                  1.5269         0.377797   
     29. B(C  25,C  20)                  1.5057         0.408432   
     30. B(H  26,C   3)                  1.0800         0.373515   
     31. B(H  27,C   4)                  1.0820         0.370874   
     32. B(H  28,C   6)                  1.0810         0.372272   
     33. B(H  29,C   7)                  1.0805         0.372903   
     34. B(H  30,C   8)                  1.0801         0.373496   
     35. B(H  31,C   9)                  1.0804         0.372976   
     36. B(H  32,C  10)                  1.0786         0.375541   
     37. B(H  33,N  13)                  1.0094         0.433702   
     38. B(H  34,C  15)                  1.0822         0.370621   
     39. B(H  35,C  16)                  1.0801         0.373409   
     40. B(H  36,C  17)                  1.0793         0.374495   
     41. B(H  37,C  18)                  1.0802         0.373256   
     42. B(H  38,H  28)                  3.8482         0.000003   
     43. B(H  38,C  19)                  1.0754         0.379954   
     44. B(H  39,C  22)                  1.0949         0.353677   
     45. B(H  40,C  22)                  1.0937         0.355252   
     46. B(H  41,C  23)                  1.0904         0.359552   
     47. B(H  42,C  23)                  1.0920         0.357427   
     48. B(H  43,C  24)                  1.0913         0.358349   
     49. B(H  44,C  24)                  1.0920         0.357501   
     50. B(H  45,C  25)                  1.0947         0.353955   
     51. B(H  46,C  25)                  1.0960         0.352239   
     52. A(O   0,N   1,C   2)          121.7675         0.441146   
     53. A(C   2,N   1,C  21)          118.4229         0.425163   
     54. A(O   0,N   1,C  21)          119.8090         0.441959   
     55. A(N   1,C   2,N  11)          121.9379         0.438744   
     56. A(C   3,C   2,N  11)          120.8475         0.430566   
     57. A(N   1,C   2,C   3)          117.2096         0.416547   
     58. A(C   4,C   3,H  26)          122.7781         0.366126   
     59. A(C   2,C   3,C   4)          123.6190         0.435002   
     60. A(C   2,C   3,H  26)          113.6012         0.345211   
     61. A(C   3,C   4,H  27)          117.7854         0.365681   
     62. A(C   5,C   4,H  27)          115.6353         0.342964   
     63. A(C   3,C   4,C   5)          126.5791         0.432518   
     64. A(C   4,C   5,C   6)          118.7335         0.416939   
     65. A(C   6,C   5,C  10)          118.1291         0.430238   
     66. A(C   4,C   5,C  10)          123.1372         0.417100   
     67. A(C   5,C   6,C   7)          121.0417         0.435373   
     68. A(C   7,C   6,H  28)          119.8289         0.357468   
     69. A(C   5,C   6,H  28)          119.1294         0.353358   
     70. A(C   6,C   7,C   8)          120.0829         0.439286   
     71. A(C   6,C   7,H  29)          119.9317         0.357571   
     72. A(C   8,C   7,H  29)          119.9854         0.356447   
     73. A(C   7,C   8,H  30)          120.2022         0.356543   
     74. A(C   9,C   8,H  30)          120.1781         0.356372   
     75. A(C   7,C   8,C   9)          119.6197         0.437595   
     76. A(C  10,C   9,H  31)          119.7282         0.357608   
     77. A(C   8,C   9,C  10)          120.4497         0.439094   
     78. A(C   8,C   9,H  31)          119.8221         0.356287   
     79. A(C   9,C  10,H  32)          119.4623         0.358025   
     80. A(C   5,C  10,H  32)          119.8608         0.354012   
     81. A(C   5,C  10,C   9)          120.6768         0.435576   
     82. A(C   2,N  11,C  12)          121.0766         0.452304   
     83. A(N  11,C  12,C  20)          120.4471         0.434575   
     84. A(N  13,C  12,C  20)          119.8081         0.422645   
     85. A(N  11,C  12,N  13)          119.7448         0.438408   
     86. A(C  14,N  13,H  33)          114.0166         0.352751   
     87. A(C  12,N  13,H  33)          115.1859         0.357987   
     88. A(C  12,N  13,C  14)          130.7436         0.419779   
     89. A(C  15,C  14,C  19)          119.0191         0.432776   
     90. A(N  13,C  14,C  19)          123.6637         0.423449   
     91. A(N  13,C  14,C  15)          117.3045         0.422385   
     92. A(C  14,C  15,H  34)          119.5844         0.353716   
     93. A(C  16,C  15,H  34)          119.8564         0.357180   
     94. A(C  14,C  15,C  16)          120.5592         0.436167   
     95. A(C  17,C  16,H  35)          120.1767         0.356650   
     96. A(C  15,C  16,H  35)          119.5924         0.357635   
     97. A(C  15,C  16,C  17)          120.2309         0.439420   
     98. A(C  16,C  17,H  36)          120.2101         0.356826   
     99. A(C  16,C  17,C  18)          119.3650         0.438255   
    100. A(C  18,C  17,H  36)          120.4245         0.356918   
    101. A(C  19,C  18,H  37)          119.2640         0.357258   
    102. A(C  17,C  18,H  37)          119.8285         0.356718   
    103. A(C  17,C  18,C  19)          120.9070         0.439082   
    104. A(C  14,C  19,C  18)          119.9138         0.436818   
    105. A(C  18,C  19,H  38)          121.1042         0.358340   
    106. A(C  14,C  19,H  38)          118.9815         0.356060   
    107. A(C  12,C  20,C  21)          117.1191         0.431074   
    108. A(C  12,C  20,C  25)          122.0046         0.396022   
    109. A(C  21,C  20,C  25)          120.8715         0.407270   
    110. A(N   1,C  21,C  20)          120.9103         0.434660   
    111. A(C  20,C  21,C  22)          123.9140         0.410568   
    112. A(N   1,C  21,C  22)          115.1751         0.402455   
    113. A(H  39,C  22,H  40)          106.0742         0.289403   
    114. A(C  21,C  22,H  40)          107.7824         0.330863   
    115. A(C  21,C  22,C  23)          111.7709         0.373862   
    116. A(C  23,C  22,H  39)          110.6839         0.325031   
    117. A(C  21,C  22,H  39)          108.3602         0.330620   
    118. A(C  23,C  22,H  40)          111.9253         0.325269   
    119. A(C  24,C  23,H  42)          109.4525         0.325272   
    120. A(C  22,C  23,H  42)          109.8641         0.325595   
    121. A(C  24,C  23,H  41)          110.5372         0.325590   
    122. A(C  22,C  23,H  41)          109.7899         0.325913   
    123. A(C  22,C  23,C  24)          109.1508         0.366893   
    124. A(H  41,C  23,H  42)          108.0325         0.290430   
    125. A(H  43,C  24,H  44)          107.9893         0.290287   
    126. A(C  25,C  24,H  44)          109.5226         0.324532   
    127. A(C  23,C  24,H  44)          109.1779         0.325284   
    128. A(C  25,C  24,H  43)          109.3799         0.324658   
    129. A(C  23,C  24,H  43)          110.6813         0.325410   
    130. A(C  23,C  24,C  25)          110.0541         0.365631   
    131. A(H  45,C  25,H  46)          107.7941         0.289053   
    132. A(C  24,C  25,H  46)          109.3496         0.323742   
    133. A(C  20,C  25,H  46)          108.8763         0.327922   
    134. A(C  24,C  25,H  45)          108.7392         0.324001   
    135. A(C  20,C  25,H  45)          109.6801         0.328185   
    136. A(C  20,C  25,C  24)          112.2983         0.369660   
    137. D(N  11,C   2,N   1,C  21)      1.5832         0.029413   
    138. D(C   3,C   2,N   1,C  21)   -179.2192         0.029413   
    139. D(C   3,C   2,N   1,O   0)      0.4978         0.029413   
    140. D(N  11,C   2,N   1,O   0)   -178.6997         0.029413   
    141. D(C   4,C   3,C   2,N  11)     -4.8789         0.018765   
    142. D(C   4,C   3,C   2,N   1)    175.9143         0.018765   
    143. D(H  26,C   3,C   2,N  11)    175.5865         0.018765   
    144. D(H  26,C   3,C   2,N   1)     -3.6203         0.018765   
    145. D(H  27,C   4,C   3,H  26)    178.6916         0.039158   
    146. D(C   5,C   4,C   3,C   2)    179.3615         0.039158   
    147. D(H  27,C   4,C   3,C   2)     -0.8011         0.039158   
    148. D(C   5,C   4,C   3,H  26)     -1.1458         0.039158   
    149. D(C  10,C   5,C   4,C   3)      0.7097         0.017586   
    150. D(C  10,C   5,C   4,H  27)   -179.1308         0.017586   
    151. D(C   6,C   5,C   4,H  27)      1.0438         0.017586   
    152. D(C   6,C   5,C   4,C   3)   -179.1157         0.017586   
    153. D(C   7,C   6,C   5,C  10)     -0.0894         0.025190   
    154. D(H  28,C   6,C   5,C   4)     -0.2265         0.025190   
    155. D(C   7,C   6,C   5,C   4)    179.7448         0.025190   
    156. D(H  28,C   6,C   5,C  10)    179.9393         0.025190   
    157. D(H  29,C   7,C   6,H  28)      0.0337         0.029116   
    158. D(H  29,C   7,C   6,C   5)   -179.9374         0.029116   
    159. D(C   8,C   7,C   6,H  28)   -179.9660         0.029116   
    160. D(C   8,C   7,C   6,C   5)      0.0629         0.029116   
    161. D(H  30,C   8,C   7,C   6)    179.9787         0.027986   
    162. D(H  30,C   8,C   7,H  29)     -0.0210         0.027986   
    163. D(C   9,C   8,C   7,C   6)      0.0128         0.027986   
    164. D(C   9,C   8,C   7,H  29)   -179.9869         0.027986   
    165. D(C  10,C   9,C   8,H  30)    179.9741         0.027818   
    166. D(C  10,C   9,C   8,C   7)     -0.0600         0.027818   
    167. D(H  31,C   9,C   8,C   7)    179.9490         0.027818   
    168. D(H  31,C   9,C   8,H  30)     -0.0169         0.027818   
    169. D(H  32,C  10,C   9,H  31)     -0.0506         0.029142   
    170. D(C   5,C  10,C   9,H  31)   -179.9769         0.029142   
    171. D(C   5,C  10,C   9,C   8)      0.0320         0.029142   
    172. D(H  32,C  10,C   5,C   6)   -179.8842         0.025306   
    173. D(H  32,C  10,C   5,C   4)      0.2894         0.025306   
    174. D(H  32,C  10,C   9,C   8)    179.9583         0.029142   
    175. D(C   9,C  10,C   5,C   6)      0.0419         0.025306   
    176. D(C   9,C  10,C   5,C   4)   -179.7845         0.025306   
    177. D(C  12,N  11,C   2,C   3)    179.5281         0.039845   
    178. D(C  12,N  11,C   2,N   1)     -1.3032         0.039845   
    179. D(C  20,C  12,N  11,C   2)     -1.1248         0.038374   
    180. D(N  13,C  12,N  11,C   2)    178.8596         0.038374   
    181. D(H  33,N  13,C  12,C  20)     -4.5445         0.030236   
    182. D(C  14,N  13,C  12,C  20)    178.3242         0.030236   
    183. D(H  33,N  13,C  12,N  11)    175.4709         0.030236   
    184. D(C  14,N  13,C  12,N  11)     -1.6603         0.030236   
    185. D(C  19,C  14,N  13,H  33)    173.0555         0.025122   
    186. D(C  15,C  14,N  13,H  33)     -5.6317         0.025122   
    187. D(C  15,C  14,N  13,C  12)    171.5262         0.025122   
    188. D(C  19,C  14,N  13,C  12)     -9.7866         0.025122   
    189. D(H  34,C  15,C  14,C  19)   -179.3274         0.025750   
    190. D(H  34,C  15,C  14,N  13)     -0.5769         0.025750   
    191. D(C  16,C  15,C  14,C  19)      0.7096         0.025750   
    192. D(C  16,C  15,C  14,N  13)    179.4601         0.025750   
    193. D(H  35,C  16,C  15,C  14)    179.8585         0.029097   
    194. D(H  35,C  16,C  15,H  34)     -0.1044         0.029097   
    195. D(C  17,C  16,C  15,H  34)    179.9004         0.029097   
    196. D(C  17,C  16,C  15,C  14)     -0.1366         0.029097   
    197. D(H  36,C  17,C  16,C  15)    179.8521         0.028105   
    198. D(C  18,C  17,C  16,H  35)    179.6250         0.028105   
    199. D(C  18,C  17,C  16,C  15)     -0.3799         0.028105   
    200. D(H  36,C  17,C  16,H  35)     -0.1430         0.028105   
    201. D(H  37,C  18,C  17,H  36)      0.3436         0.028197   
    202. D(H  37,C  18,C  17,C  16)   -179.4239         0.028197   
    203. D(C  19,C  18,C  17,H  36)   -179.9132         0.028197   
    204. D(C  19,C  18,C  17,C  16)      0.3193         0.028197   
    205. D(H  38,C  19,C  18,H  37)      0.2757         0.028739   
    206. D(H  38,C  19,C  18,C  17)   -179.4689         0.028739   
    207. D(C  14,C  19,C  18,H  37)   -179.9956         0.028739   
    208. D(C  14,C  19,C  18,C  17)      0.2598         0.028739   
    209. D(H  38,C  19,C  14,C  15)    178.9673         0.026530   
    210. D(H  38,C  19,C  14,N  13)      0.3013         0.026530   
    211. D(C  18,C  19,C  14,C  15)     -0.7672         0.026530   
    212. D(C  18,C  19,C  14,N  13)   -179.4332         0.026530   
    213. D(C  25,C  20,C  12,N  13)      2.3672         0.021618   
    214. D(C  25,C  20,C  12,N  11)   -177.6484         0.021618   
    215. D(C  21,C  20,C  12,N  13)   -176.8459         0.021618   
    216. D(C  21,C  20,C  12,N  11)      3.1386         0.021618   
    217. D(C  22,C  21,C  20,C  25)     -2.3620         0.030248   
    218. D(C  22,C  21,C  20,C  12)    176.8605         0.030248   
    219. D(N   1,C  21,C  20,C  25)    177.9412         0.030248   
    220. D(N   1,C  21,C  20,C  12)     -2.8363         0.030248   
    221. D(C  22,C  21,N   1,C   2)   -179.1267         0.030063   
    222. D(C  22,C  21,N   1,O   0)      1.1505         0.030063   
    223. D(C  20,C  21,N   1,C   2)      0.5952         0.030063   
    224. D(C  20,C  21,N   1,O   0)   -179.1275         0.030063   
    225. D(H  40,C  22,C  21,C  20)   -138.4476         0.013499   
    226. D(H  40,C  22,C  21,N   1)     41.2650         0.013499   
    227. D(H  39,C  22,C  21,C  20)    107.1707         0.013499   
    228. D(H  39,C  22,C  21,N   1)    -73.1167         0.013499   
    229. D(C  23,C  22,C  21,C  20)    -15.0572         0.013499   
    230. D(C  23,C  22,C  21,N   1)    164.6554         0.013499   
    231. D(H  42,C  23,C  22,H  39)    166.9340         0.011826   
    232. D(H  42,C  23,C  22,C  21)    -72.1796         0.011826   
    233. D(H  41,C  23,C  22,H  40)    -69.8374         0.011826   
    234. D(H  41,C  23,C  22,H  39)     48.2617         0.011826   
    235. D(H  41,C  23,C  22,C  21)    169.1481         0.011826   
    236. D(C  24,C  23,C  22,H  40)    168.8549         0.011826   
    237. D(C  24,C  23,C  22,H  39)    -73.0459         0.011826   
    238. D(H  42,C  23,C  22,H  40)     48.8348         0.011826   
    239. D(C  24,C  23,C  22,C  21)     47.8405         0.011826   
    240. D(H  44,C  24,C  23,H  42)    175.0076         0.011691   
    241. D(H  44,C  24,C  23,C  22)     54.7344         0.011691   
    242. D(H  43,C  24,C  23,H  42)    -66.2545         0.011691   
    243. D(H  43,C  24,C  23,H  41)     52.6199         0.011691   
    244. D(H  43,C  24,C  23,C  22)    173.4723         0.011691   
    245. D(C  25,C  24,C  23,H  42)     54.7683         0.011691   
    246. D(H  44,C  24,C  23,H  41)    -66.1180         0.011691   
    247. D(C  25,C  24,C  23,H  41)    173.6427         0.011691   
    248. D(C  25,C  24,C  23,C  22)    -65.5049         0.011691   
    249. D(H  46,C  25,C  24,H  43)     48.4094         0.011383   
    250. D(H  46,C  25,C  24,C  23)    -73.3904         0.011383   
    251. D(H  45,C  25,C  24,H  44)     49.1172         0.011383   
    252. D(H  45,C  25,C  24,C  23)    169.1480         0.011383   
    253. D(C  20,C  25,C  24,H  44)    -72.4491         0.011383   
    254. D(C  20,C  25,C  24,H  43)    169.3815         0.011383   
    255. D(C  20,C  25,C  24,C  23)     47.5817         0.011383   
    256. D(H  46,C  25,C  20,C  21)    107.0312         0.012359   
    257. D(H  46,C  25,C  20,C  12)    -72.1528         0.012359   
    258. D(H  45,C  25,C  24,H  43)    -69.0523         0.011383   
    259. D(H  45,C  25,C  20,C  21)   -135.2397         0.012359   
    260. D(H  45,C  25,C  20,C  12)     45.5763         0.012359   
    261. D(C  24,C  25,C  20,C  21)    -14.2128         0.012359   
    262. D(H  46,C  25,C  24,H  44)    166.5788         0.011383   
    263. D(C  24,C  25,C  20,C  12)    166.6033         0.012359   
    -----------------------------------------------------------------

Number of atoms                         .... 47
Number of degrees of freedom            .... 263

         *************************************************************
         *                GEOMETRY OPTIMIZATION CYCLE   1            *
         *************************************************************
---------------------------------
CARTESIAN COORDINATES (ANGSTROEM)
---------------------------------
  O      1.373600   -3.197200    0.273000
  N      0.434800   -2.348100    0.164200
  C      0.684300   -1.004400    0.079900
  C      2.060100   -0.588200    0.108400
  C      2.454800    0.686600   -0.044900
  C      3.815000    1.177300   -0.014700
  C      4.038900    2.549000   -0.175300
  C      5.317300    3.069500   -0.149200
  C      6.404800    2.231300    0.036900
  C      6.200800    0.869300    0.196100
  C      4.923800    0.345600    0.171500
  N     -0.288600   -0.118300   -0.007800
  C     -1.556300   -0.496900   -0.043700
  N     -2.543100    0.444900   -0.111200
  C     -2.473100    1.832500   -0.122400
  C     -3.653800    2.531300   -0.381600
  C     -3.663300    3.911800   -0.397800
  C     -2.498400    4.620100   -0.153500
  C     -1.328000    3.930500    0.114500
  C     -1.306900    2.548600    0.134600
  C     -1.896600   -1.874100   -0.012200
  C     -0.863500   -2.772400    0.123100
  C     -1.053300   -4.248900    0.241100
  C     -2.496500   -4.608500    0.561600
  C     -3.421900   -3.844900   -0.376700
  C     -3.323600   -2.345800   -0.103600
  H      2.754900   -1.401500    0.257700
  H      1.690900    1.434600   -0.211100
  H      3.193500    3.206600   -0.321300
  H      5.469500    4.131900   -0.274100
  H      7.405800    2.636400    0.057300
  H      7.046500    0.212600    0.340600
  H      4.783500   -0.716500    0.296300
  H     -3.479300    0.080000   -0.207200
  H     -4.567800    1.984000   -0.571700
  H     -4.585000    4.436500   -0.602300
  H     -2.505700    5.699300   -0.168600
  H     -0.417200    4.475500    0.315300
  H     -0.401600    2.009900    0.350700
  H     -0.738700   -4.713300   -0.699200
  H     -0.361900   -4.614500    1.005600
  H     -2.642300   -5.683500    0.451500
  H     -2.724900   -4.340500    1.595300
  H     -4.455700   -4.169600   -0.247000
  H     -3.131900   -4.047400   -1.409800
  H     -3.839100   -1.807700   -0.905500
  H     -3.834700   -2.113900    0.837800

----------------------------
CARTESIAN COORDINATES (A.U.)
----------------------------
  NO LB      ZA    FRAG     MASS         X           Y           Z
   0 O     8.0000    0    15.999    2.595728   -6.041832    0.515895
   1 N     7.0000    0    14.007    0.821653   -4.437266    0.310293
   2 C     6.0000    0    12.011    1.293140   -1.898041    0.150989
   3 C     6.0000    0    12.011    3.893025   -1.111537    0.204846
   4 C     6.0000    0    12.011    4.638900    1.297486   -0.084849
   5 C     6.0000    0    12.011    7.209305    2.224775   -0.027779
   6 C     6.0000    0    12.011    7.632415    4.816912   -0.331269
   7 C     6.0000    0    12.011   10.048241    5.800514   -0.281947
   8 C     6.0000    0    12.011   12.103318    4.216546    0.069731
   9 C     6.0000    0    12.011   11.717814    1.642739    0.370575
  10 C     6.0000    0    12.011    9.304634    0.653089    0.324088
  11 N     7.0000    0    14.007   -0.545375   -0.223555   -0.014740
  12 C     6.0000    0    12.011   -2.940981   -0.939005   -0.082581
  13 N     7.0000    0    14.007   -4.805763    0.840739   -0.210138
  14 C     6.0000    0    12.011   -4.673482    3.462923   -0.231302
  15 C     6.0000    0    12.011   -6.904681    4.783464   -0.721119
  16 C     6.0000    0    12.011   -6.922634    7.392231   -0.751733
  17 C     6.0000    0    12.011   -4.721292    8.730724   -0.290073
  18 C     6.0000    0    12.011   -2.509556    7.427569    0.216374
  19 C     6.0000    0    12.011   -2.469683    4.816156    0.254357
  20 C     6.0000    0    12.011   -3.584055   -3.541536   -0.023055
  21 C     6.0000    0    12.011   -1.631779   -5.239077    0.232625
  22 C     6.0000    0    12.011   -1.990449   -8.029257    0.455613
  23 C     6.0000    0    12.011   -4.717701   -8.708803    1.061270
  24 C     6.0000    0    12.011   -6.466454   -7.265808   -0.711860
  25 C     6.0000    0    12.011   -6.280694   -4.432920   -0.195776
  26 H     1.0000    0     1.008    5.206007   -2.648451    0.486982
  27 H     1.0000    0     1.008    3.195338    2.711001   -0.398921
  28 H     1.0000    0     1.008    6.034840    6.059596   -0.607169
  29 H     1.0000    0     1.008   10.335857    7.808159   -0.517974
  30 H     1.0000    0     1.008   13.994934    4.982074    0.108281
  31 H     1.0000    0     1.008   13.315955    0.401756    0.643641
  32 H     1.0000    0     1.008    9.039505   -1.353989    0.559926
  33 H     1.0000    0     1.008   -6.574924    0.151178   -0.391551
  34 H     1.0000    0     1.008   -8.631891    3.749217   -1.080356
  35 H     1.0000    0     1.008   -8.664394    8.383770   -1.138182
  36 H     1.0000    0     1.008   -4.735087   10.770116   -0.318608
  37 H     1.0000    0     1.008   -0.788394    8.457469    0.595831
  38 H     1.0000    0     1.008   -0.758914    3.798161    0.662727
  39 H     1.0000    0     1.008   -1.395941   -8.906846   -1.321297
  40 H     1.0000    0     1.008   -0.683892   -8.720141    1.900309
  41 H     1.0000    0     1.008   -4.993223  -10.740258    0.853211
  42 H     1.0000    0     1.008   -5.149315   -8.202356    3.014680
  43 H     1.0000    0     1.008   -8.420053   -7.879402   -0.466762
  44 H     1.0000    0     1.008   -5.918433   -7.648478   -2.664136
  45 H     1.0000    0     1.008   -7.254848   -3.416058   -1.711147
  46 H     1.0000    0     1.008   -7.246533   -3.994692    1.583213

--------------------------------
INTERNAL COORDINATES (ANGSTROEM)
--------------------------------
 O      0   0   0     0.000000000000     0.00000000     0.00000000
 N      1   0   0     1.270493482864     0.00000000     0.00000000
 C      2   1   0     1.369264923234   121.76754634     0.00000000
 C      3   2   1     1.437657932194   117.20963503     0.49781239
 C      4   3   2     1.343281065154   123.61898798   175.91428659
 C      5   4   3     1.446320355246   126.57910677   179.36146582
 C      6   5   4     1.399101304409   118.73345474   180.88431215
 C      7   6   5     1.380546275936   121.04165789   179.74483538
 C      8   7   6     1.385593266439   120.08291397     0.06286992
 C      9   8   7     1.386363819493   119.61971367     0.00000000
 C     10   9   8     1.380433210988   120.44973365   359.94001004
 N      3   2   1     1.318862733570   121.93793572   181.30029250
 C     12   3   2     1.323514284018   121.07661849   358.69678013
 N     13  12   3     1.365766352639   119.74480063   178.85963529
 C     14  13  12     1.389409658812   130.74358042   358.33970763
 C     15  14  13     1.396265938136   117.30450323   171.52621974
 C     16  15  14     1.380627734040   120.55919340   179.46007457
 C     17  16  15     1.385049959388   120.23085549   359.86338244
 C     18  17  16     1.384632918863   119.36500884   359.62012446
 C     19  18  17     1.382207231207   120.90696919     0.31928091
 C     13  12   3     1.418970112441   120.44706267   358.87519667
 C      2   1   3     1.366492806421   119.80897786   179.71322338
 C     22   2   1     1.493318549406   115.17509735     1.15050269
 C     23  22   2     1.521465954269   111.77087799   164.65536493
 C     24  23  22     1.523107681682   109.15079548    47.84046257
 C     21  13  12     1.505717055094   122.00461572   182.35162322
 H      4   3   2     1.080043712078   113.60121253   356.37973110
 H      5   4   3     1.081974884182   117.78542253   359.19890252
 H      7   6   5     1.080950933206   119.12941618   359.77353740
 H      8   7   6     1.080489986071   119.93165720   180.06258642
 H      9   8   7     1.080057021643   120.20220795   179.97869116
 H     10   9   8     1.080436777419   119.82206061   179.94897204
 H     11  10   9     1.078571063955   119.46232136   179.95832820
 H     14  13  12     1.009375277090   115.18587381   175.47092113
 H     16  15  14     1.082160477933   119.58440217   359.42311057
 H     17  16  15     1.080120933044   119.59244863   179.85848932
 H     18  17  16     1.079330320152   120.21006050   179.85211772
 H     19  18  17     1.080232512008   119.82852509   180.57608272
 H     20  19  18     1.075390622053   121.10419894   180.53109237
 H     23  22   2     1.094899360672   108.36024370   286.88327770
 H     23  22   2     1.093689887491   107.78237906    41.26498802
 H     24  23  22     1.090414898101   109.78992196   169.14813840
 H     24  23  22     1.092028502375   109.86405158   287.82039028
 H     25  24  23     1.091326999574   110.68125220   173.47231466
 H     25  24  23     1.091971547248   109.17792947    54.73444486
 H     26  21  13     1.094685100840   109.68009985    45.57632178
 H     26  21  13     1.096008567485   108.87631221   287.84720690

---------------------------
INTERNAL COORDINATES (A.U.)
---------------------------
 O      0   0   0     0.000000000000     0.00000000     0.00000000
 N      1   0   0     2.400884737545     0.00000000     0.00000000
 C      2   1   0     2.587535709698   121.76754634     0.00000000
 C      3   2   1     2.716779766106   117.20963503     0.49781239
 C      4   3   2     2.538433334022   123.61898798   175.91428659
 C      5   4   3     2.733149373331   126.57910677   179.36146582
 C      6   5   4     2.643918298946   118.73345474   180.88431215
 C      7   6   5     2.608854376723   121.04165789   179.74483538
 C      8   7   6     2.618391806574   120.08291397     0.06286992
 C      9   8   7     2.619847940819   119.61971367     0.00000000
 C     10   9   8     2.608640714938   120.44973365   359.94001004
 N      3   2   1     2.492289374682   121.93793572   181.30029250
 C     12   3   2     2.501079531127   121.07661849   358.69678013
 N     13  12   3     2.580924369412   119.74480063   178.85963529
 C     14  13  12     2.625603742980   130.74358042   358.33970763
 C     15  14  13     2.638560233200   117.30450323   171.52621974
 C     16  15  14     2.609008310232   120.55919340   179.46007457
 C     17  16  15     2.617365105042   120.23085549   359.86338244
 C     18  17  16     2.616577012664   119.36500884   359.62012446
 C     19  18  17     2.611993127306   120.90696919     0.31928091
 C     13  12   3     2.681464904732   120.44706267   358.87519667
 C      2   1   3     2.582297168109   119.80897786   179.71322338
 C     22   2   1     2.821963089082   115.17509735     1.15050269
 C     23  22   2     2.875153975654   111.77087799   164.65536493
 C     24  23  22     2.878256390851   109.15079548    47.84046257
 C     21  13  12     2.845392869301   122.00461572   182.35162322
 H      4   3   2     2.040986828492   113.60121253   356.37973110
 H      5   4   3     2.044636214885   117.78542253   359.19890252
 H      7   6   5     2.042701227967   119.12941618   359.77353740
 H      8   7   6     2.041830164119   119.93165720   180.06258642
 H      9   8   7     2.041011979924   120.20220795   179.97869116
 H     10   9   8     2.041729614339   119.82206061   179.94897204
 H     11  10   9     2.038203926846   119.46232136   179.95832820
 H     14  13  12     1.907442840050   115.18587381   175.47092113
 H     16  15  14     2.044986936247   119.58440217   359.42311057
 H     17  16  15     2.041132754969   119.59244863   179.85848932
 H     18  17  16     2.039638713125   120.21006050   179.85211772
 H     19  18  17     2.041343608654   119.82852509   180.57608272
 H     20  19  18     2.032193762668   121.10419894   180.53109237
 H     23  22   2     2.069059935876   108.36024370   286.88327770
 H     23  22   2     2.066774362797   107.78237906    41.26498802
 H     24  23  22     2.060585529758   109.78992196   169.14813840
 H     24  23  22     2.063634799925   109.86405158   287.82039028
 H     25  24  23     2.062309151750   110.68125220   173.47231466
 H     25  24  23     2.063527170334   109.17792947    54.73444486
 H     26  21  13     2.068655043471   109.68009985    45.57632178
 H     26  21  13     2.071156032978   108.87631221   287.84720690

---------------------
BASIS SET INFORMATION
---------------------
There are 4 groups of distinct atoms

 Group   1 Type O   : 19s6p3d2f contracted to 5s4p3d2f pattern {88111/3111/111/11}
 Group   2 Type N   : 19s6p3d2f contracted to 5s4p3d2f pattern {88111/3111/111/11}
 Group   3 Type C   : 19s6p3d2f contracted to 5s4p3d2f pattern {88111/3111/111/11}
 Group   4 Type H   : 5s2p1d contracted to 3s2p1d pattern {311/11/1}

Atom   0O    basis set group =>   1
Atom   1N    basis set group =>   2
Atom   2C    basis set group =>   3
Atom   3C    basis set group =>   3
Atom   4C    basis set group =>   3
Atom   5C    basis set group =>   3
Atom   6C    basis set group =>   3
Atom   7C    basis set group =>   3
Atom   8C    basis set group =>   3
Atom   9C    basis set group =>   3
Atom  10C    basis set group =>   3
Atom  11N    basis set group =>   2
Atom  12C    basis set group =>   3
Atom  13N    basis set group =>   2
Atom  14C    basis set group =>   3
Atom  15C    basis set group =>   3
Atom  16C    basis set group =>   3
Atom  17C    basis set group =>   3
Atom  18C    basis set group =>   3
Atom  19C    basis set group =>   3
Atom  20C    basis set group =>   3
Atom  21C    basis set group =>   3
Atom  22C    basis set group =>   3
Atom  23C    basis set group =>   3
Atom  24C    basis set group =>   3
Atom  25C    basis set group =>   3
Atom  26H    basis set group =>   4
Atom  27H    basis set group =>   4
Atom  28H    basis set group =>   4
Atom  29H    basis set group =>   4
Atom  30H    basis set group =>   4
Atom  31H    basis set group =>   4
Atom  32H    basis set group =>   4
Atom  33H    basis set group =>   4
Atom  34H    basis set group =>   4
Atom  35H    basis set group =>   4
Atom  36H    basis set group =>   4
Atom  37H    basis set group =>   4
Atom  38H    basis set group =>   4
Atom  39H    basis set group =>   4
Atom  40H    basis set group =>   4
Atom  41H    basis set group =>   4
Atom  42H    basis set group =>   4
Atom  43H    basis set group =>   4
Atom  44H    basis set group =>   4
Atom  45H    basis set group =>   4
Atom  46H    basis set group =>   4
---------------------------------
AUXILIARY/J BASIS SET INFORMATION
---------------------------------
There are 4 groups of distinct atoms

 Group   1 Type O   : 10s7p5d2f1g contracted to 10s7p5d2f1g pattern {1111111111/1111111/11111/11/1}
 Group   2 Type N   : 10s7p5d2f1g contracted to 10s7p5d2f1g pattern {1111111111/1111111/11111/11/1}
 Group   3 Type C   : 10s7p5d2f1g contracted to 10s7p5d2f1g pattern {1111111111/1111111/11111/11/1}
 Group   4 Type H   : 4s3p2d1f contracted to 4s3p2d1f pattern {1111/111/11/1}

Atom   0O    basis set group =>   1
Atom   1N    basis set group =>   2
Atom   2C    basis set group =>   3
Atom   3C    basis set group =>   3
Atom   4C    basis set group =>   3
Atom   5C    basis set group =>   3
Atom   6C    basis set group =>   3
Atom   7C    basis set group =>   3
Atom   8C    basis set group =>   3
Atom   9C    basis set group =>   3
Atom  10C    basis set group =>   3
Atom  11N    basis set group =>   2
Atom  12C    basis set group =>   3
Atom  13N    basis set group =>   2
Atom  14C    basis set group =>   3
Atom  15C    basis set group =>   3
Atom  16C    basis set group =>   3
Atom  17C    basis set group =>   3
Atom  18C    basis set group =>   3
Atom  19C    basis set group =>   3
Atom  20C    basis set group =>   3
Atom  21C    basis set group =>   3
Atom  22C    basis set group =>   3
Atom  23C    basis set group =>   3
Atom  24C    basis set group =>   3
Atom  25C    basis set group =>   3
Atom  26H    basis set group =>   4
Atom  27H    basis set group =>   4
Atom  28H    basis set group =>   4
Atom  29H    basis set group =>   4
Atom  30H    basis set group =>   4
Atom  31H    basis set group =>   4
Atom  32H    basis set group =>   4
Atom  33H    basis set group =>   4
Atom  34H    basis set group =>   4
Atom  35H    basis set group =>   4
Atom  36H    basis set group =>   4
Atom  37H    basis set group =>   4
Atom  38H    basis set group =>   4
Atom  39H    basis set group =>   4
Atom  40H    basis set group =>   4
Atom  41H    basis set group =>   4
Atom  42H    basis set group =>   4
Atom  43H    basis set group =>   4
Atom  44H    basis set group =>   4
Atom  45H    basis set group =>   4
Atom  46H    basis set group =>   4
---------------------------------
AUXILIARY/C BASIS SET INFORMATION
---------------------------------
There are 4 groups of distinct atoms

 Group   1 Type O   : 9s7p6d4f2g contracted to 9s7p6d4f2g pattern {111111111/1111111/111111/1111/11}
 Group   2 Type N   : 9s7p6d4f2g contracted to 9s7p6d4f2g pattern {111111111/1111111/111111/1111/11}
 Group   3 Type C   : 9s7p6d4f2g contracted to 9s7p6d4f2g pattern {111111111/1111111/111111/1111/11}
 Group   4 Type H   : 4s3p2d1f contracted to 4s3p2d1f pattern {1111/111/11/1}

Atom   0O    basis set group =>   1
Atom   1N    basis set group =>   2
Atom   2C    basis set group =>   3
Atom   3C    basis set group =>   3
Atom   4C    basis set group =>   3
Atom   5C    basis set group =>   3
Atom   6C    basis set group =>   3
Atom   7C    basis set group =>   3
Atom   8C    basis set group =>   3
Atom   9C    basis set group =>   3
Atom  10C    basis set group =>   3
Atom  11N    basis set group =>   2
Atom  12C    basis set group =>   3
Atom  13N    basis set group =>   2
Atom  14C    basis set group =>   3
Atom  15C    basis set group =>   3
Atom  16C    basis set group =>   3
Atom  17C    basis set group =>   3
Atom  18C    basis set group =>   3
Atom  19C    basis set group =>   3
Atom  20C    basis set group =>   3
Atom  21C    basis set group =>   3
Atom  22C    basis set group =>   3
Atom  23C    basis set group =>   3
Atom  24C    basis set group =>   3
Atom  25C    basis set group =>   3
Atom  26H    basis set group =>   4
Atom  27H    basis set group =>   4
Atom  28H    basis set group =>   4
Atom  29H    basis set group =>   4
Atom  30H    basis set group =>   4
Atom  31H    basis set group =>   4
Atom  32H    basis set group =>   4
Atom  33H    basis set group =>   4
Atom  34H    basis set group =>   4
Atom  35H    basis set group =>   4
Atom  36H    basis set group =>   4
Atom  37H    basis set group =>   4
Atom  38H    basis set group =>   4
Atom  39H    basis set group =>   4
Atom  40H    basis set group =>   4
Atom  41H    basis set group =>   4
Atom  42H    basis set group =>   4
Atom  43H    basis set group =>   4
Atom  44H    basis set group =>   4
Atom  45H    basis set group =>   4
Atom  46H    basis set group =>   4


           ************************************************************
           *        Program running with 4 parallel MPI-processes     *
           *              working on a common directory               *
           ************************************************************
------------------------------------------------------------------------------
                           ORCA GTO INTEGRAL CALCULATION
                           -- RI-GTO INTEGRALS CHOSEN --
------------------------------------------------------------------------------
------------------------------------------------------------------------------
                   ___                                                        
                  /   \      - P O W E R E D   B Y -                         
                 /     \                                                     
                 |  |  |   _    _      __       _____    __    __             
                 |  |  |  | |  | |    /  \     |  _  \  |  |  /  |          
                  \  \/   | |  | |   /    \    | | | |  |  | /  /          
                 / \  \   | |__| |  /  /\  \   | |_| |  |  |/  /          
                |  |  |   |  __  | /  /__\  \  |    /   |      \           
                |  |  |   | |  | | |   __   |  |    \   |  |\   \          
                \     /   | |  | | |  |  |  |  | |\  \  |  | \   \       
                 \___/    |_|  |_| |__|  |__|  |_| \__\ |__|  \__/        
                                                                              
                      - O R C A' S   B I G   F R I E N D -                    
                                      &                                       
                       - I N T E G R A L  F E E D E R -                       
                                                                              
 v1 FN, 2020, v2 2021                                                         
------------------------------------------------------------------------------


Reading SHARK input file b3lyp-train-5.SHARKINP.tmp ... ok
----------------------
SHARK INTEGRAL PACKAGE
----------------------

Number of atoms                             ...     47
Number of basis functions                   ...   1646
Number of shells                            ...    646
Maximum angular momentum                    ...      3
Integral batch strategy                     ... SHARK/LIBINT Hybrid
RI-J (if used) integral strategy            ... SPLIT-RIJ (Revised 2003 algorithm where possible)
Printlevel                                  ...      1
Contraction scheme used                     ... PARTIAL GENERAL contraction
Coulomb Range Separation                    ... NOT USED
Exchange Range Separation                   ... NOT USED
Finite Nucleus Model                        ... NOT USED
Auxiliary Coulomb fitting basis             ... AVAILABLE
   # of basis functions in Aux-J            ...   2684
   # of shells in Aux-J                     ...    860
   Maximum angular momentum in Aux-J        ...      4
Auxiliary J/K fitting basis                 ... NOT available
Auxiliary Correlation fitting basis         ... AVAILABLE
   # of basis functions in Aux-C            ...   3386
   # of shells in Aux-C                     ...    938
   Maximum angular momentum in Aux-C        ...      4
Auxiliary 'external' fitting basis          ... NOT available
Integral threshold                          ...     2.500000e-11
Primitive cut-off                           ...     2.500000e-12
Primitive pair pre-selection threshold      ...     2.500000e-12

Calculating pre-screening integrals         ... done (  0.5 sec) Dimension = 646
Calculating pre-screening integrals (ORCA)  ... done (  1.0 sec) Dimension = 490
Organizing shell pair data                  ... done (  3.6 sec)
Shell pair information
Total number of shell pairs                 ...    208981
Shell pairs after pre-screening             ...    120497
Total number of primitive shell pairs       ...    274311
Primitive shell pairs kept                  ...    140725
          la=0 lb=0:  27440 shell pairs
          la=1 lb=0:  31296 shell pairs
          la=1 lb=1:   7868 shell pairs
          la=2 lb=0:  20118 shell pairs
          la=2 lb=1:  10282 shell pairs
          la=2 lb=2:   3439 shell pairs
          la=3 lb=0:  10213 shell pairs
          la=3 lb=1:   5346 shell pairs
          la=3 lb=2:   3538 shell pairs
          la=3 lb=3:    957 shell pairs

Calculating one electron integrals          ... done (  0.5 sec)
Calculating RI/J V-Matrix + Cholesky decomp.... done (  0.7 sec)
Calculating RI/C V-Matrix + Cholesky decomp.... done (  1.1 sec)
Calculating Nuclear repulsion               ... done (  0.0 sec) ENN=   2139.002864179701 Eh

SHARK setup successfully completed in   9.4 seconds

Maximum memory used throughout the entire GTOINT-calculation: 196.2 MB


           ************************************************************
           *        Program running with 4 parallel MPI-processes     *
           *              working on a common directory               *
           ************************************************************
-------------------------------------------------------------------------------
                                 ORCA SCF
-------------------------------------------------------------------------------

------------
SCF SETTINGS
------------
Hamiltonian:
 Density Functional     Method          .... DFT(GTOs)
 Exchange Functional    Exchange        .... B88
   X-Alpha parameter    XAlpha          ....  0.666667
   Becke's b parameter  XBeta           ....  0.004200
 Correlation Functional Correlation     .... LYP
 LDA part of GGA corr.  LDAOpt          .... VWN-5
 Gradients option       PostSCFGGA      .... off
 Hybrid DFT is turned on
   Fraction HF Exchange ScalHFX         ....  0.200000
   Scaling of DF-GGA-X  ScalDFX         ....  0.720000
   Scaling of DF-GGA-C  ScalDFC         ....  0.810000
   Scaling of DF-LDA-C  ScalLDAC        ....  1.000000
   Perturbative correction              ....  0.000000
   Density functional embedding theory  .... OFF
   NL short-range parameter             ....  4.800000
 RI-approximation to the Coulomb term is turned on
   Number of AuxJ basis functions       .... 2684
   RIJ-COSX (HFX calculated with COS-X)).... on


General Settings:
 Integral files         IntName         .... b3lyp-train-5
 Hartree-Fock type      HFTyp           .... RHF
 Total Charge           Charge          ....    0
 Multiplicity           Mult            ....    1
 Number of Electrons    NEL             ....  182
 Basis Dimension        Dim             .... 1490
 Nuclear Repulsion      ENuc            ....   2139.0028641797 Eh

Convergence Acceleration:
 DIIS                   CNVDIIS         .... on
   Start iteration      DIISMaxIt       ....    12
   Startup error        DIISStart       ....  0.200000
   # of expansion vecs  DIISMaxEq       ....     5
   Bias factor          DIISBfac        ....   1.050
   Max. coefficient     DIISMaxC        ....  10.000
 Trust-Rad. Augm. Hess. CNVTRAH         .... auto
   Auto Start mean grad. ratio tolernc. ....  1.125000
   Auto Start start iteration           ....    20
   Auto Start num. interpolation iter.  ....    10
   Max. Number of Micro iterations      ....    16
   Max. Number of Macro iterations      .... Maxiter - #DIIS iter
   Number of Davidson start vectors     ....     2
   Converg. threshold I  (grad. norm)   ....   1.000e-05
   Converg. threshold II (energy diff.) ....   1.000e-08
   Grad. Scal. Fac. for Micro threshold ....   0.100
   Minimum threshold for Micro iter.    ....   0.010
   NR start threshold (gradient norm)   ....   0.001
   Initial trust radius                 ....   0.400
   Minimum AH scaling param. (alpha)    ....   1.000
   Maximum AH scaling param. (alpha)    .... 1000.000
   Orbital update algorithm             .... Taylor
   White noise on init. David. guess    .... on
   Maximum white noise                  ....   0.010
   Quad. conv. algorithm                .... NR
 SOSCF                  CNVSOSCF        .... on
   Start iteration      SOSCFMaxIt      ....   150
   Startup grad/error   SOSCFStart      ....  0.003300
 Level Shifting         CNVShift        .... on
   Level shift para.    LevelShift      ....    0.2500
   Turn off err/grad.   ShiftErr        ....    0.0010
 Zerner damping         CNVZerner       .... off
 Static damping         CNVDamp         .... on
   Fraction old density DampFac         ....    0.7000
   Max. Damping (<1)    DampMax         ....    0.9800
   Min. Damping (>=0)   DampMin         ....    0.0000
   Turn off err/grad.   DampErr         ....    0.1000
 Fernandez-Rico         CNVRico         .... off

SCF Procedure:
 Maximum # iterations   MaxIter         ....   125
 SCF integral mode      SCFMode         .... Direct
   Integral package                     .... SHARK and LIBINT hybrid scheme
 Reset frequency        DirectResetFreq ....    20
 Integral Threshold     Thresh          ....  2.500e-11 Eh
 Primitive CutOff       TCut            ....  2.500e-12 Eh

Convergence Tolerance:
 Convergence Check Mode ConvCheckMode   .... Total+1el-Energy
 Convergence forced     ConvForced      .... 0
 Energy Change          TolE            ....  1.000e-08 Eh
 1-El. energy change                    ....  1.000e-05 Eh
 Orbital Gradient       TolG            ....  1.000e-05
 Orbital Rotation angle TolX            ....  1.000e-05
 DIIS Error             TolErr          ....  5.000e-07


Diagonalization of the overlap matrix:
Smallest eigenvalue                        ... 1.981e-07
Time for diagonalization                   ...    0.603 sec
Threshold for overlap eigenvalues          ... 1.000e-08
Number of eigenvalues below threshold      ... 0
Time for construction of square roots      ...    0.458 sec
Total time needed                          ...    1.075 sec

Time for model grid setup =    1.691 sec

------------------------------
INITIAL GUESS: MODEL POTENTIAL
------------------------------
Loading Hartree-Fock densities                     ... done
Calculating cut-offs                               ... done
Initializing the effective Hamiltonian             ... done
Setting up the integral package (SHARK)            ... done
Starting the Coulomb interaction                   ... done (   6.5 sec)
Reading the grid                                   ... done
Mapping shells                                     ... done
Starting the XC term evaluation                    ... done (   4.6 sec)
  promolecular density results
     # of electrons  =    181.999112238
     EX              =   -147.468169742
     EC              =     -6.175609918
     EX+EC           =   -153.643779660
Transforming the Hamiltonian                       ... done (   0.4 sec)
Diagonalizing the Hamiltonian                      ... done (   0.6 sec)
Back transforming the eigenvectors                 ... done (   0.2 sec)
Now organizing SCF variables                       ... done
                      ------------------
                      INITIAL GUESS DONE (  14.1 sec)
                      ------------------
-------------------
DFT GRID GENERATION
-------------------

General Integration Accuracy     IntAcc      ... 4.388
Radial Grid Type                 RadialGrid  ... OptM3 with GC (2021)
Angular Grid (max. ang.)         AngularGrid ... 4 (Lebedev-302)
Angular grid pruning method      GridPruning ... 4 (adaptive)
Weight generation scheme         WeightScheme... Becke
Basis function cutoff            BFCut       ... 1.0000e-11
Integration weight cutoff        WCut        ... 1.0000e-14
Angular grids for H and He will be reduced by one unit
Partially contracted basis set               ... off
Rotationally invariant grid construction     ... off

Total number of grid points                  ...   227758
Total number of batches                      ...     3586
Average number of points per batch           ...       63
Average number of grid points per atom       ...     4846
Time for grid setup =    5.159 sec

--------------------
COSX GRID GENERATION
--------------------

GRIDX 1
-------
General Integration Accuracy     IntAcc      ... 3.816
Radial Grid Type                 RadialGrid  ... OptM3 with GC (2021)
Angular Grid (max. ang.)         AngularGrid ... 1 (Lebedev-50)
Angular grid pruning method      GridPruning ... 4 (adaptive)
Weight generation scheme         WeightScheme... Becke
Basis function cutoff            BFCut       ... 1.0000e-11
Integration weight cutoff        WCut        ... 1.0000e-14
Angular grids for H and He will be reduced by one unit
Partially contracted basis set               ... on
Rotationally invariant grid construction     ... off

Total number of grid points                  ...    28983
Total number of batches                      ...      478
Average number of points per batch           ...       60
Average number of grid points per atom       ...      617
UseSFitting                                  ... on

GRIDX 2
-------
General Integration Accuracy     IntAcc      ... 4.020
Radial Grid Type                 RadialGrid  ... OptM3 with GC (2021)
Angular Grid (max. ang.)         AngularGrid ... 2 (Lebedev-110)
Angular grid pruning method      GridPruning ... 4 (adaptive)
Weight generation scheme         WeightScheme... Becke
Basis function cutoff            BFCut       ... 1.0000e-11
Integration weight cutoff        WCut        ... 1.0000e-14
Angular grids for H and He will be reduced by one unit
Partially contracted basis set               ... on
Rotationally invariant grid construction     ... off

Total number of grid points                  ...    67388
Total number of batches                      ...     1072
Average number of points per batch           ...       62
Average number of grid points per atom       ...     1434
UseSFitting                                  ... on

GRIDX 3
-------
General Integration Accuracy     IntAcc      ... 4.338
Radial Grid Type                 RadialGrid  ... OptM3 with GC (2021)
Angular Grid (max. ang.)         AngularGrid ... 3 (Lebedev-194)
Angular grid pruning method      GridPruning ... 4 (adaptive)
Weight generation scheme         WeightScheme... Becke
Basis function cutoff            BFCut       ... 1.0000e-11
Integration weight cutoff        WCut        ... 1.0000e-14
Angular grids for H and He will be reduced by one unit
Partially contracted basis set               ... on
Rotationally invariant grid construction     ... off

Total number of grid points                  ...   145273
Total number of batches                      ...     2296
Average number of points per batch           ...       63
Average number of grid points per atom       ...     3091
UseSFitting                                  ... on

Time for X-Grid setup             =   14.439 sec


--------------------
CPCM SOLVATION MODEL
--------------------
CPCM parameters:
  Epsilon                                         ...       8.9300
  Refrac                                          ...       1.4242
  Rsolv                                           ...       1.3000
  Surface type                                    ... GAUSSIAN VDW
  Epsilon function type                           ...         CPCM
Solvent:                                     ... DICHLOROMETHANE
SMD-CDS solvent descriptors:
  Soln                                       ...    1.4242
  Soln25                                     ...    1.4212
  Sola                                       ...    0.1000
  Solb                                       ...    0.0500
  Solg                                       ...   39.1500
  Solc                                       ...    0.0000
  Solh                                       ...    0.6670
Radii:
 Radius for O  used is    3.9949 Bohr (=   2.1140 Ang.)
 Radius for N  used is    3.5716 Bohr (=   1.8900 Ang.)
 Radius for C  used is    3.4960 Bohr (=   1.8500 Ang.)
 Radius for H  used is    2.2677 Bohr (=   1.2000 Ang.)
Calculating surface                               ...        done! (  0.0s)
GEPOL surface points                              ...         2581
GEPOL Volume                                      ...    2437.9797
GEPOL Surface-area                                ...    1327.0188
Calculating surface distance matrix               ...        done! (  0.1s)
Performing Cholesky decomposition & store         ...        done! (  0.4s)
Overall time for CPCM initialization              ...                 0.6s
 re-compute Schwartz prescreening matrix in partically contracted basis (1) ...done (   0.381 sec)
--------------
SCF ITERATIONS
[...]
Partially contracted basis set               ... on
Rotationally invariant grid construction     ... off

Total number of grid points                  ...    15365
Total number of batches                      ...      266
Average number of points per batch           ...       57
Average number of grid points per atom       ...      327

---------------
TD-DFT XC SETUP
---------------

DFT calculation                         ... on
Name of the grid file                   ... b3lyp-train-5_job2.grid_cis.tmp
Exchange functional (TD-DFT)            ... B88
   X-Alpha parameter    XAlpha (TD-DFT) ...  0.666667
   Becke's b parameter  XBeta (TD-DFT)  ...  0.004200
Correlation functional (TD-DFT)         ... LYP
 LDA part of GGA corr.  LDAOpt (TD-DFT) ... VWN-5
Hybrid DFT                              ... on
   Exchange mixing (TD-DFT)             ...  0.200
   GGA exch. scaling (TD-DFT)           ...  0.720
   GGA corr. scaling (TD-DFT)           ...  0.810

Building densities             ... done
Calculating rho(r) on the grid ... done
Building xc-kernel on the grid ... done
                    *** TD-DFT CALCULATION INITIALIZED ***

---------------------------------
    LR-CPCM (non-equilibrium)
---------------------------------

Setting up LR-CPCM             ... done

------------------------
DAVIDSON-DIAGONALIZATION
------------------------

Dimension of the eigenvalue problem            ...  90935
Number of roots to be determined               ...     10
Maximum size of the expansion space            ...     70
Maximum number of iterations                   ...    100
Convergence tolerance for the residual         ...    1.000e-06
Convergence tolerance for the energies         ...    1.000e-06
Orthogonality tolerance                        ...    1.000e-14
Level Shift                                    ...    0.000e+00
Constructing the preconditioner                ... o.k.
Building the initial guess                     ... o.k.
Number of trial vectors determined             ...     70


                       ****Iteration    0****

   Memory handling for direct AO based CIS:
   Memory per vector needed      ...   101 MB
   Memory needed                 ...  3048 MB
   Memory available              ...  4000 MB
   Number of vectors per batch   ...    39
   Number of batches             ...     1
   Time for densities:            1.363
   Time for RI-J (Direct):       41.144
   Time for K (COSX):           253.174
   Time for XC-Integration:      82.424
   Time for LR-CPCM terms:       47.702
   Time for Sigma-Completion:     0.963
   Size of expansion space: 30
   Lowest Energy          :     0.110360479949
   Maximum Energy change  :     0.168980064522 (vector 9)
   Maximum residual norm  :     0.010867354827

                       ****Iteration    1****
   Time for densities:            0.447
   Time for RI-J (Direct):       24.315
   Time for K (COSX):            88.193
   Time for XC-Integration:      28.233
   Time for LR-CPCM terms:       21.905
   Time for Sigma-Completion:     0.328
   Size of expansion space: 40
   Lowest Energy          :     0.102836500647
   Maximum Energy change  :     0.010369392026 (vector 3)
   Maximum residual norm  :     0.000914938519

                       ****Iteration    2****
   Time for densities:            0.450
   Time for RI-J (Direct):       24.075
   Time for K (COSX):            88.490
   Time for XC-Integration:      28.373
   Time for LR-CPCM terms:       21.885
   Time for Sigma-Completion:     0.328
   Size of expansion space: 50
   Lowest Energy          :     0.102571663726
   Maximum Energy change  :     0.001041867704 (vector 3)
   Maximum residual norm  :     0.000104050476

                       ****Iteration    3****
   Time for densities:            0.461
   Time for RI-J (Direct):       24.026
   Time for K (COSX):            88.284
   Time for XC-Integration:      29.012
   Time for LR-CPCM terms:       22.032
   Time for Sigma-Completion:     0.324
   Size of expansion space: 60
   Lowest Energy          :     0.102551671281
   Maximum Energy change  :     0.000424517137 (vector 9)
   Maximum residual norm  :     0.000051415636

                       ****Iteration    4****
   Time for densities:            0.452
   Time for RI-J (Direct):       24.189
   Time for K (COSX):            89.003
   Time for XC-Integration:      29.264
   Time for LR-CPCM terms:       22.078
   Time for Sigma-Completion:     0.329
   Size of expansion space: 70
   Lowest Energy          :     0.102550920667
   Maximum Energy change  :     0.000183532493 (vector 9)
   Maximum residual norm  :     0.000049703635
   Rebuilding the expansion space

                       ****Iteration    5****
   Time for densities:            0.896
   Time for RI-J (Direct):       31.955
   Time for K (COSX):           170.981
   Time for XC-Integration:      56.783
   Time for LR-CPCM terms:       35.123
   Time for Sigma-Completion:     0.653
   Size of expansion space: 20
   Lowest Energy          :     0.102550678902
   Maximum Energy change  :     0.000051509484 (vector 9)
   Maximum residual norm  :     0.000003541622

                       ****Iteration    6****
   Time for densities:            0.467
   Time for RI-J (Direct):       24.410
   Time for K (COSX):            88.854
   Time for XC-Integration:      29.840
   Time for LR-CPCM terms:       22.193
   Time for Sigma-Completion:     0.329
   Size of expansion space: 30
   Lowest Energy          :     0.102550675947
   Maximum Energy change  :     0.000012068954 (vector 9)
   Maximum residual norm  :     0.000003343235

                       ****Iteration    7****
   Time for densities:            0.457
   Time for RI-J (Direct):       24.409
   Time for K (COSX):            89.916
   Time for XC-Integration:      30.020
   Time for LR-CPCM terms:       22.579
   Time for Sigma-Completion:     0.330
   Size of expansion space: 40
   Lowest Energy          :     0.102550675742
   Maximum Energy change  :     0.000006226066 (vector 9)
   Maximum residual norm  :     0.000001003098

                       ****Iteration    8****
   Time for densities:            0.465
   Time for RI-J (Direct):       24.858
   Time for K (COSX):            89.582
   Time for XC-Integration:      29.849
   Time for LR-CPCM terms:       22.564
   Time for Sigma-Completion:     0.332
   Size of expansion space: 50
   Lowest Energy          :     0.102550675722
   Maximum Energy change  :     0.000006662613 (vector 9)
   Maximum residual norm  :     0.000002945576

                       ****Iteration    9****
   Time for densities:            0.449
   Time for RI-J (Direct):       24.726
   Time for K (COSX):           101.352
   Time for XC-Integration:      34.499
   Time for LR-CPCM terms:       22.503
   Time for Sigma-Completion:     0.340
   Size of expansion space: 60
   Lowest Energy          :     0.102550675721
   Maximum Energy change  :     0.000011658433 (vector 9)
   Maximum residual norm  :     0.000003080184

                       ****Iteration   10****
   Time for densities:            0.472
   Time for RI-J (Direct):       24.671
   Time for K (COSX):            94.344
   Time for XC-Integration:      31.064
   Time for LR-CPCM terms:       22.874
   Time for Sigma-Completion:     0.339
   Size of expansion space: 70
   Lowest Energy          :     0.102550675721
   Maximum Energy change  :     0.000010366085 (vector 9)
   Maximum residual norm  :     0.000001402284
   Rebuilding the expansion space

                       ****Iteration   11****
   Time for densities:            0.950
   Time for RI-J (Direct):       33.451
   Time for K (COSX):           173.073
   Time for XC-Integration:      57.576
   Time for LR-CPCM terms:       34.610
   Time for Sigma-Completion:     0.690
   Size of expansion space: 19
   Lowest Energy          :     0.102550675745
   Maximum Energy change  :     0.000002331170 (vector 9)
   Maximum residual norm  :     0.000000277814

      *** CONVERGENCE OF RESIDUAL NORM REACHED ***

Storing the converged CI vectors               ... b3lyp-train-5_job2.cis1

                 *** DAVIDSON DONE ***

Total time for solving the CIS problem:  2546.509sec

------------------------------------
TD-DFT/TDA EXCITED STATES (SINGLETS)
------------------------------------

the weight of the individual excitations are printed if larger than 1.0e-02

STATE  1:  E=   0.102551 au      2.791 eV    22507.3 cm**-1 <S**2> =   0.000000
    90a ->  91a  :     0.918472 (c= -0.95836925)
    90a ->  92a  :     0.048229 (c= -0.21961151)

STATE  2:  E=   0.132253 au      3.599 eV    29026.2 cm**-1 <S**2> =   0.000000
    87a ->  91a  :     0.013249 (c= -0.11510444)
    88a ->  91a  :     0.929126 (c= -0.96391200)
    89a ->  91a  :     0.023300 (c= -0.15264395)

STATE  3:  E=   0.134937 au      3.672 eV    29615.2 cm**-1 <S**2> =   0.000000
    87a ->  91a  :     0.082159 (c=  0.28663441)
    88a ->  91a  :     0.017354 (c=  0.13173359)
    89a ->  91a  :     0.666990 (c= -0.81669466)
    90a ->  92a  :     0.209924 (c= -0.45817465)

STATE  4:  E=   0.144300 au      3.927 eV    31670.1 cm**-1 <S**2> =   0.000000
    84a ->  91a  :     0.012106 (c= -0.11002862)
    87a ->  91a  :     0.055847 (c=  0.23631927)
    89a ->  91a  :     0.256172 (c=  0.50613439)
    90a ->  91a  :     0.052077 (c=  0.22820414)
    90a ->  92a  :     0.530928 (c= -0.72864812)
    90a ->  93a  :     0.025245 (c=  0.15888832)

STATE  5:  E=   0.151797 au      4.131 eV    33315.7 cm**-1 <S**2> =   0.000000
    87a ->  91a  :     0.706783 (c= -0.84070394)
    88a ->  91a  :     0.019792 (c=  0.14068392)
    89a ->  92a  :     0.025930 (c=  0.16102764)
    90a ->  92a  :     0.069089 (c= -0.26284839)
    90a ->  93a  :     0.102035 (c=  0.31942885)
    90a ->  94a  :     0.014552 (c= -0.12063335)
    90a ->  99a  :     0.013288 (c=  0.11527170)

STATE  6:  E=   0.156066 au      4.247 eV    34252.6 cm**-1 <S**2> =   0.000000
    85a ->  91a  :     0.270384 (c=  0.51998414)
    87a ->  91a  :     0.019734 (c=  0.14047779)
    89a ->  93a  :     0.021374 (c=  0.14619683)
    89a ->  94a  :     0.014638 (c=  0.12098797)
    90a ->  92a  :     0.023714 (c=  0.15399201)
    90a ->  93a  :     0.433393 (c=  0.65832621)
    90a ->  94a  :     0.187384 (c=  0.43287890)

STATE  7:  E=   0.156592 au      4.261 eV    34367.9 cm**-1 <S**2> =   0.000000
    86a ->  92a  :     0.023833 (c= -0.15437841)
    87a ->  91a  :     0.046540 (c=  0.21573156)
    90a ->  92a  :     0.020428 (c=  0.14292636)
    90a ->  93a  :     0.220762 (c=  0.46985301)
    90a ->  94a  :     0.637222 (c= -0.79826187)

STATE  8:  E=   0.163094 au      4.438 eV    35794.9 cm**-1 <S**2> =   0.000000
    84a ->  91a  :     0.024988 (c= -0.15807454)
    85a ->  91a  :     0.071491 (c= -0.26737741)
    89a ->  92a  :     0.045100 (c= -0.21236778)
    90a ->  92a  :     0.020884 (c=  0.14451386)
    90a ->  93a  :     0.020267 (c=  0.14236377)
    90a ->  94a  :     0.013222 (c=  0.11498656)
    90a ->  95a  :     0.721688 (c=  0.84952238)
    90a ->  96a  :     0.025439 (c= -0.15949724)

STATE  9:  E=   0.165514 au      4.504 eV    36326.2 cm**-1 <S**2> =   0.000000
    83a ->  91a  :     0.043072 (c= -0.20753863)
    86a ->  91a  :     0.135393 (c=  0.36795842)
    87a ->  92a  :     0.018330 (c= -0.13538652)
    88a ->  91a  :     0.010109 (c= -0.10054591)
    88a ->  92a  :     0.744441 (c= -0.86280996)
    88a ->  99a  :     0.016910 (c= -0.13003872)

STATE 10:  E=   0.165795 au      4.512 eV    36387.7 cm**-1 <S**2> =   0.000000
    85a ->  91a  :     0.369105 (c=  0.60753988)
    86a ->  91a  :     0.016843 (c=  0.12978194)
    89a ->  93a  :     0.027169 (c=  0.16482928)
    89a ->  94a  :     0.014697 (c=  0.12123285)
    90a ->  93a  :     0.132050 (c= -0.36338629)
    90a ->  94a  :     0.072137 (c= -0.26858333)
    90a ->  95a  :     0.064128 (c=  0.25323413)
    90a ->  96a  :     0.244386 (c= -0.49435393)


-----------------------------
TD-DFT/TDA-EXCITATION SPECTRA
-----------------------------

Center of mass = (  0.3405,  0.1058,  0.0168)
Calculating the Dipole integrals                  ... done
Transforming integrals                            ... done
Calculating the Linear Momentum integrals         ... done
Transforming integrals                            ... done
Calculating angular momentum integrals            ... done
Transforming integrals                            ... done

-----------------------------------------------------------------------------
         ABSORPTION SPECTRUM VIA TRANSITION ELECTRIC DIPOLE MOMENTS
-----------------------------------------------------------------------------
State   Energy    Wavelength  fosc         T2        TX        TY        TZ  
        (cm-1)      (nm)                 (au**2)    (au)      (au)      (au) 
-----------------------------------------------------------------------------
   1   22507.3    444.3   0.299834262   4.38565  -1.68943  -1.23670   0.04503
   2   29026.2    344.5   0.011524423   0.13071  -0.35820   0.01965   0.04487
   3   29615.2    337.7   0.470402922   5.22916  -2.28486   0.08232  -0.04244
   4   31670.1    315.8   0.741928256   7.71237   1.04598   2.56846  -0.14599
   5   33315.7    300.2   0.431639255   4.26528  -2.00743   0.47357  -0.10598
   6   34252.6    291.9   0.059105663   0.56808   0.25214  -0.70925   0.03831
   7   34367.9    291.0   0.074256776   0.71131   0.36239  -0.75947  -0.05646
   8   35794.9    279.4   0.232247196   2.13602   0.53289  -1.36088   0.00657
   9   36326.2    275.3   0.003791885   0.03436  -0.00588  -0.16913   0.07566
  10   36387.7    274.8   0.051490918   0.46586  -0.01043   0.66820  -0.13877

-----------------------------------------------------------------------------
         ABSORPTION SPECTRUM VIA TRANSITION VELOCITY DIPOLE MOMENTS
-----------------------------------------------------------------------------
State   Energy    Wavelength   fosc        P2         PX        PY        PZ  
        (cm-1)      (nm)                 (au**2)     (au)      (au)      (au) 
-----------------------------------------------------------------------------
   1   22507.3    444.3   0.100971522   0.01553   0.12457   0.00217   0.00299
   2   29026.2    344.5   0.005921692   0.00117   0.03409  -0.00276  -0.00217
   3   29615.2    337.7   0.217768305   0.04408   0.20989  -0.00321   0.00392
   4   31670.1    315.8   0.330274145   0.07149  -0.18992  -0.18817   0.00275
   5   33315.7    300.2   0.119945164   0.02731   0.16480  -0.01191   0.00325
   6   34252.6    291.9   0.012593193   0.00295  -0.00986   0.05335  -0.00215
   7   34367.9    291.0   0.027529951   0.00647  -0.06451   0.04790  -0.00324
   8   35794.9    279.4   0.068192163   0.01668  -0.05115   0.11857   0.00244
   9   36326.2    275.3   0.001167200   0.00029   0.00001   0.01625   0.00508
  10   36387.7    274.8   0.004303332   0.00107  -0.01973  -0.02225   0.01364

-------------------------------------------------------------------
                             CD SPECTRUM
-------------------------------------------------------------------
State  Energy     Wavelength     R         MX        MY        MZ   
       (cm-1)       (nm)     (1e40*cgs)   (au)      (au)      (au)  
-------------------------------------------------------------------
   1   22507.3    444.3     -6.22670   0.00824  -0.00766  -0.19456
   2   29026.2    344.5    -28.05392   0.15709  -0.08721  -0.03392
   3   29615.2    337.7     21.04236  -0.01165   0.01235  -0.40062
   4   31670.1    315.8     30.78285   0.00041   0.01668  -0.15085
   5   33315.7    300.2      8.19692   0.01262  -0.01428  -0.46682
   6   34252.6    291.9      1.93940  -0.00346  -0.00409   0.05441
   7   34367.9    291.0    -30.62392  -0.04555   0.02500   0.52179
   8   35794.9    279.4    -16.52630   0.03406   0.03998   0.18251
   9   36326.2    275.3     -8.93279  -0.06343   0.13556   0.04766
  10   36387.7    274.8     16.75903   0.05180   0.07957   0.12308

-------------------------------------------------------------------
         CD SPECTRUM VIA TRANSITION VELOCITY DIPOLE MOMENTS        
-------------------------------------------------------------------
State  Energy     Wavelength     R         MX        MY        MZ   
       (cm-1)       (nm)     (1e40*cgs)   (au)      (au)      (au)  
-------------------------------------------------------------------
   1   22507.3    444.3      1.96507   0.00824  -0.00766  -0.19456
   2   29026.2    344.5     20.21309   0.15709  -0.08721  -0.03392
   3   29615.2    337.7    -14.16286  -0.01165   0.01235  -0.40062
   4   31670.1    315.8    -11.86126   0.00041   0.01668  -0.15085
   5   33315.7    300.2      2.26684   0.01262  -0.01428  -0.46682
   6   34252.6    291.9     -0.90958  -0.00346  -0.00409   0.05441
   7   34367.9    291.0      7.36500  -0.04555   0.02500   0.52179
   8   35794.9    279.4      9.95439   0.03406   0.03998   0.18251
   9   36326.2    275.3      6.96063  -0.06343   0.13556   0.04766
  10   36387.7    274.8     -3.16636   0.05180   0.07957   0.12308

Total run time:     2558.374 sec

           *** ORCA-CIS/TD-DFT FINISHED WITHOUT ERROR ***

Maximum memory used throughout the entire CIS-calculation: 2717.8 MB

-----------------------
CIS/TD-DFT TOTAL ENERGY
-----------------------

    E(SCF)  =  -1090.186539685 Eh
    DE(CIS) =      0.102550676 Eh (Root  1)
    ----------------------------- ---------
    E(tot)  =  -1090.083989009 Eh


-------------------------   --------------------
FINAL SINGLE POINT ENERGY     -1090.083989009381
-------------------------   --------------------


                            ***************************************
                            *     ORCA property calculations      *
                            ***************************************

                                    ---------------------
                                    Active property flags
                                    ---------------------
   (+) Dipole Moment


------------------------------------------------------------------------------
                       ORCA ELECTRIC PROPERTIES CALCULATION
------------------------------------------------------------------------------

Dipole Moment Calculation                       ... on
Quadrupole Moment Calculation                   ... off
Polarizability Calculation                      ... off
GBWName                                         ... b3lyp-train-5_job2.gbw
Electron density                                ... b3lyp-train-5_job2.scfp
The origin for moment calculation is the CENTER OF MASS  = ( 0.340540,  0.105788  0.016777)

-------------
DIPOLE MOMENT
-------------
                                X             Y             Z
Electronic contribution:      6.17028       4.68887       0.08177
Nuclear contribution   :     -8.74008      -4.24075      -0.31427
                        -----------------------------------------
Total Dipole Moment    :     -2.56980       0.44812      -0.23251
                        -----------------------------------------
Magnitude (a.u.)       :      2.61892
Magnitude (Debye)      :      6.65676



--------------------
Rotational spectrum 
--------------------
 
Rotational constants in cm-1:     0.007311     0.004413     0.002767 
Rotational constants in MHz :   219.178800   132.311442    82.965179 

 Dipole components along the rotational axes: 
x,y,z [a.u.] :    -2.236185     1.355978    -0.139752 
x,y,z [Debye]:    -5.683932     3.446622    -0.355220 

 

Timings for individual modules:

Sum of individual times         ...     3340.743 sec (=  55.679 min)
GTO integral calculation        ...        8.134 sec (=   0.136 min)   0.2 %
SCF iterations                  ...      773.578 sec (=  12.893 min)  23.2 %
CIS module                      ...     2559.031 sec (=  42.651 min)  76.6 %



                             ****ORCA TERMINATED NORMALLY****
TOTAL RUN TIME: 0 days 9 hours 14 minutes 14 seconds 836 msec
